
                                 *****************
                                 * O   R   C   A *
                                 *****************

           --- An Ab Initio, DFT and Semiempirical electronic structure package ---

                  #######################################################
                  #                        -***-                        #
                  #          Department of theory and spectroscopy      #
                  #               Directorship: Frank Neese             #
                  #        Max Planck Institute fuer Kohlenforschung    #
                  #                Kaiser Wilhelm Platz 1               #
                  #                 D-45470 Muelheim/Ruhr               #
                  #                      Germany                        #
                  #                                                     #
                  #                  All rights reserved                #
                  #                        -***-                        #
                  #######################################################


                         Program Version 4.2.0 -  RELEASE  -


 With contributions from (in alphabetic order):
   Daniel Aravena         : Magnetic Suceptibility
   Michael Atanasov       : Ab Initio Ligand Field Theory (pilot matlab implementation)
   Alexander A. Auer      : GIAO ZORA, VPT2
   Ute Becker             : Parallelization
   Giovanni Bistoni       : ED, misc. LED, open-shell LED, HFLED
   Martin Brehm           : Molecular dynamics
   Dmytro Bykov           : SCF Hessian
   Vijay G. Chilkuri      : MRCI spin determinant printing, contributions to CSF-ICE
   Dipayan Datta          : RHF DLPNO-CCSD density
   Achintya Kumar Dutta   : EOM-CC, STEOM-CC
   Dmitry Ganyushin       : Spin-Orbit,Spin-Spin,Magnetic field MRCI
   Miquel Garcia          : C-PCM Hessian, Gaussian charge scheme
   Yang Guo               : DLPNO-NEVPT2, CIM, IAO-localization
   Andreas Hansen         : Spin unrestricted coupled pair/coupled cluster methods
   Benjamin Helmich-Paris : CASSCF linear response (MC-RPA)
   Lee Huntington         : MR-EOM, pCC
   Robert Izsak           : Overlap fitted RIJCOSX, COSX-SCS-MP3, EOM
   Christian Kollmar      : KDIIS, OOCD, Brueckner-CCSD(T), CCSD density
   Simone Kossmann        : Meta GGA functionals, TD-DFT gradient, OOMP2, MP2 Hessian
   Martin Krupicka        : AUTO-CI
   Lucas Lang             : DCDCAS
   Dagmar Lenk            : GEPOL surface, SMD
   Dimitrios Liakos       : Extrapolation schemes; Compound Job, initial MDCI parallelization
   Dimitrios Manganas     : Further ROCIS development; embedding schemes
   Dimitrios Pantazis     : SARC Basis sets
   Taras Petrenko         : DFT Hessian,TD-DFT gradient, ASA, ECA, R-Raman, ABS, FL, XAS/XES, NRVS
   Peter Pinski           : DLPNO-MP2, DLPNO-MP2 Gradient
   Christoph Reimann      : Effective Core Potentials
   Marius Retegan         : Local ZFS, SOC
   Christoph Riplinger    : Optimizer, TS searches, QM/MM, DLPNO-CCSD(T), (RO)-DLPNO pert. Triples
   Tobias Risthaus        : Range-separated hybrids, TD-DFT gradient, RPA, STAB
   Michael Roemelt        : Original ROCIS implementation
   Masaaki Saitow         : Open-shell DLPNO-CCSD energy and density
   Barbara Sandhoefer     : DKH picture change effects
   Avijit Sen             : IP-ROCIS
   Kantharuban Sivalingam : CASSCF convergence, NEVPT2, FIC-MRCI
   Bernardo de Souza      : ESD, SOC TD-DFT
   Georgi Stoychev        : AutoAux, RI-MP2 NMR
   Willem Van den Heuvel  : Paramagnetic NMR
   Boris Wezisla          : Elementary symmetry handling
   Frank Wennmohs         : Technical directorship


 We gratefully acknowledge several colleagues who have allowed us to
 interface, adapt or use parts of their codes:
   Stefan Grimme, W. Hujo, H. Kruse,             : VdW corrections, initial TS optimization,
                  C. Bannwarth                     DFT functionals, gCP, sTDA/sTD-DF
   Ed Valeev, F. Pavosevic, A. Kumar             : LibInt (2-el integral package), F12 methods
   Garnet Chan, S. Sharma, J. Yang, R. Olivares  : DMRG
   Ulf Ekstrom                                   : XCFun DFT Library
   Mihaly Kallay                                 : mrcc  (arbitrary order and MRCC methods)
   Andreas Klamt, Michael Diedenhofen            : otool_cosmo (COSMO solvation model)
   Jiri Pittner, Ondrej Demel                    : Mk-CCSD
   Frank Weinhold                                : gennbo (NPA and NBO analysis)
   Christopher J. Cramer and Donald G. Truhlar   : smd solvation model
   Lars Goerigk                                  : TD-DFT with DH, B97 family of functionals
   V. Asgeirsson, H. Jonsson                     : NEB implementation
   FAccTs GmbH                                   : IRC, NEB, NEB-TS, Multilevel, MM, QM/MM, CI optimization
   S Lehtola, MJT Oliveira, MAL Marques          : LibXC Library


 Your calculation uses the libint2 library for the computation of 2-el integrals
 For citations please refer to: http://libint.valeyev.net

 Your ORCA version has been built with support for libXC version: 4.2.3
 For citations please refer to: https://tddft.org/programs/libxc/

 This ORCA versions uses:
   CBLAS   interface :  Fast vector & matrix operations
   LAPACKE interface :  Fast linear algebra routines
   SCALAPACK package :  Parallel linear algebra routines


----- Orbital basis set information -----
Your calculation utilizes the basis: def2-TZVP
   F. Weigend and R. Ahlrichs, Phys. Chem. Chem. Phys. 7, 3297 (2005).

----- AuxJ basis set information -----
Your calculation utilizes the auxiliary basis: def2/J
   F. Weigend, Phys. Chem. Chem. Phys. 8, 1057 (2006).

================================================================================
                                        WARNINGS
                       Please study these warnings very carefully!
================================================================================

INFO   : Checking CIS options ...

WARNING: CIS/ROCIS methods need fully converged wavefunctions
  ===> : Setting SCFConvForced true
         You can overwrite this default with %scf ConvForced false 


INFO   : the flag for use of LIBINT has been found!

================================================================================
                                       INPUT FILE
================================================================================
NAME = BT6IC-HD-4Cl.inp
|  1> # ORCA input file
|  2> # BT6IC-HD-4Cl.out
|  3> ! B3LYP def2-TZVP def2/J RIJCOSX Grid4 TightSCF
|  4> %maxcore 10000
|  5> %tddft
|  6>   maxdim 5
|  7>   nroots 50
|  8>   end
|  9> * xyz 0 1
| 10>    C        2.83575         2.53510        -2.10198
| 11>    O        1.78149         2.79335        -1.56953
| 12>    C        3.42985         3.17342        -3.30068
| 13>    C        2.95013         4.22944        -4.04768
| 14>    C        3.70435         4.66947        -5.12911
| 15>    C        4.91812         4.04895        -5.44522
| 16>    C        5.39421         2.97714        -4.69831
| 17>    C        4.64527         2.53958        -3.61984
| 18>    C        4.84727         1.42712        -2.69711
| 19>    C        5.63472         0.32928        -2.93078
| 20>    C        5.49380        -0.87046        -2.19921
| 21>    N        5.34801        -1.87495        -1.66419
| 22>    C        6.61483         0.25272        -3.93762
| 23>    N        7.46955         0.15821        -4.69864
| 24>    C        3.85081         1.54975        -1.65480
| 25>    C        3.79529         1.02752        -0.39546
| 26>    C        4.84338         0.45493         0.35763
| 27>    S        6.52503         0.82726        -0.02083
| 28>    C        7.06667        -0.15868         1.28182
| 29>    C        5.98787        -0.71314         1.98203
| 30>    C        4.73098        -0.36204         1.47622
| 31>    C        3.44974        -0.83428         2.07711
| 32>    C        3.07802         0.03065         3.28473
| 33>    S        6.48009        -1.76019         3.29177
| 34>    C        8.12780        -1.46740         2.86806
| 35>    C        8.29429        -0.59215         1.78764
| 36>    N        9.61834        -0.45132         1.48946
| 37>    C        9.97976         0.28478         0.30088
| 38>    C       10.32991        -0.60248        -0.90728
| 39>    C       10.34015        -1.26287         2.35403
| 40>    C        9.40557        -1.90865         3.22333
| 41>    C        9.79132        -2.88708         4.16187
| 42>    N        9.02633        -3.57745         4.99389
| 43>    S        9.95772        -4.63863         5.78669
| 44>    N       11.36810        -4.26440         5.08485
| 45>    C       11.16625        -3.28263         4.21771
| 46>    C       12.09636        -2.60284         3.40391
| 47>    C       11.72082        -1.56288         2.51293
| 48>    N       12.86701        -1.07130         1.93090
| 49>    C       13.11528         0.16504         1.23220
| 50>    C       12.86163         1.42874         2.07324
| 51>    C       13.96737        -1.77547         2.42085
| 52>    C       13.50091        -2.78335         3.35534
| 53>    S       14.43876        -3.88935         4.14169
| 54>    C       16.46254        -1.37729         1.83393
| 55>    C       15.22488        -1.56507         2.05962
| 56>    S       17.80718        -0.36824         2.36303
| 57>    C       18.36081        -2.85995         1.28697
| 58>    C       17.65889        -1.64747         1.02409
| 59>    C       17.71014        -1.13873        -0.40129
| 60>    C       19.13893        -0.81930        -0.82536
| 61>    C       18.96691        -3.86130         1.54723
| 62>    C       11.73662        -6.51654         2.82602
| 63>    C       10.66820        -5.69106         2.22771
| 64>    C        9.32865        -5.59216         2.38304
| 65>    C        8.60488        -4.63008         1.64569
| 66>    N        8.04476        -3.82593         1.05130
| 67>    C        8.60910        -6.40891         3.28283
| 68>    N        8.03554        -7.08640         4.00712
| 69>    C       11.66789        -5.01436         1.39168
| 70>    C       11.89364        -4.04257         0.45539
| 71>    C       13.23539        -3.87836         0.08860
| 72>    C       14.25401        -4.67081         0.61958
| 73>    C       14.01121        -5.66951         1.57875
| 74>    C       12.70481        -5.80305         1.94899
| 75>    C       11.80195        -7.37789         3.80202
| 76>    O       11.85528        -8.16455         4.64346
| 77>   Cl       15.87370        -4.41740         0.11079
| 78>   Cl        3.13969         5.98256        -6.08151
| 79>    C       13.79822         1.52887         3.28867
| 80>    C       13.28562         0.82249         4.53946
| 81>    C       13.05388         2.64819         1.17021
| 82>    C        9.14989        -1.51426        -1.25970
| 83>    C        9.42254        -2.43071        -2.44681
| 84>    C       10.70652         0.30270        -2.07800
| 85>   Cl        5.84270         4.61253        -6.77834
| 86>   Cl       13.63543        -2.64668        -1.04620
| 87>    H        2.01165         4.69894        -3.79872
| 88>    H        6.33257         2.51834        -4.96567
| 89>    H        2.84630         1.15081         0.11593
| 90>    H        3.58307        -1.86706         2.40504
| 91>    H        2.65030        -0.80857         1.33721
| 92>    H        3.85435        -0.02729         4.04339
| 93>    H        2.14445        -0.31865         3.71691
| 94>    H        2.95659         1.07046         2.98978
| 95>    H       10.78613         0.98098         0.52298
| 96>    H        9.10508         0.88572         0.03601
| 97>    H       11.19224        -1.22893        -0.65392
| 98>    H       12.54359         0.19152         0.30593
| 99>    H       14.17173         0.14446         0.94897
|100>    H       11.82857         1.41360         2.43990
|101>    H       17.08627        -0.24548        -0.48340
|102>    H       17.28930        -1.91093        -1.05207
|103>    H       19.55909        -0.04996        -0.18027
|104>    H       19.15514        -0.46024        -1.85098
|105>    H       19.76300        -1.70750        -0.75532
|106>    H       19.48417        -4.74991         1.75440
|107>    H       11.11536        -3.43431         0.02463
|108>    H       14.82412        -6.24711         1.98517
|109>    H       13.92292         2.58638         3.53124
|110>    H       14.78417         1.13873         3.02762
|111>    H       12.27640         1.15241         4.78029
|112>    H       13.92985         1.05859         5.38298
|113>    H       13.27561        -0.25762         4.42884
|114>    H       14.08953         2.71220         0.84415
|115>    H       12.80769         3.56023         1.70755
|116>    H       12.42132         2.59725         0.28574
|117>    H        8.27976        -0.89581        -1.48889
|118>    H        8.89364        -2.13056        -0.39469
|119>    H        9.45914        -1.86777        -3.37532
|120>    H        8.62299        -3.16226        -2.52898
|121>    H       10.36445        -2.96250        -2.32443
|122>    H        9.83576         0.85370        -2.42587
|123>    H       11.09146        -0.28636        -2.90398
|124>    H       11.47502         1.01814        -1.78960
|125> *
|126> 
|127>                          ****END OF INPUT****
================================================================================

                       ****************************
                       * Single Point Calculation *
                       ****************************

---------------------------------
CARTESIAN COORDINATES (ANGSTROEM)
---------------------------------
  C      2.835750    2.535100   -2.101980
  O      1.781490    2.793350   -1.569530
  C      3.429850    3.173420   -3.300680
  C      2.950130    4.229440   -4.047680
  C      3.704350    4.669470   -5.129110
  C      4.918120    4.048950   -5.445220
  C      5.394210    2.977140   -4.698310
  C      4.645270    2.539580   -3.619840
  C      4.847270    1.427120   -2.697110
  C      5.634720    0.329280   -2.930780
  C      5.493800   -0.870460   -2.199210
  N      5.348010   -1.874950   -1.664190
  C      6.614830    0.252720   -3.937620
  N      7.469550    0.158210   -4.698640
  C      3.850810    1.549750   -1.654800
  C      3.795290    1.027520   -0.395460
  C      4.843380    0.454930    0.357630
  S      6.525030    0.827260   -0.020830
  C      7.066670   -0.158680    1.281820
  C      5.987870   -0.713140    1.982030
  C      4.730980   -0.362040    1.476220
  C      3.449740   -0.834280    2.077110
  C      3.078020    0.030650    3.284730
  S      6.480090   -1.760190    3.291770
  C      8.127800   -1.467400    2.868060
  C      8.294290   -0.592150    1.787640
  N      9.618340   -0.451320    1.489460
  C      9.979760    0.284780    0.300880
  C     10.329910   -0.602480   -0.907280
  C     10.340150   -1.262870    2.354030
  C      9.405570   -1.908650    3.223330
  C      9.791320   -2.887080    4.161870
  N      9.026330   -3.577450    4.993890
  S      9.957720   -4.638630    5.786690
  N     11.368100   -4.264400    5.084850
  C     11.166250   -3.282630    4.217710
  C     12.096360   -2.602840    3.403910
  C     11.720820   -1.562880    2.512930
  N     12.867010   -1.071300    1.930900
  C     13.115280    0.165040    1.232200
  C     12.861630    1.428740    2.073240
  C     13.967370   -1.775470    2.420850
  C     13.500910   -2.783350    3.355340
  S     14.438760   -3.889350    4.141690
  C     16.462540   -1.377290    1.833930
  C     15.224880   -1.565070    2.059620
  S     17.807180   -0.368240    2.363030
  C     18.360810   -2.859950    1.286970
  C     17.658890   -1.647470    1.024090
  C     17.710140   -1.138730   -0.401290
  C     19.138930   -0.819300   -0.825360
  C     18.966910   -3.861300    1.547230
  C     11.736620   -6.516540    2.826020
  C     10.668200   -5.691060    2.227710
  C      9.328650   -5.592160    2.383040
  C      8.604880   -4.630080    1.645690
  N      8.044760   -3.825930    1.051300
  C      8.609100   -6.408910    3.282830
  N      8.035540   -7.086400    4.007120
  C     11.667890   -5.014360    1.391680
  C     11.893640   -4.042570    0.455390
  C     13.235390   -3.878360    0.088600
  C     14.254010   -4.670810    0.619580
  C     14.011210   -5.669510    1.578750
  C     12.704810   -5.803050    1.948990
  C     11.801950   -7.377890    3.802020
  O     11.855280   -8.164550    4.643460
  Cl    15.873700   -4.417400    0.110790
  Cl     3.139690    5.982560   -6.081510
  C     13.798220    1.528870    3.288670
  C     13.285620    0.822490    4.539460
  C     13.053880    2.648190    1.170210
  C      9.149890   -1.514260   -1.259700
  C      9.422540   -2.430710   -2.446810
  C     10.706520    0.302700   -2.078000
  Cl     5.842700    4.612530   -6.778340
  Cl    13.635430   -2.646680   -1.046200
  H      2.011650    4.698940   -3.798720
  H      6.332570    2.518340   -4.965670
  H      2.846300    1.150810    0.115930
  H      3.583070   -1.867060    2.405040
  H      2.650300   -0.808570    1.337210
  H      3.854350   -0.027290    4.043390
  H      2.144450   -0.318650    3.716910
  H      2.956590    1.070460    2.989780
  H     10.786130    0.980980    0.522980
  H      9.105080    0.885720    0.036010
  H     11.192240   -1.228930   -0.653920
  H     12.543590    0.191520    0.305930
  H     14.171730    0.144460    0.948970
  H     11.828570    1.413600    2.439900
  H     17.086270   -0.245480   -0.483400
  H     17.289300   -1.910930   -1.052070
  H     19.559090   -0.049960   -0.180270
  H     19.155140   -0.460240   -1.850980
  H     19.763000   -1.707500   -0.755320
  H     19.484170   -4.749910    1.754400
  H     11.115360   -3.434310    0.024630
  H     14.824120   -6.247110    1.985170
  H     13.922920    2.586380    3.531240
  H     14.784170    1.138730    3.027620
  H     12.276400    1.152410    4.780290
  H     13.929850    1.058590    5.382980
  H     13.275610   -0.257620    4.428840
  H     14.089530    2.712200    0.844150
  H     12.807690    3.560230    1.707550
  H     12.421320    2.597250    0.285740
  H      8.279760   -0.895810   -1.488890
  H      8.893640   -2.130560   -0.394690
  H      9.459140   -1.867770   -3.375320
  H      8.622990   -3.162260   -2.528980
  H     10.364450   -2.962500   -2.324430
  H      9.835760    0.853700   -2.425870
  H     11.091460   -0.286360   -2.903980
  H     11.475020    1.018140   -1.789600

----------------------------
CARTESIAN COORDINATES (A.U.)
----------------------------
  NO LB      ZA    FRAG     MASS         X           Y           Z
   0 C     6.0000    0    12.011    5.358791    4.790645   -3.972167
   1 O     8.0000    0    15.999    3.366528    5.278666   -2.965982
   2 C     6.0000    0    12.011    6.481477    5.996895   -6.237381
   3 C     6.0000    0    12.011    5.574938    7.992483   -7.649007
   4 C     6.0000    0    12.011    7.000207    8.824019   -9.692613
   5 C     6.0000    0    12.011    9.293900    7.651407  -10.289975
   6 C     6.0000    0    12.011   10.193580    5.625979   -8.878519
   7 C     6.0000    0    12.011    8.778288    4.799111   -6.840506
   8 C     6.0000    0    12.011    9.160013    2.696866   -5.096799
   9 C     6.0000    0    12.011   10.648078    0.622249   -5.538372
  10 C     6.0000    0    12.011   10.381777   -1.644931   -4.155905
  11 N     7.0000    0    14.007   10.106274   -3.543142   -3.144863
  12 C     6.0000    0    12.011   12.500217    0.477572   -7.441023
  13 N     7.0000    0    14.007   14.115404    0.298974   -8.879143
  14 C     6.0000    0    12.011    7.276976    2.928603   -3.127119
  15 C     6.0000    0    12.011    7.172059    1.941731   -0.747311
  16 C     6.0000    0    12.011    9.152662    0.859693    0.675823
  17 S    16.0000    0    32.060   12.330520    1.563295   -0.039363
  18 C     6.0000    0    12.011   13.354071   -0.299862    2.422289
  19 C     6.0000    0    12.011   11.315434   -1.347639    3.745494
  20 C     6.0000    0    12.011    8.940257   -0.684156    2.789652
  21 C     6.0000    0    12.011    6.519064   -1.576561    3.925169
  22 C     6.0000    0    12.011    5.816615    0.057920    6.207240
  23 S    16.0000    0    32.060   12.245595   -3.326277    6.220544
  24 C     6.0000    0    12.011   15.359316   -2.772984    5.419848
  25 C     6.0000    0    12.011   15.673937   -1.119001    3.378150
  26 N     7.0000    0    14.007   18.176028   -0.852871    2.814671
  27 C     6.0000    0    12.011   18.859013    0.538156    0.568581
  28 C     6.0000    0    12.011   19.520701   -1.138522   -1.714511
  29 C     6.0000    0    12.011   19.540052   -2.386478    4.448472
  30 C     6.0000    0    12.011   17.773951   -3.606826    6.091211
  31 C     6.0000    0    12.011   18.502913   -5.455791    7.864795
  32 N     7.0000    0    14.007   17.057292   -6.760401    9.437084
  33 S    16.0000    0    32.060   18.817364   -8.765740   10.935259
  34 N     7.0000    0    14.007   21.482596   -8.058548    9.608974
  35 C     6.0000    0    12.011   21.101154   -6.203272    7.970317
  36 C     6.0000    0    12.011   22.858808   -4.918655    6.432458
  37 C     6.0000    0    12.011   22.149140   -2.953415    4.748749
  38 N     7.0000    0    14.007   24.315125   -2.024464    3.648872
  39 C     6.0000    0    12.011   24.784287    0.311880    2.328521
  40 C     6.0000    0    12.011   24.304958    2.699927    3.917856
  41 C     6.0000    0    12.011   26.394504   -3.355152    4.574744
  42 C     6.0000    0    12.011   25.513022   -5.259769    6.340674
  43 S    16.0000    0    32.060   27.285302   -7.349806    7.826660
  44 C     6.0000    0    12.011   31.109692   -2.602701    3.465625
  45 C     6.0000    0    12.011   28.770854   -2.957554    3.892118
  46 S    16.0000    0    32.060   33.650693   -0.695873    4.465480
  47 C     6.0000    0    12.011   34.696902   -5.404522    2.432021
  48 C     6.0000    0    12.011   33.370466   -3.113267    1.935250
  49 C     6.0000    0    12.011   33.467314   -2.151888   -0.758328
  50 C     6.0000    0    12.011   36.167336   -1.548253   -1.559704
  51 C     6.0000    0    12.011   35.842266   -7.296800    2.923841
  52 C     6.0000    0    12.011   22.178998  -12.314476    5.340404
  53 C     6.0000    0    12.011   20.159976  -10.754545    4.209762
  54 C     6.0000    0    12.011   17.628594  -10.567651    4.503293
  55 C     6.0000    0    12.011   16.260867   -8.749583    3.109903
  56 N     7.0000    0    14.007   15.202393   -7.229960    1.986669
  57 C     6.0000    0    12.011   16.268841  -12.111085    6.203650
  58 N     7.0000    0    14.007   15.184970  -13.391355    7.572359
  59 C     6.0000    0    12.011   22.049117   -9.475767    2.629894
  60 C     6.0000    0    12.011   22.475722   -7.639350    0.860562
  61 C     6.0000    0    12.011   25.011262   -7.329038    0.167430
  62 C     6.0000    0    12.011   26.936175   -8.826552    1.170837
  63 C     6.0000    0    12.011   26.477350  -10.713821    2.983405
  64 C     6.0000    0    12.011   24.008611  -10.966175    3.683057
  65 C     6.0000    0    12.011   22.302453  -13.942192    7.184777
  66 O     8.0000    0    15.999   22.403232  -15.428764    8.774868
  67 Cl   17.0000    0    35.453   29.996946   -8.347676    0.209363
  68 Cl   17.0000    0    35.453    5.933154   11.305400  -11.492388
  69 C     6.0000    0    12.011   26.074857    2.889146    6.214686
  70 C     6.0000    0    12.011   25.106183    1.554281    8.578336
  71 C     6.0000    0    12.011   24.668258    5.004354    2.211376
  72 C     6.0000    0    12.011   17.290786   -2.861537   -2.380488
  73 C     6.0000    0    12.011   17.806020   -4.593376   -4.623801
  74 C     6.0000    0    12.011   20.232391    0.572020   -3.926851
  75 Cl   17.0000    0    35.453   11.041103    8.716418  -12.809206
  76 Cl   17.0000    0    35.453   25.767228   -5.001500   -1.977031
  77 H     1.0000    0     1.008    3.801468    8.879710   -7.178540
  78 H     1.0000    0     1.008   11.966823    4.758973   -9.383756
  79 H     1.0000    0     1.008    5.378727    2.174716    0.219076
  80 H     1.0000    0     1.008    6.771021   -3.528232    4.544867
  81 H     1.0000    0     1.008    5.008341   -1.527976    2.526961
  82 H     1.0000    0     1.008    7.283666   -0.051571    7.640900
  83 H     1.0000    0     1.008    4.052423   -0.602161    7.023942
  84 H     1.0000    0     1.008    5.587145    2.022876    5.649865
  85 H     1.0000    0     1.008   20.382832    1.853784    0.988289
  86 H     1.0000    0     1.008   17.206108    1.673768    0.068049
  87 H     1.0000    0     1.008   21.150268   -2.322341   -1.235730
  88 H     1.0000    0     1.008   23.703950    0.361920    0.578124
  89 H     1.0000    0     1.008   26.780689    0.272990    1.793293
  90 H     1.0000    0     1.008   22.352758    2.671317    4.610743
  91 H     1.0000    0     1.008   32.288371   -0.463890   -0.913494
  92 H     1.0000    0     1.008   32.672042   -3.611134   -1.988124
  93 H     1.0000    0     1.008   36.961324   -0.094411   -0.340661
  94 H     1.0000    0     1.008   36.197969   -0.869728   -3.497845
  95 H     1.0000    0     1.008   37.346658   -3.226707   -1.427348
  96 H     1.0000    0     1.008   36.819745   -8.976029    3.315336
  97 H     1.0000    0     1.008   21.004986   -6.489905    0.046544
  98 H     1.0000    0     1.008   28.013527  -11.805327    3.751428
  99 H     1.0000    0     1.008   26.310506    4.887550    6.673077
 100 H     1.0000    0     1.008   27.938032    2.151888    5.721373
 101 H     1.0000    0     1.008   23.199034    2.177739    9.033439
 102 H     1.0000    0     1.008   26.323602    2.000445   10.172358
 103 H     1.0000    0     1.008   25.087267   -0.486831    8.369295
 104 H     1.0000    0     1.008   26.625353    5.125315    1.595212
 105 H     1.0000    0     1.008   24.203027    6.727860    3.226802
 106 H     1.0000    0     1.008   23.472893    4.908091    0.539970
 107 H     1.0000    0     1.008   15.646479   -1.692836   -2.813594
 108 H     1.0000    0     1.008   16.806544   -4.026175   -0.745856
 109 H     1.0000    0     1.008   17.875184   -3.529574   -6.378430
 110 H     1.0000    0     1.008   16.295090   -5.975805   -4.779080
 111 H     1.0000    0     1.008   19.585972   -5.598314   -4.392536
 112 H     1.0000    0     1.008   18.586893    1.613259   -4.584230
 113 H     1.0000    0     1.008   20.959822   -0.541142   -5.487727
 114 H     1.0000    0     1.008   21.684645    1.924006   -3.381854

--------------------------------
INTERNAL COORDINATES (ANGSTROEM)
--------------------------------
 C      0   0   0     0.000000000000     0.00000000     0.00000000
 O      1   0   0     1.208991403030     0.00000000     0.00000000
 C      1   2   0     1.482325511620   127.85404771     0.00000000
 C      3   1   2     1.379608103339   128.91093483     2.70286075
 C      4   3   1     1.389951457498   118.35391183   179.00509596
 C      5   4   3     1.399359930611   120.39986054     0.08012067
 C      6   5   4     1.390436230936   121.16219641     0.49212593
 C      7   6   5     1.384004125030   118.49012840   359.40546346
 C      8   7   6     1.459384083955   131.20761576   177.12632761
 C      9   8   7     1.371106063366   125.59798760   339.74943022
 C     10   9   8     1.412242606247   122.31835620   198.90427339
 N     11  10   9     1.147388898587   176.33422106   106.12276726
 C     10   9   8     1.407197154382   124.43779330    16.29048922
 N     13  10   9     1.148316097118   175.61667717   132.35360396
 C      9   8   7     1.447197562394   107.18649308   172.37354542
 C     15   9   8     1.364457356937   131.32471538   199.90851279
 C     16  15   9     1.411912357160   128.11943002    15.63684390
 S     17  16  15     1.763464862990   120.51643443    21.37146798
 C     18  17  16     1.721147464833    90.95811854   178.62702845
 C     19  18  17     1.400546099098   111.27035059   358.63145822
 C     17  16  15     1.389718435152   127.42255452   197.44614592
 C     21  17  16     1.491863045759   125.43258090     2.20169080
 C     22  21  17     1.531217073997   110.32478463   260.88804196
 S     20  19  18     1.747573488727   113.26210973   178.44596757
 C     24  20  19     1.726326849788    89.04125565   358.99359845
 C     19  18  17     1.396710770954   136.75855892   175.35614022
 N     26  19  18     1.364497271452   137.87739312   359.35572902
 C     27  26  19     1.444018712760   118.38225548   356.31940063
 C     28  27  26     1.539313455960   114.15078276   260.08218432
 C     27  26  19     1.388201845374   107.94546985   185.20102830
 C     25  24  20     1.397717606779   139.16740635   186.31594560
 C     31  25  24     1.409604788230   129.68291676     1.23852604
 N     32  31  25     1.324415991069   128.46445447   355.82836740
 S     33  32  31     1.619296811737   108.47829559   176.34237207
 N     34  33  32     1.619197092049    97.89328202   359.46001939
 C     35  34  33     1.325348080694   108.79249852     0.86201381
 C     36  35  34     1.410492643086   129.35131101   177.97169672
 C     37  36  35     1.419997342814   122.72364103   179.83621581
 N     38  37  36     1.376285338656   107.85954588   176.83521641
 C     39  38  37     1.441650539659   130.89629381   197.58827283
 C     40  39  38     1.539033558471   114.26338771    60.04298918
 C     39  38  37     1.395241384492   109.14926220     0.33839832
 C     37  36  35     1.416934581235   127.73697504   357.59453302
 S     43  37  36     1.649589326166   129.24518961     4.62051375
 C     42  39  38     2.594011512638   126.99018873   181.66362526
 C     45  42  39     1.272006124238     2.88920485   317.39471772
 S     45  42  39     1.762437358348   138.92329056    86.13255733
 C     45  42  39     2.469994921068   134.20361266   224.01255494
 C     48  45  42     1.425449168227    31.98487508   139.79334294
 C     49  48  45     1.514315388055   116.27522453   210.73256893
 C     50  49  48     1.524241369961   111.34645093   298.08344441
 C     48  45  42     1.199080606173   147.31896158   315.88903392
 C     35  34  33     3.210958507814   104.05086399   261.14584786
 C     53  35  34     1.476791584111    79.04246583    72.95138001
 C     54  53  35     1.352147485077   135.32258929   279.22414281
 C     55  54  53     1.411781130983   119.85022104   178.07727716
 N     56  55  54     1.146163648438   178.19368658   322.21231054
 C     55  54  53     1.412251680509   122.38794910   359.14110314
 N     58  55  54     1.145670012613   179.05418136   317.25053519
 C     54  53  35     1.468417225110    89.75477366    99.06088277
 C     60  54  53     1.368202408527   146.02265515   182.21523640
 C     61  60  54     1.400640171743   114.86847986   177.49379791
 C     62  61  60     1.395529815984   122.20929570     1.41741674
 C     63  62  61     1.405830935390   122.47514623   358.64909786
 C     64  63  62     1.364401535179   114.83702012     0.00000000
 C     53  35  34     1.303367880301    86.70338770   295.68095817
 O     66  53  35     1.153125889962   178.34339696   165.55105859
 Cl    63  62  61     1.716531266333   119.48050171   179.50599995
 Cl     5   4   3     1.717589014782   119.67331927   180.04918048
 C     41  40  39     1.537692079026   112.64552372    63.10791592
 C     70  41  40     1.525190836748   114.41552810   272.44776929
 C     41  40  39     1.529536382666   108.13676642   184.59149733
 C     29  28  27     1.532315184680   110.38445381    58.31427490
 C     73  29  28     1.524286317297   113.52345013   180.23802762
 C     29  28  27     1.527013831928   108.43101654   180.70975269
 Cl     6   5   4     1.717463107959   119.78696412   180.42419965
 Cl    62  61  60     1.721870687363   118.62083214   181.93688953
 H      4   3   1     1.078497121925   120.71779742   358.84597046
 H      7   6   5     1.078192143915   119.52529394   179.96375422
 H     16  15   9     1.085035564532   115.28370324   189.73213125
 H     22  21  17     1.091764398669   108.39350110   141.49668904
 H     22  21  17     1.089595029220   110.43466106    22.86683342
 H     23  22  21     1.087019000800   110.30074618   299.70969744
 H     23  22  21     1.086435910351   109.92091127   179.99029469
 H     23  22  21     1.087633018761   110.68659524    59.99775780
 H     28  27  26     1.088235005364   110.09571780   134.30707275
 H     28  27  26     1.093777903827   106.21495018    18.93247429
 H     29  28  27     1.095556443548   109.09452177   299.04839647
 H     40  39  38     1.088809790276   110.04375910   294.38756756
 H     40  39  38     1.093951265734   106.00103368   179.38052440
 H     41  40  39     1.096303670887   109.07057734   303.09525544
 H     50  49  48     1.092635067852   109.02979498   176.45973322
 H     50  49  48     1.094035535986   108.04504864    59.05686276
 H     51  50  49     1.088374737533   110.18809052   299.68947875
 H     51  50  49     1.086776532733   110.22948914   179.76081209
 H     51  50  49     1.087781322923   110.41100709    59.54472249
 H     52  48  45     1.048858926930   178.50618522    99.92905782
 H     61  60  54     1.077615034973   123.73085448   357.87323473
 H     64  63  62     1.076857299971   120.54167695   181.48050787
 H     70  41  40     1.092116154537   107.94849308   152.52852448
 H     70  41  40     1.091995295136   109.73783649    35.99399529
 H     71  70  41     1.088747584934   110.64627314   307.25044515
 H     71  70  41     1.087336881238   109.66405051   188.00896866
 H     71  70  41     1.085805966368   112.34989946    68.54067892
 H     72  41  40     1.087650369466   110.09597033   295.15726134
 H     72  41  40     1.086812197806   110.40680858   175.58918330
 H     72  41  40     1.088583583424   111.67540004    55.38744290
 H     73  29  28     1.091849199981   108.96224501    59.02915378
 H     73  29  28     1.092580455893   109.52219666   301.83403497
 H     74  73  29     1.086449181370   111.10519019   289.20761283
 H     74  73  29     1.086829109796   109.38920250   170.07060691
 H     74  73  29     1.088564153645   111.15758110    50.35548328
 H     75  29  28     1.087583336807   110.36992763   291.99864646
 H     75  29  28     1.085086838737   110.44406955   172.15231695
 H     75  29  28     1.088862343733   111.13034927    52.39108023

---------------------------
INTERNAL COORDINATES (A.U.)
---------------------------
 C      0   0   0     0.000000000000     0.00000000     0.00000000
 O      1   0   0     2.284662649992     0.00000000     0.00000000
 C      1   2   0     2.801189258287   127.85404771     0.00000000
 C      3   1   2     2.607081487450   128.91093483     2.70286075
 C      4   3   1     2.626627594115   118.35391183   179.00509596
 C      5   4   3     2.644407031638   120.39986054     0.08012067
 C      6   5   4     2.627543683151   121.16219641     0.49212593
 C      7   6   5     2.615388764524   118.49012840   359.40546346
 C      8   7   6     2.757836242878   131.20761576   177.12632761
 C      9   8   7     2.591014960321   125.59798760   339.74943022
 C     10   9   8     2.668751760462   122.31835620   198.90427339
 N     11  10   9     2.168250787430   176.33422106   106.12276726
 C     10   9   8     2.659217238215   124.43779330    16.29048922
 N     13  10   9     2.170002938726   175.61667717   132.35360396
 C      9   8   7     2.734807054604   107.18649308   172.37354542
 C     15   9   8     2.578450726025   131.32471538   199.90851279
 C     16  15   9     2.668127680131   128.11943002    15.63684390
 S     17  16  15     3.332465637844   120.51643443    21.37146798
 C     18  17  16     3.252497344627    90.95811854   178.62702845
 C     19  18  17     2.646648565228   111.27035059   358.63145822
 C     17  16  15     2.626187245698   127.42255452   197.44614592
 C     21  17  16     2.819212585801   125.43258090     2.20169080
 C     22  21  17     2.893580921439   110.32478463   260.88804196
 S     20  19  18     3.302435292595   113.26210973   178.44596757
 C     24  20  19     3.262284963735    89.04125565   358.99359845
 C     19  18  17     2.639400845402   136.75855892   175.35614022
 N     26  19  18     2.578526153527   137.87739312   359.35572902
 C     27  26  19     2.728799899373   118.38225548   356.31940063
 C     28  27  26     2.908880866025   114.15078276   260.08218432
 C     27  26  19     2.623321306361   107.94546985   185.20102830
 C     25  24  20     2.641303489372   139.16740635   186.31594560
 C     31  25  24     2.663767006818   129.68291676     1.23852604
 N     32  31  25     2.502783510507   128.46445447   355.82836740
 S     33  32  31     3.060027503714   108.47829559   176.34237207
 N     34  33  32     3.059839060814    97.89328202   359.46001939
 C     35  34  33     2.504544904630   108.79249852     0.86201381
 C     36  35  34     2.665444809343   129.35131101   177.97169672
 C     37  36  35     2.683406088815   122.72364103   179.83621581
 N     38  37  36     2.600802372191   107.85954588   176.83521641
 C     39  38  37     2.724324700776   130.89629381   197.58827283
 C     40  39  38     2.908351936425   114.26338771    60.04298918
 C     39  38  37     2.636624107404   109.14926220     0.33839832
 C     37  36  35     2.677618308217   127.73697504   357.59453302
 S     43  37  36     3.117272059893   129.24518961     4.62051375
 C     42  39  38     4.901971347125   126.99018873   181.66362526
 C     45  42  39     2.403743215481     2.88920485   317.39471772
 S     45  42  39     3.330523935469   138.92329056    86.13255733
 C     45  42  39     4.667613952994   134.20361266   224.01255494
 C     48  45  42     2.693708545776    31.98487508   139.79334294
 C     49  48  45     2.861641363807   116.27522453   210.73256893
 C     50  49  48     2.880398751219   111.34645093   298.08344441
 C     48  45  42     2.265933958163   147.31896158   315.88903392
 C     35  34  33     6.067832207152   104.05086399   261.14584786
 C     53  35  34     2.790731650849    79.04246583    72.95138001
 C     54  53  35     2.555188439466   135.32258929   279.22414281
 C     55  54  53     2.667879698596   119.85022104   178.07727716
 N     56  55  54     2.165935400203   178.19368658   322.21231054
 C     55  54  53     2.668768908332   122.38794910   359.14110314
 N     58  55  54     2.165002563684   179.05418136   317.25053519
 C     54  53  35     2.774906405791    89.75477366    99.06088277
 C     60  54  53     2.585527847888   146.02265515   182.21523640
 C     61  60  54     2.646826336763   114.86847986   177.49379791
 C     62  61  60     2.637169163931   122.20929570     1.41741674
 C     63  62  61     2.656635458482   122.47514623   358.64909786
 C     64  63  62     2.578345238191   114.83702012     0.00000000
 C     53  35  34     2.463008345518    86.70338770   295.68095817
 O     66  53  35     2.179092129962   178.34339696   165.55105859
 Cl    63  62  61     3.243773993683   119.48050171   179.50599995
 Cl     5   4   3     3.245772848570   119.67331927   180.04918048
 C     41  40  39     2.905816907660   112.64552372    63.10791592
 C     70  41  40     2.882192983420   114.41552810   272.44776929
 C     41  40  39     2.890404875108   108.13676642   184.59149733
 C     29  28  27     2.895656049894   110.38445381    58.31427490
 C     73  29  28     2.880483689375   113.52345013   180.23802762
 C     29  28  27     2.885637945054   108.43101654   180.70975269
 Cl     6   5   4     3.245534919156   119.78696412   180.42419965
 Cl    62  61  60     3.253864037143   118.62083214   181.93688953
 H      4   3   1     2.038064196660   120.71779742   358.84597046
 H      7   6   5     2.037487871745   119.52529394   179.96375422
 H     16  15   9     2.050420062531   115.28370324   189.73213125
 H     22  21  17     2.063135716249   108.39350110   141.49668904
 H     22  21  17     2.059036202107   110.43466106    22.86683342
 H     23  22  21     2.054168213881   110.30074618   299.70969744
 H     23  22  21     2.053066332621   109.92091127   179.99029469
 H     23  22  21     2.055328539669   110.68659524    59.99775780
 H     28  27  26     2.056466129485   110.09571780   134.30707275
 H     28  27  26     2.066940689567   106.21495018    18.93247429
 H     29  28  27     2.070301642559   109.09452177   299.04839647
 H     40  39  38     2.057552315553   110.04375910   294.38756756
 H     40  39  38     2.067268296093   106.00103368   179.38052440
 H     41  40  39     2.071713697589   109.07057734   303.09525544
 H     50  49  48     2.064781042559   109.02979498   176.45973322
 H     50  49  48     2.067427543791   108.04504864    59.05686276
 H     51  50  49     2.056730185016   110.18809052   299.68947875
 H     51  50  49     2.053710015639   110.22948914   179.76081209
 H     51  50  49     2.055608793919   110.41100709    59.54472249
 H     52  48  45     1.982056125016   178.50618522    99.92905782
 H     61  60  54     2.036397293895   123.73085448   357.87323473
 H     64  63  62     2.034965382258   120.54167695   181.48050787
 H     70  41  40     2.063800438506   107.94849308   152.52852448
 H     70  41  40     2.063572047338   109.73783649    35.99399529
 H     71  70  41     2.057434764494   110.64627314   307.25044515
 H     71  70  41     2.054768920852   109.66405051   188.00896866
 H     71  70  41     2.051875911013   112.34989946    68.54067892
 H     72  41  40     2.055361327749   110.09597033   295.15726134
 H     72  41  40     2.053777412858   110.40680858   175.58918330
 H     72  41  40     2.057124846554   111.67540004    55.38744290
 H     73  29  28     2.063295967506   108.96224501    59.02915378
 H     73  29  28     2.064677840913   109.52219666   301.83403497
 H     74  73  29     2.053091411213   111.10519019   289.20761283
 H     74  73  29     2.053809371888   109.38920250   170.07060691
 H     74  73  29     2.057088129592   111.15758110    50.35548328
 H     75  29  28     2.055234654381   110.36992763   291.99864646
 H     75  29  28     2.050516956735   110.44406955   172.15231695
 H     75  29  28     2.057651627195   111.13034927    52.39108023

---------------------
BASIS SET INFORMATION
---------------------
There are 6 groups of distinct atoms

 Group   1 Type C   : 11s6p2d1f contracted to 5s3p2d1f pattern {62111/411/11/1}
 Group   2 Type O   : 11s6p2d1f contracted to 5s3p2d1f pattern {62111/411/11/1}
 Group   3 Type N   : 11s6p2d1f contracted to 5s3p2d1f pattern {62111/411/11/1}
 Group   4 Type S   : 14s9p3d1f contracted to 5s5p2d1f pattern {73211/51111/21/1}
 Group   5 Type Cl  : 14s9p3d1f contracted to 5s5p2d1f pattern {73211/51111/21/1}
 Group   6 Type H   : 5s1p contracted to 3s1p pattern {311/1}

Atom   0C    basis set group =>   1
Atom   1O    basis set group =>   2
Atom   2C    basis set group =>   1
Atom   3C    basis set group =>   1
Atom   4C    basis set group =>   1
Atom   5C    basis set group =>   1
Atom   6C    basis set group =>   1
Atom   7C    basis set group =>   1
Atom   8C    basis set group =>   1
Atom   9C    basis set group =>   1
Atom  10C    basis set group =>   1
Atom  11N    basis set group =>   3
Atom  12C    basis set group =>   1
Atom  13N    basis set group =>   3
Atom  14C    basis set group =>   1
Atom  15C    basis set group =>   1
Atom  16C    basis set group =>   1
Atom  17S    basis set group =>   4
Atom  18C    basis set group =>   1
Atom  19C    basis set group =>   1
Atom  20C    basis set group =>   1
Atom  21C    basis set group =>   1
Atom  22C    basis set group =>   1
Atom  23S    basis set group =>   4
Atom  24C    basis set group =>   1
Atom  25C    basis set group =>   1
Atom  26N    basis set group =>   3
Atom  27C    basis set group =>   1
Atom  28C    basis set group =>   1
Atom  29C    basis set group =>   1
Atom  30C    basis set group =>   1
Atom  31C    basis set group =>   1
Atom  32N    basis set group =>   3
Atom  33S    basis set group =>   4
Atom  34N    basis set group =>   3
Atom  35C    basis set group =>   1
Atom  36C    basis set group =>   1
Atom  37C    basis set group =>   1
Atom  38N    basis set group =>   3
Atom  39C    basis set group =>   1
Atom  40C    basis set group =>   1
Atom  41C    basis set group =>   1
Atom  42C    basis set group =>   1
Atom  43S    basis set group =>   4
Atom  44C    basis set group =>   1
Atom  45C    basis set group =>   1
Atom  46S    basis set group =>   4
Atom  47C    basis set group =>   1
Atom  48C    basis set group =>   1
Atom  49C    basis set group =>   1
Atom  50C    basis set group =>   1
Atom  51C    basis set group =>   1
Atom  52C    basis set group =>   1
Atom  53C    basis set group =>   1
Atom  54C    basis set group =>   1
Atom  55C    basis set group =>   1
Atom  56N    basis set group =>   3
Atom  57C    basis set group =>   1
Atom  58N    basis set group =>   3
Atom  59C    basis set group =>   1
Atom  60C    basis set group =>   1
Atom  61C    basis set group =>   1
Atom  62C    basis set group =>   1
Atom  63C    basis set group =>   1
Atom  64C    basis set group =>   1
Atom  65C    basis set group =>   1
Atom  66O    basis set group =>   2
Atom  67Cl   basis set group =>   5
Atom  68Cl   basis set group =>   5
Atom  69C    basis set group =>   1
Atom  70C    basis set group =>   1
Atom  71C    basis set group =>   1
Atom  72C    basis set group =>   1
Atom  73C    basis set group =>   1
Atom  74C    basis set group =>   1
Atom  75Cl   basis set group =>   5
Atom  76Cl   basis set group =>   5
Atom  77H    basis set group =>   6
Atom  78H    basis set group =>   6
Atom  79H    basis set group =>   6
Atom  80H    basis set group =>   6
Atom  81H    basis set group =>   6
Atom  82H    basis set group =>   6
Atom  83H    basis set group =>   6
Atom  84H    basis set group =>   6
Atom  85H    basis set group =>   6
Atom  86H    basis set group =>   6
Atom  87H    basis set group =>   6
Atom  88H    basis set group =>   6
Atom  89H    basis set group =>   6
Atom  90H    basis set group =>   6
Atom  91H    basis set group =>   6
Atom  92H    basis set group =>   6
Atom  93H    basis set group =>   6
Atom  94H    basis set group =>   6
Atom  95H    basis set group =>   6
Atom  96H    basis set group =>   6
Atom  97H    basis set group =>   6
Atom  98H    basis set group =>   6
Atom  99H    basis set group =>   6
Atom 100H    basis set group =>   6
Atom 101H    basis set group =>   6
Atom 102H    basis set group =>   6
Atom 103H    basis set group =>   6
Atom 104H    basis set group =>   6
Atom 105H    basis set group =>   6
Atom 106H    basis set group =>   6
Atom 107H    basis set group =>   6
Atom 108H    basis set group =>   6
Atom 109H    basis set group =>   6
Atom 110H    basis set group =>   6
Atom 111H    basis set group =>   6
Atom 112H    basis set group =>   6
Atom 113H    basis set group =>   6
Atom 114H    basis set group =>   6
---------------------------------
AUXILIARY/J BASIS SET INFORMATION
---------------------------------
There are 6 groups of distinct atoms

 Group   1 Type C   : 12s5p4d2f1g contracted to 6s4p3d1f1g pattern {711111/2111/211/2/1}
 Group   2 Type O   : 12s5p4d2f1g contracted to 6s4p3d1f1g pattern {711111/2111/211/2/1}
 Group   3 Type N   : 12s5p4d2f1g contracted to 6s4p3d1f1g pattern {711111/2111/211/2/1}
 Group   4 Type S   : 14s5p5d2f1g contracted to 8s4p3d1f1g pattern {71111111/2111/311/2/1}
 Group   5 Type Cl  : 14s5p5d2f1g contracted to 8s4p3d1f1g pattern {71111111/2111/311/2/1}
 Group   6 Type H   : 5s2p1d contracted to 3s1p1d pattern {311/2/1}

Atom   0C    basis set group =>   1
Atom   1O    basis set group =>   2
Atom   2C    basis set group =>   1
Atom   3C    basis set group =>   1
Atom   4C    basis set group =>   1
Atom   5C    basis set group =>   1
Atom   6C    basis set group =>   1
Atom   7C    basis set group =>   1
Atom   8C    basis set group =>   1
Atom   9C    basis set group =>   1
Atom  10C    basis set group =>   1
Atom  11N    basis set group =>   3
Atom  12C    basis set group =>   1
Atom  13N    basis set group =>   3
Atom  14C    basis set group =>   1
Atom  15C    basis set group =>   1
Atom  16C    basis set group =>   1
Atom  17S    basis set group =>   4
Atom  18C    basis set group =>   1
Atom  19C    basis set group =>   1
Atom  20C    basis set group =>   1
Atom  21C    basis set group =>   1
Atom  22C    basis set group =>   1
Atom  23S    basis set group =>   4
Atom  24C    basis set group =>   1
Atom  25C    basis set group =>   1
Atom  26N    basis set group =>   3
Atom  27C    basis set group =>   1
Atom  28C    basis set group =>   1
Atom  29C    basis set group =>   1
Atom  30C    basis set group =>   1
Atom  31C    basis set group =>   1
Atom  32N    basis set group =>   3
Atom  33S    basis set group =>   4
Atom  34N    basis set group =>   3
Atom  35C    basis set group =>   1
Atom  36C    basis set group =>   1
Atom  37C    basis set group =>   1
Atom  38N    basis set group =>   3
Atom  39C    basis set group =>   1
Atom  40C    basis set group =>   1
Atom  41C    basis set group =>   1
Atom  42C    basis set group =>   1
Atom  43S    basis set group =>   4
Atom  44C    basis set group =>   1
Atom  45C    basis set group =>   1
Atom  46S    basis set group =>   4
Atom  47C    basis set group =>   1
Atom  48C    basis set group =>   1
Atom  49C    basis set group =>   1
Atom  50C    basis set group =>   1
Atom  51C    basis set group =>   1
Atom  52C    basis set group =>   1
Atom  53C    basis set group =>   1
Atom  54C    basis set group =>   1
Atom  55C    basis set group =>   1
Atom  56N    basis set group =>   3
Atom  57C    basis set group =>   1
Atom  58N    basis set group =>   3
Atom  59C    basis set group =>   1
Atom  60C    basis set group =>   1
Atom  61C    basis set group =>   1
Atom  62C    basis set group =>   1
Atom  63C    basis set group =>   1
Atom  64C    basis set group =>   1
Atom  65C    basis set group =>   1
Atom  66O    basis set group =>   2
Atom  67Cl   basis set group =>   5
Atom  68Cl   basis set group =>   5
Atom  69C    basis set group =>   1
Atom  70C    basis set group =>   1
Atom  71C    basis set group =>   1
Atom  72C    basis set group =>   1
Atom  73C    basis set group =>   1
Atom  74C    basis set group =>   1
Atom  75Cl   basis set group =>   5
Atom  76Cl   basis set group =>   5
Atom  77H    basis set group =>   6
Atom  78H    basis set group =>   6
Atom  79H    basis set group =>   6
Atom  80H    basis set group =>   6
Atom  81H    basis set group =>   6
Atom  82H    basis set group =>   6
Atom  83H    basis set group =>   6
Atom  84H    basis set group =>   6
Atom  85H    basis set group =>   6
Atom  86H    basis set group =>   6
Atom  87H    basis set group =>   6
Atom  88H    basis set group =>   6
Atom  89H    basis set group =>   6
Atom  90H    basis set group =>   6
Atom  91H    basis set group =>   6
Atom  92H    basis set group =>   6
Atom  93H    basis set group =>   6
Atom  94H    basis set group =>   6
Atom  95H    basis set group =>   6
Atom  96H    basis set group =>   6
Atom  97H    basis set group =>   6
Atom  98H    basis set group =>   6
Atom  99H    basis set group =>   6
Atom 100H    basis set group =>   6
Atom 101H    basis set group =>   6
Atom 102H    basis set group =>   6
Atom 103H    basis set group =>   6
Atom 104H    basis set group =>   6
Atom 105H    basis set group =>   6
Atom 106H    basis set group =>   6
Atom 107H    basis set group =>   6
Atom 108H    basis set group =>   6
Atom 109H    basis set group =>   6
Atom 110H    basis set group =>   6
Atom 111H    basis set group =>   6
Atom 112H    basis set group =>   6
Atom 113H    basis set group =>   6
Atom 114H    basis set group =>   6
------------------------------------------------------------------------------
                           ORCA GTO INTEGRAL CALCULATION
                           -- RI-GTO INTEGRALS CHOSEN --
------------------------------------------------------------------------------

                         BASIS SET STATISTICS AND STARTUP INFO

Gaussian basis set:
 # of primitive gaussian shells          ... 1831
 # of primitive gaussian functions       ... 3999
 # of contracted shells                  ... 1017
 # of contracted basis functions         ... 2669
 Highest angular momentum                ...    3
 Maximum contraction depth               ...    7
Auxiliary gaussian basis set:
 # of primitive gaussian shells          ... 2179
 # of primitive gaussian functions       ... 6061
 # of contracted shells                  ... 1363
 # of contracted aux-basis functions     ... 4209
 Highest angular momentum                ...    4
 Maximum contraction depth               ...    7
Ratio of auxiliary to basis functions    ...  1.58
Integral package used                  ... LIBINT
 One Electron integrals                  ... done
 Ordering auxiliary basis shells         ... done
 Integral threshhold             Thresh  ...  2.500e-11
 Primitive cut-off               TCut    ...  2.500e-12
 Pre-screening matrix                    ... done
 Shell pair data                         ... 
 Ordering of the shell pairs             ... done (   0.052 sec) 218932 of 517653 pairs
 Determination of significant pairs      ... done (   0.001 sec)
 Creation of shell pair data             ... done (   0.025 sec)
 Storage of shell pair data              ... done (   0.033 sec)
 Shell pair data done in (   0.112 sec)
 Computing two index integrals           ... done
 Cholesky decomposition of the V-matrix  ... done


Timings:
 Total evaluation time                   ...   8.602 sec (  0.143 min)
 One electron matrix time                ...   3.343 sec (  0.056 min) = 38.9%
 Schwartz matrix evaluation time         ...   4.134 sec (  0.069 min) = 48.1%
 Two index repulsion integral time       ...   0.419 sec (  0.007 min) =  4.9%
 Cholesky decomposition of V             ...   0.576 sec (  0.010 min) =  6.7%
 Three index repulsion integral time     ...   0.000 sec (  0.000 min) =  0.0%

-------------------------------------------------------------------------------
                                 ORCA SCF
-------------------------------------------------------------------------------

------------
SCF SETTINGS
------------
Hamiltonian:
 Density Functional     Method          .... DFT(GTOs)
 Exchange Functional    Exchange        .... B88
   X-Alpha parameter    XAlpha          ....  0.666667
   Becke's b parameter  XBeta           ....  0.004200
 Correlation Functional Correlation     .... LYP
 LDA part of GGA corr.  LDAOpt          .... VWN-5
 Gradients option       PostSCFGGA      .... off
 Hybrid DFT is turned on
   Fraction HF Exchange ScalHFX         ....  0.200000
   Scaling of DF-GGA-X  ScalDFX         ....  0.720000
   Scaling of DF-GGA-C  ScalDFC         ....  0.810000
   Scaling of DF-LDA-C  ScalLDAC        ....  1.000000
   Perturbative correction              ....  0.000000
   Density functional embedding theory  .... OFF
   NL short-range parameter             ....  4.800000
 RI-approximation to the Coulomb term is turned on
   Number of auxiliary basis functions  .... 4209
   RIJ-COSX (HFX calculated with COS-X)).... on


General Settings:
 Integral files         IntName         .... BT6IC-HD-4Cl
 Hartree-Fock type      HFTyp           .... RHF
 Total Charge           Charge          ....    0
 Multiplicity           Mult            ....    1
 Number of Electrons    NEL             ....  606
 Basis Dimension        Dim             .... 2669
 Nuclear Repulsion      ENuc            ....  15880.3793017387 Eh

Convergence Acceleration:
 DIIS                   CNVDIIS         .... on
   Start iteration      DIISMaxIt       ....    12
   Startup error        DIISStart       ....  0.200000
   # of expansion vecs  DIISMaxEq       ....     5
   Bias factor          DIISBfac        ....   1.050
   Max. coefficient     DIISMaxC        ....  10.000
 Newton-Raphson         CNVNR           .... off
 SOSCF                  CNVSOSCF        .... on
   Start iteration      SOSCFMaxIt      ....   150
   Startup grad/error   SOSCFStart      ....  0.003300
 Level Shifting         CNVShift        .... on
   Level shift para.    LevelShift      ....    0.2500
   Turn off err/grad.   ShiftErr        ....    0.0010
 Zerner damping         CNVZerner       .... off
 Static damping         CNVDamp         .... on
   Fraction old density DampFac         ....    0.7000
   Max. Damping (<1)    DampMax         ....    0.9800
   Min. Damping (>=0)   DampMin         ....    0.0000
   Turn off err/grad.   DampErr         ....    0.1000
 Fernandez-Rico         CNVRico         .... off

SCF Procedure:
 Maximum # iterations   MaxIter         ....   125
 SCF integral mode      SCFMode         .... Direct
   Integral package                     .... LIBINT
 Reset frequency        DirectResetFreq ....    20
 Integral Threshold     Thresh          ....  2.500e-11 Eh
 Primitive CutOff       TCut            ....  2.500e-12 Eh

Convergence Tolerance:
 Convergence Check Mode ConvCheckMode   .... Total+1el-Energy
 Convergence forced     ConvForced      .... 1
 Energy Change          TolE            ....  1.000e-08 Eh
 1-El. energy change                    ....  1.000e-05 Eh
 Orbital Gradient       TolG            ....  1.000e-05
 Orbital Rotation angle TolX            ....  1.000e-05
 DIIS Error             TolErr          ....  5.000e-07


Diagonalization of the overlap matrix:
Smallest eigenvalue                        ... 1.169e-06
Time for diagonalization                   ...    3.865 sec
Threshold for overlap eigenvalues          ... 1.000e-08
Number of eigenvalues below threshold      ... 0
Time for construction of square roots      ...    1.269 sec
Total time needed                          ...    5.153 sec

-------------------
DFT GRID GENERATION
-------------------

General Integration Accuracy     IntAcc      ...  4.670
Radial Grid Type                 RadialGrid  ... Gauss-Chebyshev
Angular Grid (max. acc.)         AngularGrid ... Lebedev-302
Angular grid pruning method      GridPruning ... 3 (G Style)
Weight generation scheme         WeightScheme... Becke
Basis function cutoff            BFCut       ...    1.0000e-11
Integration weight cutoff        WCut        ...    1.0000e-14
Grids for H and He will be reduced by one unit

# of grid points (after initial pruning)     ... 612570 (   1.7 sec)
# of grid points (after weights+screening)   ... 507350 (  30.3 sec)
nearest neighbour list constructed           ...    0.0 sec
Grid point re-assignment to atoms done       ...    0.1 sec
Grid point division into batches done        ...    1.7 sec
Reduced shell lists constructed in   22.5 sec

Total number of grid points                  ...   507350
Total number of batches                      ...     7986
Average number of points per batch           ...       63
Average number of grid points per atom       ...     4412
Average number of shells per batch           ...   221.73 (21.80%)
Average number of basis functions per batch  ...   539.17 (20.20%)
Average number of large shells per batch     ...   122.08 (55.06%)
Average number of large basis fcns per batch ...   302.38 (56.08%)
Maximum spatial batch extension              ...  21.39, 21.30, 21.95 au
Average spatial batch extension              ...   1.99,  2.04,  2.07 au

Time for grid setup =   54.462 sec

------------------------------
INITIAL GUESS: MODEL POTENTIAL
------------------------------
Loading Hartree-Fock densities                     ... done
Calculating cut-offs                               ... done
Setting up the integral package                    ... done
Initializing the effective Hamiltonian             ... done
Starting the Coulomb interaction                   ... done (  45.7 sec)
Reading the grid                                   ... done
Mapping shells                                     ... done
Starting the XC term evaluation                    ... done (  34.1 sec)
  promolecular density results
     # of electrons  =    605.979445962
     EX              =   -614.024484847
     EC              =    -21.903921405
     EX+EC           =   -635.928406253
Transforming the Hamiltonian                       ... done (   1.2 sec)
Diagonalizing the Hamiltonian                      ... done (   3.7 sec)
Back transforming the eigenvectors                 ... done (   0.5 sec)
Now organizing SCF variables                       ... done
                      ------------------
                      INITIAL GUESS DONE ( 140.5 sec)
                      ------------------
--------------------
COSX GRID GENERATION
--------------------

General Integration Accuracy     IntAcc      ...  3.340
Radial Grid Type                 RadialGrid  ... Gauss-Chebyshev
Angular Grid (max. acc.)         AngularGrid ... Lebedev-50
Angular grid pruning method      GridPruning ... 3 (G Style)
Weight generation scheme         WeightScheme... Becke
Basis function cutoff            BFCut       ...    1.0000e-11
Integration weight cutoff        WCut        ...    1.0000e-14
Grids for H and He will be reduced by one unit

# of grid points (after initial pruning)     ...  57842 (   0.1 sec)
# of grid points (after weights+screening)   ...  50424 (   2.8 sec)
nearest neighbour list constructed           ...    0.0 sec
Grid point re-assignment to atoms done       ...    0.0 sec
Grid point division into batches done        ...    0.0 sec
Reduced shell lists constructed in    3.2 sec

Total number of grid points                  ...    50424
Total number of batches                      ...      849
Average number of points per batch           ...       59
Average number of grid points per atom       ...      438
Average number of shells per batch           ...   269.40 (26.49%)
Average number of basis functions per batch  ...   666.91 (24.99%)
Average number of large shells per batch     ...   150.09 (55.71%)
Average number of large basis fcns per batch ...   377.98 (56.68%)
Maximum spatial batch extension              ...  17.91, 20.58, 19.77 au
Average spatial batch extension              ...   3.88,  4.27,  4.29 au

Overlap Fitting                  UseSFitting ... on
Constructing numerical overlap ... done (      3.7 sec)
Inverting numerical overlap    ... done (      0.4 sec)
Obtaining analytic overlap     ... done (      0.0 sec)
Final contraction and storage  ... done (      0.6 sec)


General Integration Accuracy     IntAcc      ...  3.670
Radial Grid Type                 RadialGrid  ... Gauss-Chebyshev
Angular Grid (max. acc.)         AngularGrid ... Lebedev-50
Angular grid pruning method      GridPruning ... 3 (G Style)
Weight generation scheme         WeightScheme... Becke
Basis function cutoff            BFCut       ...    1.0000e-11
Integration weight cutoff        WCut        ...    1.0000e-14
Grids for H and He will be reduced by one unit

# of grid points (after initial pruning)     ...  72358 (   0.1 sec)
# of grid points (after weights+screening)   ...  62746 (   3.5 sec)
nearest neighbour list constructed           ...    0.0 sec
Grid point re-assignment to atoms done       ...    0.0 sec
Grid point division into batches done        ...    0.0 sec
Reduced shell lists constructed in    4.2 sec

Total number of grid points                  ...    62746
Total number of batches                      ...     1035
Average number of points per batch           ...       60
Average number of grid points per atom       ...      546
Average number of shells per batch           ...   263.89 (25.95%)
Average number of basis functions per batch  ...   651.56 (24.41%)
Average number of large shells per batch     ...   146.03 (55.34%)
Average number of large basis fcns per batch ...   366.79 (56.29%)
Maximum spatial batch extension              ...  20.04, 19.85, 18.27 au
Average spatial batch extension              ...   3.66,  3.99,  4.02 au

Overlap Fitting                  UseSFitting ... on
Constructing numerical overlap ... done (      4.7 sec)
Inverting numerical overlap    ... done (      0.4 sec)
Obtaining analytic overlap     ... done (      0.0 sec)
Final contraction and storage  ... done (      0.6 sec)


General Integration Accuracy     IntAcc      ...  4.010
Radial Grid Type                 RadialGrid  ... Gauss-Chebyshev
Angular Grid (max. acc.)         AngularGrid ... Lebedev-110
Angular grid pruning method      GridPruning ... 3 (G Style)
Weight generation scheme         WeightScheme... Becke
Basis function cutoff            BFCut       ...    1.0000e-11
Integration weight cutoff        WCut        ...    1.0000e-14
Grids for H and He will be reduced by one unit

# of grid points (after initial pruning)     ... 139900 (   0.2 sec)
# of grid points (after weights+screening)   ... 120222 (   6.9 sec)
nearest neighbour list constructed           ...    0.0 sec
Grid point re-assignment to atoms done       ...    0.0 sec
Grid point division into batches done        ...    0.1 sec
Reduced shell lists constructed in    7.0 sec

Total number of grid points                  ...   120222
Total number of batches                      ...     1939
Average number of points per batch           ...       62
Average number of grid points per atom       ...     1045
Average number of shells per batch           ...   249.58 (24.54%)
Average number of basis functions per batch  ...   614.52 (23.02%)
Average number of large shells per batch     ...   139.02 (55.70%)
Average number of large basis fcns per batch ...   348.52 (56.71%)
Maximum spatial batch extension              ...  20.77, 21.40, 22.93 au
Average spatial batch extension              ...   3.16,  3.27,  3.34 au

Overlap Fitting                  UseSFitting ... on
Constructing numerical overlap ... done (      6.9 sec)
Inverting numerical overlap    ... done (      0.4 sec)
Obtaining analytic overlap     ... done (      0.0 sec)
Final contraction and storage  ... done (      0.6 sec)

Time for X-Grid setup             =   46.499 sec
--------------
SCF ITERATIONS
--------------
ITER       Energy         Delta-E        Max-DP      RMS-DP      [F,P]     Damp
               ***  Starting incremental Fock matrix formation  ***
  0  -6649.8792057039   0.000000000000 0.76545561  0.00132668  0.3007522 0.7000
  1  -6650.8502095010  -0.971003797073 0.44037723  0.00104319  0.1026231 0.7000
                               ***Turning on DIIS***
  2  -6651.1877230345  -0.337513533517 0.63602269  0.00177313  0.0500564 0.0000
  3  -6651.7623001502  -0.574577115687 0.28160264  0.00082992  0.0580025 0.0000
  4  -6651.8811624259  -0.118862275731 0.10782086  0.00029188  0.0402816 0.0000
  5  -6651.8961963414  -0.015033915475 0.06979377  0.00013756  0.0117211 0.0000
  6  -6651.8971844304  -0.000988088979 0.02440063  0.00005050  0.0038802 0.0000
                      *** Initiating the SOSCF procedure ***
                           *** Shutting down DIIS ***
                      *** Re-Reading the Fockian *** 
                      *** Removing any level shift *** 
ITER      Energy       Delta-E        Grad      Rot      Max-DP    RMS-DP
  7  -6651.89734943  -0.0001649984  0.000469  0.000469  0.009454  0.000027
               *** Restarting incremental Fock matrix formation ***
  8  -6651.89740367  -0.0000542367  0.000314  0.001367  0.025127  0.000116
  9  -6651.89732578   0.0000778835  0.000891  0.001254  0.006233  0.000019
 10  -6651.89741589  -0.0000901063  0.000138  0.001043  0.004196  0.000014
 11  -6651.89740992   0.0000059712  0.000269  0.000628  0.003017  0.000008
 12  -6651.89741779  -0.0000078764  0.000026  0.000353  0.001596  0.000005
 13  -6651.89741716   0.0000006331  0.000059  0.000255  0.000830  0.000003
 14  -6651.89741794  -0.0000007778  0.000011  0.000081  0.001765  0.000005
 15  -6651.89741774   0.0000001979  0.000029  0.000055  0.001542  0.000002
 16  -6651.89741781  -0.0000000668  0.000005  0.000023  0.003312  0.000006
 17  -6651.89741789  -0.0000000841  0.000008  0.000016  0.000872  0.000003
                  ***Gradient check signals convergence***
              ***Rediagonalizing the Fockian in SOSCF/NRSCF***

               *****************************************************
               *                     SUCCESS                       *
               *           SCF CONVERGED AFTER  18 CYCLES          *
               *****************************************************

Setting up the final grid:

General Integration Accuracy     IntAcc      ...  5.010
Radial Grid Type                 RadialGrid  ... Gauss-Chebyshev
Angular Grid (max. acc.)         AngularGrid ... Lebedev-434
Angular grid pruning method      GridPruning ... 3 (G Style)
Weight generation scheme         WeightScheme... Becke
Basis function cutoff            BFCut       ...    1.0000e-11
Integration weight cutoff        WCut        ...    1.0000e-14
Grids for H and He will be reduced by one unit

# of grid points (after initial pruning)     ... 1087420 (   2.0 sec)
# of grid points (after weights+screening)   ... 897352 (  54.0 sec)
nearest neighbour list constructed           ...    0.0 sec
Grid point re-assignment to atoms done       ...    0.1 sec
Grid point division into batches done        ...    5.6 sec
Reduced shell lists constructed in   41.8 sec

Total number of grid points                  ...   897352
Total number of batches                      ...    14078
Average number of points per batch           ...       63
Average number of grid points per atom       ...     7803
Average number of shells per batch           ...   213.67 (21.01%)
Average number of basis functions per batch  ...   516.53 (19.35%)
Average number of large shells per batch     ...   117.21 (54.86%)
Average number of large basis fcns per batch ...   289.22 (55.99%)
Maximum spatial batch extension              ...  22.47, 22.08, 21.92 au
Average spatial batch extension              ...   1.63,  1.66,  1.67 au

Final grid set up in   97.9 sec
Final integration                            ... done (  84.0 sec)
Change in XC energy                          ...    -0.000231876
Integrated number of electrons               ...   606.000215993
Previous integrated no of electrons          ...   605.999114920
Old exchange energy                            =   -123.867369459 Eh
New exchange energy                            =   -123.870369735 Eh
Exchange energy change after final integration =     -0.003000276 Eh
Total energy after final integration           =  -6651.900649966 Eh
Final COS-X integration done in                =  2304.269 sec

----------------
TOTAL SCF ENERGY
----------------

Total Energy       :        -6651.90064997 Eh         -181007.41892 eV

Components:
Nuclear Repulsion  :        15880.37930174 Eh          432127.08972 eV
Electronic Energy  :       -22532.27995170 Eh         -613134.50864 eV
One Electron Energy:       -40789.46441569 Eh        -1109937.75490 eV
Two Electron Energy:        18257.18446399 Eh          496803.24625 eV

Virial components:
Potential Energy   :       -13287.69476370 Eh         -361576.55672 eV
Kinetic Energy     :         6635.79411374 Eh          180569.13779 eV
Virial Ratio       :            2.00242722


DFT components:
N(Alpha)           :      303.000107996479 electrons
N(Beta)            :      303.000107996479 electrons
N(Total)           :      606.000215992959 electrons
E(X)               :     -492.200718967124 Eh       
E(C)               :      -25.696833238356 Eh       
E(XC)              :     -517.897552205480 Eh       
DFET-embed. en.    :        0.000000000000 Eh       

---------------
SCF CONVERGENCE
---------------

  Last Energy change         ...    7.7302e-08  Tolerance :   1.0000e-08
  Last MAX-Density change    ...    8.4377e-15  Tolerance :   1.0000e-07
  Last RMS-Density change    ...    1.4338e-17  Tolerance :   5.0000e-09
  Last Orbital Gradient      ...    1.2514e-06  Tolerance :   1.0000e-05
  Last Orbital Rotation      ...    6.5910e-06  Tolerance :   1.0000e-05

             **** THE GBW FILE WAS UPDATED (BT6IC-HD-4Cl.gbw) ****
             **** DENSITY FILE WAS UPDATED (BT6IC-HD-4Cl.scfp) ****
             **** ENERGY FILE WAS UPDATED (BT6IC-HD-4Cl.en.tmp) ****
             **** THE GBW FILE WAS UPDATED (BT6IC-HD-4Cl.gbw) ****
             **** DENSITY FILE WAS UPDATED (BT6IC-HD-4Cl.scfp) ****
----------------
ORBITAL ENERGIES
----------------

  NO   OCC          E(Eh)            E(eV) 
   0   2.0000    -101.550797     -2763.3377 
   1   2.0000    -101.550669     -2763.3342 
   2   2.0000    -101.550049     -2763.3173 
   3   2.0000    -101.546293     -2763.2151 
   4   2.0000     -88.939681     -2420.1718 
   5   2.0000     -88.908744     -2419.3299 
   6   2.0000     -88.905556     -2419.2432 
   7   2.0000     -88.882339     -2418.6114 
   8   2.0000     -88.813156     -2416.7288 
   9   2.0000     -19.228737      -523.2405 
  10   2.0000     -19.133675      -520.6538 
  11   2.0000     -14.406816      -392.0294 
  12   2.0000     -14.390437      -391.5837 
  13   2.0000     -14.348184      -390.4339 
  14   2.0000     -14.342424      -390.2772 
  15   2.0000     -14.333921      -390.0458 
  16   2.0000     -14.332532      -390.0080 
  17   2.0000     -14.329715      -389.9314 
  18   2.0000     -14.326577      -389.8460 
  19   2.0000     -10.328135      -281.0428 
  20   2.0000     -10.279604      -279.7223 
  21   2.0000     -10.275021      -279.5975 
  22   2.0000     -10.273771      -279.5635 
  23   2.0000     -10.272891      -279.5396 
  24   2.0000     -10.270976      -279.4875 
  25   2.0000     -10.270505      -279.4747 
  26   2.0000     -10.267448      -279.3915 
  27   2.0000     -10.266369      -279.3621 
  28   2.0000     -10.261748      -279.2364 
  29   2.0000     -10.260035      -279.1897 
  30   2.0000     -10.258971      -279.1608 
  31   2.0000     -10.256250      -279.0868 
  32   2.0000     -10.248290      -278.8702 
  33   2.0000     -10.248173      -278.8670 
  34   2.0000     -10.245309      -278.7890 
  35   2.0000     -10.240635      -278.6618 
  36   2.0000     -10.239082      -278.6196 
  37   2.0000     -10.237127      -278.5664 
  38   2.0000     -10.235694      -278.5274 
  39   2.0000     -10.235050      -278.5099 
  40   2.0000     -10.232413      -278.4381 
  41   2.0000     -10.232017      -278.4273 
  42   2.0000     -10.231961      -278.4258 
  43   2.0000     -10.231708      -278.4189 
  44   2.0000     -10.231603      -278.4161 
  45   2.0000     -10.230627      -278.3895 
  46   2.0000     -10.230261      -278.3796 
  47   2.0000     -10.229791      -278.3668 
  48   2.0000     -10.229580      -278.3610 
  49   2.0000     -10.227335      -278.2999 
  50   2.0000     -10.226255      -278.2705 
  51   2.0000     -10.225439      -278.2483 
  52   2.0000     -10.224170      -278.2138 
  53   2.0000     -10.224022      -278.2098 
  54   2.0000     -10.223201      -278.1874 
  55   2.0000     -10.222425      -278.1663 
  56   2.0000     -10.222204      -278.1603 
  57   2.0000     -10.217968      -278.0450 
  58   2.0000     -10.217197      -278.0241 
  59   2.0000     -10.216725      -278.0112 
  60   2.0000     -10.213878      -277.9337 
  61   2.0000     -10.209718      -277.8206 
  62   2.0000     -10.198475      -277.5146 
  63   2.0000     -10.198385      -277.5122 
  64   2.0000     -10.198039      -277.5027 
  65   2.0000     -10.197764      -277.4953 
  66   2.0000     -10.193681      -277.3842 
  67   2.0000     -10.192993      -277.3654 
  68   2.0000     -10.183882      -277.1175 
  69   2.0000     -10.179830      -277.0072 
  70   2.0000     -10.178757      -276.9781 
  71   2.0000     -10.178309      -276.9659 
  72   2.0000     -10.172891      -276.8184 
  73   2.0000     -10.172441      -276.8062 
  74   2.0000     -10.165852      -276.6269 
  75   2.0000     -10.163500      -276.5629 
  76   2.0000     -10.153905      -276.3018 
  77   2.0000      -9.483376      -258.0558 
  78   2.0000      -9.483268      -258.0528 
  79   2.0000      -9.482896      -258.0427 
  80   2.0000      -9.479132      -257.9403 
  81   2.0000      -8.010869      -217.9868 
  82   2.0000      -7.985770      -217.3038 
  83   2.0000      -7.981132      -217.1776 
  84   2.0000      -7.958970      -216.5746 
  85   2.0000      -7.891395      -214.7358 
  86   2.0000      -7.245013      -197.1468 
  87   2.0000      -7.244922      -197.1444 
  88   2.0000      -7.244452      -197.1316 
  89   2.0000      -7.240744      -197.0306 
  90   2.0000      -7.236661      -196.9196 
  91   2.0000      -7.236548      -196.9165 
  92   2.0000      -7.236101      -196.9043 
  93   2.0000      -7.235867      -196.8979 
  94   2.0000      -7.235742      -196.8946 
  95   2.0000      -7.235558      -196.8896 
  96   2.0000      -7.232418      -196.8041 
  97   2.0000      -7.231600      -196.7818 
  98   2.0000      -5.975577      -162.6037 
  99   2.0000      -5.968128      -162.4010 
 100   2.0000      -5.967677      -162.3887 
 101   2.0000      -5.948478      -161.8663 
 102   2.0000      -5.944697      -161.7634 
 103   2.0000      -5.944135      -161.7481 
 104   2.0000      -5.941792      -161.6844 
 105   2.0000      -5.940312      -161.6441 
 106   2.0000      -5.936886      -161.5509 
 107   2.0000      -5.921718      -161.1381 
 108   2.0000      -5.919475      -161.0771 
 109   2.0000      -5.913096      -160.9035 
 110   2.0000      -5.853317      -159.2769 
 111   2.0000      -5.852437      -159.2529 
 112   2.0000      -5.845782      -159.0718 
 113   2.0000      -1.157114       -31.4867 
 114   2.0000      -1.064288       -28.9608 
 115   2.0000      -1.041277       -28.3346 
 116   2.0000      -1.027052       -27.9475 
 117   2.0000      -1.024034       -27.8654 
 118   2.0000      -0.961004       -26.1502 
 119   2.0000      -0.953629       -25.9496 
 120   2.0000      -0.943731       -25.6802 
 121   2.0000      -0.941958       -25.6320 
 122   2.0000      -0.936509       -25.4837 
 123   2.0000      -0.928519       -25.2663 
 124   2.0000      -0.925820       -25.1929 
 125   2.0000      -0.925583       -25.1864 
 126   2.0000      -0.921283       -25.0694 
 127   2.0000      -0.914723       -24.8909 
 128   2.0000      -0.897050       -24.4100 
 129   2.0000      -0.889165       -24.1954 
 130   2.0000      -0.885197       -24.0874 
 131   2.0000      -0.882551       -24.0154 
 132   2.0000      -0.875542       -23.8247 
 133   2.0000      -0.858486       -23.3606 
 134   2.0000      -0.853742       -23.2315 
 135   2.0000      -0.852276       -23.1916 
 136   2.0000      -0.837744       -22.7962 
 137   2.0000      -0.828935       -22.5565 
 138   2.0000      -0.827732       -22.5237 
 139   2.0000      -0.826052       -22.4780 
 140   2.0000      -0.824314       -22.4307 
 141   2.0000      -0.811446       -22.0806 
 142   2.0000      -0.798898       -21.7391 
 143   2.0000      -0.791046       -21.5255 
 144   2.0000      -0.788954       -21.4685 
 145   2.0000      -0.788597       -21.4588 
 146   2.0000      -0.784230       -21.3400 
 147   2.0000      -0.773491       -21.0478 
 148   2.0000      -0.769537       -20.9402 
 149   2.0000      -0.767543       -20.8859 
 150   2.0000      -0.757145       -20.6030 
 151   2.0000      -0.750448       -20.4207 
 152   2.0000      -0.745949       -20.2983 
 153   2.0000      -0.732991       -19.9457 
 154   2.0000      -0.731610       -19.9081 
 155   2.0000      -0.722601       -19.6630 
 156   2.0000      -0.708149       -19.2697 
 157   2.0000      -0.703045       -19.1308 
 158   2.0000      -0.699775       -19.0418 
 159   2.0000      -0.693162       -18.8619 
 160   2.0000      -0.689488       -18.7619 
 161   2.0000      -0.682029       -18.5590 
 162   2.0000      -0.665020       -18.0961 
 163   2.0000      -0.659139       -17.9361 
 164   2.0000      -0.655326       -17.8323 
 165   2.0000      -0.651746       -17.7349 
 166   2.0000      -0.649626       -17.6772 
[...]
   297a -> 306a  :     0.390590 (c=  0.62497217)
   300a -> 308a  :     0.038288 (c=  0.19567319)

STATE 43:  E=   0.132169 au      3.596 eV    29007.7 cm**-1
   295a -> 307a  :     0.011724 (c=  0.10827684)
   296a -> 307a  :     0.019810 (c=  0.14074742)
   299a -> 307a  :     0.929755 (c=  0.96423779)

STATE 44:  E=   0.132552 au      3.607 eV    29091.8 cm**-1
   291a -> 303a  :     0.155416 (c=  0.39422801)
   293a -> 304a  :     0.018555 (c=  0.13621658)
   295a -> 304a  :     0.031083 (c=  0.17630511)
   295a -> 305a  :     0.045643 (c=  0.21364169)
   296a -> 305a  :     0.083819 (c= -0.28951545)
   300a -> 308a  :     0.175488 (c=  0.41891324)
   301a -> 310a  :     0.013365 (c=  0.11560671)
   302a -> 308a  :     0.026868 (c=  0.16391402)
   302a -> 309a  :     0.261457 (c=  0.51132898)
   302a -> 310a  :     0.040484 (c=  0.20120609)
   302a -> 311a  :     0.033394 (c=  0.18274000)

STATE 45:  E=   0.133107 au      3.622 eV    29213.6 cm**-1
   291a -> 303a  :     0.088253 (c=  0.29707460)
   293a -> 303a  :     0.012575 (c=  0.11213921)
   293a -> 304a  :     0.324683 (c= -0.56980930)
   293a -> 305a  :     0.010583 (c= -0.10287180)
   294a -> 305a  :     0.026620 (c=  0.16315607)
   295a -> 305a  :     0.153343 (c= -0.39159030)
   296a -> 305a  :     0.062310 (c=  0.24962063)
   300a -> 308a  :     0.014205 (c= -0.11918538)
   302a -> 309a  :     0.209659 (c=  0.45788484)

STATE 46:  E=   0.133975 au      3.646 eV    29404.1 cm**-1
   289a -> 303a  :     0.311865 (c= -0.55844836)
   289a -> 304a  :     0.014308 (c=  0.11961670)
   290a -> 303a  :     0.207460 (c=  0.45547767)
   291a -> 303a  :     0.057401 (c=  0.23958495)
   292a -> 303a  :     0.011316 (c=  0.10637783)
   293a -> 304a  :     0.018496 (c= -0.13600145)
   293a -> 305a  :     0.066597 (c=  0.25806320)
   294a -> 304a  :     0.081136 (c= -0.28484434)
   294a -> 306a  :     0.011238 (c= -0.10601074)
   295a -> 304a  :     0.019596 (c=  0.13998642)
   295a -> 305a  :     0.034279 (c=  0.18514674)
   296a -> 306a  :     0.012564 (c=  0.11208783)
   302a -> 309a  :     0.044545 (c= -0.21105640)
   302a -> 311a  :     0.012012 (c= -0.10960016)

STATE 47:  E=   0.134427 au      3.658 eV    29503.3 cm**-1
   289a -> 303a  :     0.074114 (c= -0.27223892)
   290a -> 303a  :     0.061381 (c=  0.24775263)
   291a -> 303a  :     0.224854 (c= -0.47418732)
   293a -> 304a  :     0.029034 (c=  0.17039327)
   293a -> 305a  :     0.015752 (c=  0.12550826)
   294a -> 304a  :     0.024334 (c=  0.15599500)
   294a -> 306a  :     0.027428 (c= -0.16561310)
   295a -> 305a  :     0.011240 (c=  0.10601664)
   296a -> 306a  :     0.037834 (c= -0.19450874)
   301a -> 309a  :     0.016389 (c= -0.12801918)
   302a -> 309a  :     0.345507 (c=  0.58779832)
   302a -> 310a  :     0.019465 (c= -0.13951600)

STATE 48:  E=   0.135263 au      3.681 eV    29686.7 cm**-1
   301a -> 309a  :     0.757934 (c=  0.87059415)
   301a -> 311a  :     0.191531 (c=  0.43764304)

STATE 49:  E=   0.135485 au      3.687 eV    29735.5 cm**-1
   288a -> 303a  :     0.010235 (c= -0.10116653)
   289a -> 303a  :     0.036529 (c= -0.19112621)
   290a -> 303a  :     0.030407 (c= -0.17437571)
   291a -> 303a  :     0.069103 (c=  0.26287539)
   293a -> 304a  :     0.019797 (c= -0.14070170)
   294a -> 303a  :     0.015274 (c=  0.12358886)
   294a -> 304a  :     0.424122 (c=  0.65124622)
   295a -> 304a  :     0.017156 (c=  0.13097915)
   295a -> 305a  :     0.026295 (c=  0.16215844)
   296a -> 304a  :     0.036500 (c= -0.19105025)
   296a -> 306a  :     0.191277 (c= -0.43735248)
   299a -> 308a  :     0.016247 (c=  0.12746230)
   302a -> 309a  :     0.021572 (c= -0.14687548)

STATE 50:  E=   0.137023 au      3.729 eV    30073.1 cm**-1
   288a -> 303a  :     0.010831 (c=  0.10407330)
   290a -> 303a  :     0.209323 (c= -0.45751866)
   290a -> 304a  :     0.010787 (c= -0.10386170)
   293a -> 304a  :     0.101075 (c= -0.31792264)
   293a -> 305a  :     0.107393 (c=  0.32770801)
   294a -> 305a  :     0.018778 (c= -0.13703274)
   295a -> 304a  :     0.036774 (c= -0.19176541)
   295a -> 305a  :     0.226964 (c=  0.47640728)
   296a -> 306a  :     0.168803 (c=  0.41085702)
   300a -> 309a  :     0.012518 (c=  0.11188212)


-----------------------------
TD-DFT/TDA-EXCITATION SPECTRA
-----------------------------

Center of mass = ( 18.6696, -2.2825,  1.0328)
Calculating the Dipole integrals                  ... done
Transforming integrals                            ... done
Calculating the Linear Momentum integrals         ... done
Transforming integrals                            ... done
Calculating angular momentum integrals            ... done
Transforming integrals                            ... done

-----------------------------------------------------------------------------
         ABSORPTION SPECTRUM VIA TRANSITION ELECTRIC DIPOLE MOMENTS
-----------------------------------------------------------------------------
State   Energy    Wavelength  fosc         T2        TX        TY        TZ  
        (cm-1)      (nm)                 (au**2)    (au)      (au)      (au) 
-----------------------------------------------------------------------------
   1   10682.6    936.1   0.000066487   0.00205   0.03564  -0.02425   0.01381
   2   13685.2    730.7   0.221315806   5.32397   1.22849  -1.33584   1.42489
   3   15629.8    639.8   0.016490613   0.34734   0.39713  -0.39321   0.18714
   4   15684.6    637.6   0.029711239   0.62363  -0.57385   0.49854  -0.21397
   5   15991.6    625.3   0.018923933   0.38958  -0.36982   0.38779  -0.32004
   6   16549.5    604.2   0.592643169  11.78917   2.71778  -0.83835   1.92355
   7   18226.2    548.7   0.334888145   6.04894   1.45478  -1.19835   1.58004
   8   18587.8    538.0   0.008476984   0.15014  -0.05338   0.37726  -0.07045
   9   19528.9    512.1   0.005574512   0.09397   0.01795  -0.25975   0.16181
  10   19948.3    501.3   0.116510996   1.92281   1.37935  -0.03527   0.13766
  11   20063.5    498.4   0.006946193   0.11398  -0.32460  -0.02893   0.08819
  12   20150.9    496.3   0.011972393   0.19560  -0.22192   0.05433  -0.37868
  13   20225.1    494.4   0.001436433   0.02338  -0.12298  -0.01318  -0.08991
  14   20876.5    479.0   0.163255374   2.57446   1.56157  -0.29279   0.22409
  15   21439.6    466.4   0.000516199   0.00793   0.06310   0.01262   0.06152
  16   21676.4    461.3   0.002971880   0.04514  -0.18593  -0.02910  -0.09858
  17   21910.9    456.4   0.040969322   0.61557   0.68538  -0.06904   0.37557
  18   22614.5    442.2   0.000766732   0.01116  -0.00074  -0.08430   0.06367
  19   22840.4    437.8   0.061190529   0.88198   0.09197  -0.65155   0.67007
  20   22899.5    436.7   0.004328294   0.06223  -0.13097  -0.21226  -0.00399
  21   23076.8    433.3   0.068543564   0.97784   0.73281  -0.57751   0.32758
  22   23432.0    426.8   0.028311618   0.39777   0.60417  -0.18078   0.00826
  23   23513.6    425.3   0.015591997   0.21830   0.42725   0.04200  -0.18438
  24   23879.6    418.8   0.010867685   0.14983  -0.26932   0.03827  -0.27537
  25   24385.0    410.1   0.054534510   0.73625   0.75901  -0.27809  -0.28777
  26   24463.6    408.8   0.008506789   0.11448  -0.28270   0.09924   0.15719
  27   24626.5    406.1   0.023621799   0.31578  -0.48499  -0.12432   0.25517
  28   25073.4    398.8   0.035902482   0.47140  -0.65658  -0.00588   0.20065
  29   25275.0    395.6   0.047690259   0.62117  -0.33095   0.40811  -0.58745
  30   25787.9    387.8   0.065989651   0.84243  -0.08864   0.64866  -0.64329
  31   26249.3    381.0   0.139178302   1.74554  -0.89188  -0.29769   0.92815
  32   26279.6    380.5   0.052990387   0.66382  -0.59252  -0.16676   0.53379
  33   26859.8    372.3   0.007078127   0.08675   0.22157  -0.03142  -0.19150
  34   27094.2    369.1   0.054505251   0.66227   0.68882  -0.30424   0.30862
  35   27303.9    366.2   0.018606163   0.22434  -0.10116   0.40739  -0.21941
  36   27418.8    364.7   0.056158943   0.67429  -0.30537   0.52237  -0.55513
  37   27650.7    361.7   0.003442255   0.04098  -0.06176  -0.11501  -0.15473
  38   27908.7    358.3   0.005543743   0.06539   0.07857  -0.11588  -0.21399
  39   28257.8    353.9   0.003137227   0.03655   0.08649  -0.08060   0.15024
  40   28707.6    348.3   0.029648437   0.34000   0.31941   0.45992  -0.16265
  41   28804.1    347.2   0.008089828   0.09246  -0.25550  -0.04932   0.15732
  42   28830.1    346.9   0.010060959   0.11489   0.25904   0.13430  -0.17247
  43   29007.7    344.7   0.003877144   0.04400   0.02521  -0.18080   0.10334
  44   29091.8    343.7   0.043666603   0.49414   0.59661  -0.20562   0.30972
  45   29213.6    342.3   0.004349436   0.04901   0.17933  -0.08506  -0.09807
  46   29404.1    340.1   0.040756204   0.45631  -0.31315   0.54674  -0.24356
  47   29503.3    338.9   0.022425889   0.25024   0.49253  -0.00946  -0.08699
  48   29686.7    336.9   0.000576536   0.00639   0.05608   0.00278  -0.05692
  49   29735.5    336.3   0.035858509   0.39700  -0.51732   0.19757   0.30058
  50   30073.1    332.5   0.005761754   0.06307  -0.18796   0.07767   0.14735

-----------------------------------------------------------------------------
         ABSORPTION SPECTRUM VIA TRANSITION VELOCITY DIPOLE MOMENTS
-----------------------------------------------------------------------------
State   Energy    Wavelength   fosc        P2         PX        PY        PZ  
        (cm-1)      (nm)                 (au**2)     (au)      (au)      (au) 
-----------------------------------------------------------------------------
   1   10682.6    936.1   0.000402533   0.00003   0.00463  -0.00095  -0.00265
   2   13685.2    730.7   0.199055233   0.01862   0.01348  -0.08683   0.10439
   3   15629.8    639.8   0.003615841   0.00039   0.00139  -0.00224  -0.01948
   4   15684.6    637.6   0.009489065   0.00102  -0.01558   0.00739   0.02683
   5   15991.6    625.3   0.002939154   0.00032   0.01034  -0.00742   0.01262
   6   16549.5    604.2   0.117184616   0.01325  -0.01917   0.11278   0.01291
   7   18226.2    548.7   0.139874782   0.01742  -0.02774  -0.08366   0.09826
   8   18587.8    538.0   0.113978497   0.01448  -0.08808   0.07053  -0.04180
   9   19528.9    512.1   0.005933473   0.00079  -0.02541   0.00897  -0.00811
  10   19948.3    501.3   0.097407557   0.01328  -0.03520   0.07320  -0.08175
  11   20063.5    498.4   0.001574610   0.00022  -0.01220   0.00692   0.00439
  12   20150.9    496.3   0.071557847   0.00986   0.07870  -0.05844   0.01568
  13   20225.1    494.4   0.012175547   0.00168   0.02752  -0.02674   0.01452
  14   20876.5    479.0   0.038133707   0.00544   0.00929   0.04362  -0.05875
  15   21439.6    466.4   0.000531378   0.00008   0.00166  -0.00370   0.00784
  16   21676.4    461.3   0.000355274   0.00005   0.00600  -0.00277  -0.00299
  17   21910.9    456.4   0.023642404   0.00354  -0.04489   0.03834  -0.00749
  18   22614.5    442.2   0.000274920   0.00004  -0.00142   0.00269   0.00577
  19   22840.4    437.8   0.014420892   0.00225  -0.04607   0.01096   0.00290
  20   22899.5    436.7   0.003780470   0.00059  -0.00520  -0.01526   0.01821
  21   23076.8    433.3   0.016561993   0.00261   0.02699  -0.04185  -0.01150
  22   23432.0    426.8   0.010194430   0.00163  -0.03546  -0.00827  -0.01751
  23   23513.6    425.3   0.004520184   0.00073  -0.00595  -0.00800  -0.02504
  24   23879.6    418.8   0.001814904   0.00030   0.01241  -0.01086  -0.00494
  25   24385.0    410.1   0.019259394   0.00321   0.00672  -0.00071  -0.05625
  26   24463.6    408.8   0.008618149   0.00144  -0.00791  -0.00782   0.03629
  27   24626.5    406.1   0.012199755   0.00205  -0.01224  -0.02195   0.03771
  28   25073.4    398.8   0.016005811   0.00274   0.00947  -0.02796   0.04326
  29   25275.0    395.6   0.012726178   0.00220   0.03103  -0.03300   0.01211
  30   25787.9    387.8   0.018386643   0.00324   0.04633  -0.02314   0.02364
  31   26249.3    381.0   0.013257475   0.00238  -0.03587   0.02362   0.02310
  32   26279.6    380.5   0.003022736   0.00054  -0.01638   0.01297   0.01031
  33   26859.8    372.3   0.000800857   0.00015  -0.00487  -0.01102   0.00135
  34   27094.2    369.1   0.002190828   0.00041  -0.00891   0.00669  -0.01678
  35   27303.9    366.2   0.003212742   0.00060   0.00890   0.00234   0.02269
  36   27418.8    364.7   0.014237880   0.00267   0.03115  -0.02078   0.03558
  37   27650.7    361.7   0.002512765   0.00047   0.00006   0.00448  -0.02133
  38   27908.7    358.3   0.000684234   0.00013  -0.00746  -0.00326  -0.00801
  39   28257.8    353.9   0.012575056   0.00243  -0.00599  -0.02995   0.03867
  40   28707.6    348.3   0.002770850   0.00054   0.01166  -0.01638   0.01181
  41   28804.1    347.2   0.001953590   0.00038   0.01785  -0.00696   0.00420
  42   28830.1    346.9   0.002010188   0.00040  -0.01763   0.00693  -0.00610
  43   29007.7    344.7   0.000964134   0.00019  -0.00657  -0.01216  -0.00037
  44   29091.8    343.7   0.025058415   0.00498  -0.07007   0.00853  -0.00017
  45   29213.6    342.3   0.000151496   0.00003  -0.00074  -0.00353  -0.00415
  46   29404.1    340.1   0.010660092   0.00214   0.03913  -0.01815   0.01677
  47   29503.3    338.9   0.000514708   0.00010   0.00745  -0.00346   0.00603
  48   29686.7    336.9   0.000398824   0.00008   0.00655  -0.00207   0.00581
  49   29735.5    336.3   0.004882215   0.00099   0.02137   0.01310   0.01907
  50   30073.1    332.5   0.004730519   0.00097   0.02025   0.00145   0.02367

-------------------------------------------------------------------
                             CD SPECTRUM
-------------------------------------------------------------------
State  Energy     Wavelength     R         MX        MY        MZ   
       (cm-1)       (nm)     (1e40*cgs)   (au)      (au)      (au)  
-------------------------------------------------------------------
   1   10682.6    936.1     -5.67090  -0.15731   0.19618  -0.12060
   2   13685.2    730.7    -31.29064   0.17762   0.43019   0.20359
   3   15629.8    639.8     21.28471   0.14370   0.07139   0.08630
   4   15684.6    637.6    -15.36580  -0.09635  -0.20925  -0.07680
   5   15991.6    625.3    -63.55742  -0.01650  -0.30739   0.06785
   6   16549.5    604.2     13.15869   0.15638   0.89966   0.18566
   7   18226.2    548.7    -126.54405   0.18751   0.55717   0.08005
   8   18587.8    538.0    -52.73663  -0.18431  -0.37744  -0.29375
   9   19528.9    512.1    -21.95606  -0.02661   0.17287  -0.00736
  10   19948.3    501.3     -3.64363   0.01732   0.17278  -0.18545
  11   20063.5    498.4    -17.99471   0.12809   0.05878   0.05794
  12   20150.9    496.3    -10.18083   0.03701  -0.07390   0.02473
  13   20225.1    494.4     -4.07664   0.03818  -0.04759   0.05093
  14   20876.5    479.0    -48.76394   0.04661   0.46061  -0.18458
  15   21439.6    466.4      1.84704   0.00115   0.07478   0.04716
  16   21676.4    461.3      7.51178   0.02867  -0.16280  -0.16764
  17   21910.9    456.4     74.27633   0.08706   0.45635   0.34451
  18   22614.5    442.2     -5.20901  -0.04118   0.14324   0.01564
  19   22840.4    437.8    -71.90379   0.26157   0.53747   0.25910
  20   22899.5    436.7    -14.35895  -0.07406   0.18902   0.00861
  21   23076.8    433.3      3.84506   0.09731   0.06586  -0.07669
  22   23432.0    426.8    -13.87241  -0.01232   0.11648  -0.11218
  23   23513.6    425.3     41.08826   0.00881   0.12178  -0.42452
  24   23879.6    418.8     14.97028  -0.06975  -0.18561  -0.07289
  25   24385.0    410.1     30.46396   0.06644   0.05519  -0.10265
  26   24463.6    408.8     16.98133  -0.13232  -0.07207   0.03667
  27   24626.5    406.1      6.36830   0.09515  -0.31078   0.08237
  28   25073.4    398.8      5.26862  -0.02163  -0.10829  -0.01826
  29   25275.0    395.6     37.72765  -0.14114  -0.30602  -0.26931
  30   25787.9    387.8     12.98448  -0.01534  -0.10192  -0.14347
  31   26249.3    381.0     40.05254   0.24864   0.15122   0.37896
  32   26279.6    380.5     -9.58680   0.18954   0.08477   0.19878
  33   26859.8    372.3      2.64965   0.00436   0.02883  -0.02903
  34   27094.2    369.1     51.77528   0.03056   0.01779   0.30517
  35   27303.9    366.2    -15.01061   0.08176  -0.14300  -0.15809
  36   27418.8    364.7      8.45546  -0.02570  -0.35175  -0.34916
  37   27650.7    361.7      5.22222   0.07763  -0.10814  -0.02219
  38   27908.7    358.3     10.29670   0.03948   0.02542  -0.10133
  39   28257.8    353.9     16.68490  -0.02752   0.01450   0.25917
  40   28707.6    348.3    -30.94740  -0.21188  -0.07592  -0.22718
  41   28804.1    347.2     -1.14695  -0.03433   0.03258  -0.06101
  42   28830.1    346.9      6.37496   0.08822  -0.01280   0.04413
  43   29007.7    344.7     -0.20007   0.11189   0.04813   0.05281
  44   29091.8    343.7      7.34441   0.07848   0.39012   0.15811
  45   29213.6    342.3     12.01249   0.04673   0.00681  -0.18027
  46   29404.1    340.1     -7.06531  -0.02747  -0.08750  -0.09957
  47   29503.3    338.9      0.76994  -0.00939   0.20949  -0.09472
  48   29686.7    336.9      0.62055  -0.04365   0.00323  -0.06597
  49   29735.5    336.3     -6.32286   0.13198  -0.05771   0.22046
  50   30073.1    332.5     -4.02853   0.04980  -0.19124   0.10634

Total run time:   149437.175 sec

           *** ORCA-CIS/TD-DFT FINISHED WITHOUT ERROR ***

-----------------------
CIS/TD-DFT TOTAL ENERGY
-----------------------

    E(SCF)  =  -6651.900649966 Eh
    DE(CIS) =      0.048673325 Eh (Root  1)
    ----------------------------- ---------
    E(tot)  =  -6651.851976641 Eh


-------------------------   --------------------
FINAL SINGLE POINT ENERGY     -6651.851976640512
-------------------------   --------------------


                            ***************************************
                            *     ORCA property calculations      *
                            ***************************************

                                    ---------------------
                                    Active property flags
                                    ---------------------
   (+) Dipole Moment


------------------------------------------------------------------------------
                       ORCA ELECTRIC PROPERTIES CALCULATION
------------------------------------------------------------------------------

Dipole Moment Calculation                       ... on
Quadrupole Moment Calculation                   ... off
Polarizability Calculation                      ... off
GBWName                                         ... BT6IC-HD-4Cl.gbw
Electron density file                           ... BT6IC-HD-4Cl.scfp
The origin for moment calculation is the CENTER OF MASS  = (18.669573, -2.282546  1.032806)

-------------
DIPOLE MOMENT
-------------
                                X             Y             Z
Electronic contribution:    -41.02608     -24.97671     -16.96808
Nuclear contribution   :     42.72594      27.25109      16.34236
                        -----------------------------------------
Total Dipole Moment    :      1.69986       2.27438      -0.62572
                        -----------------------------------------
Magnitude (a.u.)       :      2.90755
Magnitude (Debye)      :      7.39041



--------------------
Rotational spectrum 
--------------------
 
Rotational constants in cm-1:     0.001211     0.000452     0.000378 
Rotational constants in MHz :    36.316482    13.535762    11.335027 

 Dipole components along the rotational axes: 
x,y,z [a.u.] :    -0.058672    -2.596511    -1.307111 
x,y,z [Debye]:    -0.149133    -6.599805    -3.322411 

 

Timings for individual modules:

Sum of individual times         ...   170757.511 sec (=2845.959 min)
GTO integral calculation        ...        8.640 sec (=   0.144 min)   0.0 %
SCF iterations                  ...    21311.542 sec (= 355.192 min)  12.5 %
CIS module                      ...   149437.329 sec (=2490.622 min)  87.5 %
                             ****ORCA TERMINATED NORMALLY****
TOTAL RUN TIME: 1 days 23 hours 26 minutes 0 seconds 903 msec
