
                                 *****************
                                 * O   R   C   A *
                                 *****************

           --- An Ab Initio, DFT and Semiempirical electronic structure package ---

                  #######################################################
                  #                        -***-                        #
                  #          Department of theory and spectroscopy      #
                  #               Directorship: Frank Neese             #
                  #        Max Planck Institute fuer Kohlenforschung    #
                  #                Kaiser Wilhelm Platz 1               #
                  #                 D-45470 Muelheim/Ruhr               #
                  #                      Germany                        #
                  #                                                     #
                  #                  All rights reserved                #
                  #                        -***-                        #
                  #######################################################


                         Program Version 4.2.0 -  RELEASE  -


 With contributions from (in alphabetic order):
   Daniel Aravena         : Magnetic Suceptibility
   Michael Atanasov       : Ab Initio Ligand Field Theory (pilot matlab implementation)
   Alexander A. Auer      : GIAO ZORA, VPT2
   Ute Becker             : Parallelization
   Giovanni Bistoni       : ED, misc. LED, open-shell LED, HFLED
   Martin Brehm           : Molecular dynamics
   Dmytro Bykov           : SCF Hessian
   Vijay G. Chilkuri      : MRCI spin determinant printing, contributions to CSF-ICE
   Dipayan Datta          : RHF DLPNO-CCSD density
   Achintya Kumar Dutta   : EOM-CC, STEOM-CC
   Dmitry Ganyushin       : Spin-Orbit,Spin-Spin,Magnetic field MRCI
   Miquel Garcia          : C-PCM Hessian, Gaussian charge scheme
   Yang Guo               : DLPNO-NEVPT2, CIM, IAO-localization
   Andreas Hansen         : Spin unrestricted coupled pair/coupled cluster methods
   Benjamin Helmich-Paris : CASSCF linear response (MC-RPA)
   Lee Huntington         : MR-EOM, pCC
   Robert Izsak           : Overlap fitted RIJCOSX, COSX-SCS-MP3, EOM
   Christian Kollmar      : KDIIS, OOCD, Brueckner-CCSD(T), CCSD density
   Simone Kossmann        : Meta GGA functionals, TD-DFT gradient, OOMP2, MP2 Hessian
   Martin Krupicka        : AUTO-CI
   Lucas Lang             : DCDCAS
   Dagmar Lenk            : GEPOL surface, SMD
   Dimitrios Liakos       : Extrapolation schemes; Compound Job, initial MDCI parallelization
   Dimitrios Manganas     : Further ROCIS development; embedding schemes
   Dimitrios Pantazis     : SARC Basis sets
   Taras Petrenko         : DFT Hessian,TD-DFT gradient, ASA, ECA, R-Raman, ABS, FL, XAS/XES, NRVS
   Peter Pinski           : DLPNO-MP2, DLPNO-MP2 Gradient
   Christoph Reimann      : Effective Core Potentials
   Marius Retegan         : Local ZFS, SOC
   Christoph Riplinger    : Optimizer, TS searches, QM/MM, DLPNO-CCSD(T), (RO)-DLPNO pert. Triples
   Tobias Risthaus        : Range-separated hybrids, TD-DFT gradient, RPA, STAB
   Michael Roemelt        : Original ROCIS implementation
   Masaaki Saitow         : Open-shell DLPNO-CCSD energy and density
   Barbara Sandhoefer     : DKH picture change effects
   Avijit Sen             : IP-ROCIS
   Kantharuban Sivalingam : CASSCF convergence, NEVPT2, FIC-MRCI
   Bernardo de Souza      : ESD, SOC TD-DFT
   Georgi Stoychev        : AutoAux, RI-MP2 NMR
   Willem Van den Heuvel  : Paramagnetic NMR
   Boris Wezisla          : Elementary symmetry handling
   Frank Wennmohs         : Technical directorship


 We gratefully acknowledge several colleagues who have allowed us to
 interface, adapt or use parts of their codes:
   Stefan Grimme, W. Hujo, H. Kruse,             : VdW corrections, initial TS optimization,
                  C. Bannwarth                     DFT functionals, gCP, sTDA/sTD-DF
   Ed Valeev, F. Pavosevic, A. Kumar             : LibInt (2-el integral package), F12 methods
   Garnet Chan, S. Sharma, J. Yang, R. Olivares  : DMRG
   Ulf Ekstrom                                   : XCFun DFT Library
   Mihaly Kallay                                 : mrcc  (arbitrary order and MRCC methods)
   Andreas Klamt, Michael Diedenhofen            : otool_cosmo (COSMO solvation model)
   Jiri Pittner, Ondrej Demel                    : Mk-CCSD
   Frank Weinhold                                : gennbo (NPA and NBO analysis)
   Christopher J. Cramer and Donald G. Truhlar   : smd solvation model
   Lars Goerigk                                  : TD-DFT with DH, B97 family of functionals
   V. Asgeirsson, H. Jonsson                     : NEB implementation
   FAccTs GmbH                                   : IRC, NEB, NEB-TS, Multilevel, MM, QM/MM, CI optimization
   S Lehtola, MJT Oliveira, MAL Marques          : LibXC Library


 Your calculation uses the libint2 library for the computation of 2-el integrals
 For citations please refer to: http://libint.valeyev.net

 Your ORCA version has been built with support for libXC version: 4.2.3
 For citations please refer to: https://tddft.org/programs/libxc/

 This ORCA versions uses:
   CBLAS   interface :  Fast vector & matrix operations
   LAPACKE interface :  Fast linear algebra routines
   SCALAPACK package :  Parallel linear algebra routines


----- Orbital basis set information -----
Your calculation utilizes the basis: def2-TZVP
   F. Weigend and R. Ahlrichs, Phys. Chem. Chem. Phys. 7, 3297 (2005).

----- AuxJ basis set information -----
Your calculation utilizes the auxiliary basis: def2/J
   F. Weigend, Phys. Chem. Chem. Phys. 8, 1057 (2006).

================================================================================
                                        WARNINGS
                       Please study these warnings very carefully!
================================================================================

INFO   : Checking CIS options ...

WARNING: CIS/ROCIS methods need fully converged wavefunctions
  ===> : Setting SCFConvForced true
         You can overwrite this default with %scf ConvForced false 


INFO   : the flag for use of LIBINT has been found!

================================================================================
                                       INPUT FILE
================================================================================
NAME = BT6IC-HD-4Cl.orcainp
|  1> # ORCA input file
|  2> # BT6IC-HD-4Cl.out
|  3> ! B3LYP def2-TZVP def2/J RIJCOSX Grid4 TightSCF
|  4> 
|  5> %maxcore 6000
|  6> %tddft
|  7>   maxdim 5
|  8>   nroots 50
|  9>   end
| 10> %pal
| 11>   nprocs 6
| 12>   end
| 13> 
| 14> 
| 15> * xyz 0 1
| 16>    C        2.80695         6.38277        -0.38898
| 17>    O        3.55022         7.30699        -0.62402
| 18>    C        1.32818         6.39814        -0.32327
| 19>    C        0.46016         7.44135        -0.57157
| 20>    C       -0.90494         7.20339        -0.46358
| 21>    C       -1.37599         5.93304        -0.11306
| 22>    C       -0.49804         4.88577         0.14610
| 23>    C        0.86165         5.12221         0.04226
| 24>    C        2.01105         4.25187         0.28297
| 25>    C        1.99068         3.10135         1.02723
| 26>    C        3.15237         2.43230         1.46227
| 27>    N        4.06396         1.87092         1.87648
| 28>    C        0.81185         2.49792         1.51070
| 29>    N       -0.11539         1.95167         1.90901
| 30>    C        3.18893         4.96652        -0.15334
| 31>    C        4.47308         4.57088        -0.38551
| 32>    C        5.01401         3.28082        -0.59220
| 33>    S        6.68324         3.05540        -0.07449
| 34>    C        6.67037         1.43219        -0.64125
| 35>    C        5.45120         1.12207        -1.25990
| 36>    C        4.50341         2.15367        -1.22671
| 37>    C        3.19275         2.07544        -1.94542
| 38>    C        2.33835         0.88820        -1.49960
| 39>    S        5.42148        -0.49096        -1.93777
| 40>    C        7.03077        -0.73975        -1.36172
| 41>    C        7.56355         0.35757        -0.68016
| 42>    N        8.83577         0.07853        -0.25390
| 43>    C        9.68910         1.19579         0.07332
| 44>    C       10.55692         1.66909        -1.11045
| 45>    C        9.14397        -1.21265        -0.65856
| 46>    C        8.02599        -1.72497        -1.38503
| 47>    C        8.04840        -2.97736        -2.03538
| 48>    N        7.11098        -3.54280        -2.77995
| 49>    S        7.67976        -4.95423        -3.33203
| 50>    N        9.14192        -4.89852        -2.63914
| 51>    C        9.23519        -3.77122        -1.95132
| 52>    C       10.28800        -3.32580        -1.12313
| 53>    C       10.25100        -2.07861        -0.42723
| 54>    N       11.34618        -2.03271         0.41739
| 55>    C       11.72082        -1.13759         1.48599
| 56>    C       12.79676        -0.08848         1.12074
| 57>    C       12.04763        -3.20083         0.26938
| 58>    C       11.43468        -4.00478        -0.69694
| 59>    S       12.21508        -5.52311        -0.94628
| 60>    C       13.37047        -5.11396         0.30536
| 61>    C       13.14036        -3.84378         0.85949
| 62>    S       14.26935        -3.49914         2.11310
| 63>    C       15.00984        -5.08922         1.92321
| 64>    C       14.43392        -5.81991         0.88289
| 65>    C       14.96685        -7.11692         0.37984
| 66>    C       15.00274        -7.21043        -1.14290
| 67>    C       16.10904        -5.35874         2.75664
| 68>    C       16.52916        -6.57997         3.22169
| 69>    C       17.78744        -6.84116         3.88682
| 70>    C       18.88189        -6.01550         3.91146
| 71>    C       18.95511        -4.75984         3.27255
| 72>    N       19.09407        -3.74282         2.75740
| 73>    C       20.09487        -6.32954         4.55869
| 74>    N       21.10316        -6.52494         5.07118
| 75>    C       17.72003        -8.18833         4.44694
| 76>    C       18.63617        -8.92304         5.18082
| 77>    C       18.29163       -10.21081         5.57756
| 78>    C       17.04814       -10.76186         5.25102
| 79>    C       16.12474       -10.02397         4.51997
| 80>    C       16.47294        -8.74980         4.12354
| 81>    C       15.66980        -7.77326         3.35338
| 82>    O       14.51455        -7.90425         3.00621
| 83>   Cl       16.65693       -12.35657         5.75385
| 84>   Cl       -2.01668         8.47709        -0.76373
| 85>    C       13.53557         0.35377         2.38861
| 86>    C       12.63445         1.04501         3.40591
| 87>    C       13.79510        -0.59930         0.08449
| 88>    C        9.71474         1.87458        -2.37442
| 89>    C       10.54634         2.29209        -3.58217
| 90>    C       11.25724         2.96299        -0.69857
| 91>   Cl       -3.06573         5.65143         0.00256
| 92>   Cl       19.42084       -11.13145         6.48744
| 93>    H        0.83383         8.41655        -0.84081
| 94>    H       -0.89262         3.91831         0.41137
| 95>    H        5.18640         5.38852        -0.45516
| 96>    H        3.40734         1.96167        -3.01299
| 97>    H        2.64197         3.00772        -1.81721
| 98>    H        2.81292        -0.04882        -1.77734
| 99>    H        1.36384         0.93612        -1.97900
|100>    H        2.19372         0.88417        -0.42245
|101>    H       10.31712         0.96492         0.93060
|102>    H        9.02489         2.01314         0.36706
|103>    H       11.30583         0.89882        -1.32629
|104>    H       12.12996        -1.77068         2.28041
|105>    H       10.82255        -0.65936         1.87919
|106>    H       12.31466         0.79068         0.69300
|107>    H       14.34672        -7.92304         0.78532
|108>    H       15.97515        -7.25784         0.77675
|109>    H       14.00158        -7.24742        -1.56198
|110>    H       15.52664        -8.11661        -1.43610
|111>    H       15.52724        -6.35677        -1.56669
|112>    H       16.64602        -4.48050         3.09741
|113>    H       19.60047        -8.52818         5.45579
|114>    H       15.16133       -10.43623         4.26494
|115>    H       14.32880         1.04453         2.09678
|116>    H       14.01008        -0.51535         2.84905
|117>    H       12.12496         1.89532         2.95613
|118>    H       13.22859         1.41134         4.23900
|119>    H       11.88630         0.36389         3.80312
|120>    H       14.39569        -1.40969         0.48560
|121>    H       14.46639         0.20784        -0.19849
|122>    H       13.29035        -0.94707        -0.81423
|123>    H        8.95178         2.63176        -2.17947
|124>    H        9.20580         0.94053        -2.62258
|125>    H       10.96303         3.28649        -3.45114
|126>    H        9.92392         2.30299        -4.47350
|127>    H       11.36232         1.59111        -3.74517
|128>    H       10.53513         3.77376        -0.63410
|129>    H       12.02132         3.23400        -1.42043
|130>    H       11.73662         2.86055         0.27267
|131> *
|132> 
|133>                          ****END OF INPUT****
================================================================================

                       ****************************
                       * Single Point Calculation *
                       ****************************

---------------------------------
CARTESIAN COORDINATES (ANGSTROEM)
---------------------------------
  C      2.806950    6.382770   -0.388980
  O      3.550220    7.306990   -0.624020
  C      1.328180    6.398140   -0.323270
  C      0.460160    7.441350   -0.571570
  C     -0.904940    7.203390   -0.463580
  C     -1.375990    5.933040   -0.113060
  C     -0.498040    4.885770    0.146100
  C      0.861650    5.122210    0.042260
  C      2.011050    4.251870    0.282970
  C      1.990680    3.101350    1.027230
  C      3.152370    2.432300    1.462270
  N      4.063960    1.870920    1.876480
  C      0.811850    2.497920    1.510700
  N     -0.115390    1.951670    1.909010
  C      3.188930    4.966520   -0.153340
  C      4.473080    4.570880   -0.385510
  C      5.014010    3.280820   -0.592200
  S      6.683240    3.055400   -0.074490
  C      6.670370    1.432190   -0.641250
  C      5.451200    1.122070   -1.259900
  C      4.503410    2.153670   -1.226710
  C      3.192750    2.075440   -1.945420
  C      2.338350    0.888200   -1.499600
  S      5.421480   -0.490960   -1.937770
  C      7.030770   -0.739750   -1.361720
  C      7.563550    0.357570   -0.680160
  N      8.835770    0.078530   -0.253900
  C      9.689100    1.195790    0.073320
  C     10.556920    1.669090   -1.110450
  C      9.143970   -1.212650   -0.658560
  C      8.025990   -1.724970   -1.385030
  C      8.048400   -2.977360   -2.035380
  N      7.110980   -3.542800   -2.779950
  S      7.679760   -4.954230   -3.332030
  N      9.141920   -4.898520   -2.639140
  C      9.235190   -3.771220   -1.951320
  C     10.288000   -3.325800   -1.123130
  C     10.251000   -2.078610   -0.427230
  N     11.346180   -2.032710    0.417390
  C     11.720820   -1.137590    1.485990
  C     12.796760   -0.088480    1.120740
  C     12.047630   -3.200830    0.269380
  C     11.434680   -4.004780   -0.696940
  S     12.215080   -5.523110   -0.946280
  C     13.370470   -5.113960    0.305360
  C     13.140360   -3.843780    0.859490
  S     14.269350   -3.499140    2.113100
  C     15.009840   -5.089220    1.923210
  C     14.433920   -5.819910    0.882890
  C     14.966850   -7.116920    0.379840
  C     15.002740   -7.210430   -1.142900
  C     16.109040   -5.358740    2.756640
  C     16.529160   -6.579970    3.221690
  C     17.787440   -6.841160    3.886820
  C     18.881890   -6.015500    3.911460
  C     18.955110   -4.759840    3.272550
  N     19.094070   -3.742820    2.757400
  C     20.094870   -6.329540    4.558690
  N     21.103160   -6.524940    5.071180
  C     17.720030   -8.188330    4.446940
  C     18.636170   -8.923040    5.180820
  C     18.291630  -10.210810    5.577560
  C     17.048140  -10.761860    5.251020
  C     16.124740  -10.023970    4.519970
  C     16.472940   -8.749800    4.123540
  C     15.669800   -7.773260    3.353380
  O     14.514550   -7.904250    3.006210
  Cl    16.656930  -12.356570    5.753850
  Cl    -2.016680    8.477090   -0.763730
  C     13.535570    0.353770    2.388610
  C     12.634450    1.045010    3.405910
  C     13.795100   -0.599300    0.084490
  C      9.714740    1.874580   -2.374420
  C     10.546340    2.292090   -3.582170
  C     11.257240    2.962990   -0.698570
  Cl    -3.065730    5.651430    0.002560
  Cl    19.420840  -11.131450    6.487440
  H      0.833830    8.416550   -0.840810
  H     -0.892620    3.918310    0.411370
  H      5.186400    5.388520   -0.455160
  H      3.407340    1.961670   -3.012990
  H      2.641970    3.007720   -1.817210
  H      2.812920   -0.048820   -1.777340
  H      1.363840    0.936120   -1.979000
  H      2.193720    0.884170   -0.422450
  H     10.317120    0.964920    0.930600
  H      9.024890    2.013140    0.367060
  H     11.305830    0.898820   -1.326290
  H     12.129960   -1.770680    2.280410
  H     10.822550   -0.659360    1.879190
  H     12.314660    0.790680    0.693000
  H     14.346720   -7.923040    0.785320
  H     15.975150   -7.257840    0.776750
  H     14.001580   -7.247420   -1.561980
  H     15.526640   -8.116610   -1.436100
  H     15.527240   -6.356770   -1.566690
  H     16.646020   -4.480500    3.097410
  H     19.600470   -8.528180    5.455790
  H     15.161330  -10.436230    4.264940
  H     14.328800    1.044530    2.096780
  H     14.010080   -0.515350    2.849050
  H     12.124960    1.895320    2.956130
  H     13.228590    1.411340    4.239000
  H     11.886300    0.363890    3.803120
  H     14.395690   -1.409690    0.485600
  H     14.466390    0.207840   -0.198490
  H     13.290350   -0.947070   -0.814230
  H      8.951780    2.631760   -2.179470
  H      9.205800    0.940530   -2.622580
  H     10.963030    3.286490   -3.451140
  H      9.923920    2.302990   -4.473500
  H     11.362320    1.591110   -3.745170
  H     10.535130    3.773760   -0.634100
  H     12.021320    3.234000   -1.420430
  H     11.736620    2.860550    0.272670

----------------------------
CARTESIAN COORDINATES (A.U.)
----------------------------
  NO LB      ZA    FRAG     MASS         X           Y           Z
   0 C     6.0000    0    12.011    5.304367   12.061687   -0.735066
   1 O     8.0000    0    15.999    6.708944   13.808210   -1.179227
   2 C     6.0000    0    12.011    2.509896   12.090732   -0.610892
   3 C     6.0000    0    12.011    0.869576   14.062114   -1.080111
   4 C     6.0000    0    12.011   -1.710089   13.612434   -0.876039
   5 C     6.0000    0    12.011   -2.600244   11.211821   -0.213652
   6 C     6.0000    0    12.011   -0.941159    9.232767    0.276089
   7 C     6.0000    0    12.011    1.628283    9.679574    0.079860
   8 C     6.0000    0    12.011    3.800334    8.034870    0.534736
   9 C     6.0000    0    12.011    3.761840    5.860702    1.941183
  10 C     6.0000    0    12.011    5.957116    4.596381    2.763290
  11 N     7.0000    0    14.007    7.679771    3.535526    3.546033
  12 C     6.0000    0    12.011    1.534174    4.720385    2.854809
  13 N     7.0000    0    14.007   -0.218055    3.688122    3.607506
  14 C     6.0000    0    12.011    6.026204    9.385363   -0.289771
  15 C     6.0000    0    12.011    8.452896    8.637711   -0.728508
  16 C     6.0000    0    12.011    9.475106    6.199851   -1.119096
  17 S    16.0000    0    32.060   12.629493    5.773869   -0.140766
  18 C     6.0000    0    12.011   12.605173    2.706447   -1.211787
  19 C     6.0000    0    12.011   10.301275    2.120405   -2.380866
  20 C     6.0000    0    12.011    8.510212    4.069846   -2.318146
  21 C     6.0000    0    12.011    6.033423    3.922013   -3.676311
  22 C     6.0000    0    12.011    4.418841    1.678455   -2.833833
  23 S    16.0000    0    32.060   10.245112   -0.927780   -3.661855
  24 C     6.0000    0    12.011   13.286230   -1.397925   -2.573278
  25 C     6.0000    0    12.011   14.293038    0.675709   -1.285316
  26 N     7.0000    0    14.007   16.697185    0.148400   -0.479801
  27 C     6.0000    0    12.011   18.309745    2.259716    0.138555
  28 C     6.0000    0    12.011   19.949688    3.154123   -2.098446
  29 C     6.0000    0    12.011   17.279599   -2.291576   -1.244498
  30 C     6.0000    0    12.011   15.166923   -3.259721   -2.617327
  31 C     6.0000    0    12.011   15.209272   -5.626395   -3.846311
  32 N     7.0000    0    14.007   13.437805   -6.694922   -5.253344
  33 S    16.0000    0    32.060   14.512643   -9.362138   -6.296624
  34 N     7.0000    0    14.007   17.275725   -9.256861   -4.987252
  35 C     6.0000    0    12.011   17.451980   -7.126573   -3.687460
  36 C     6.0000    0    12.011   19.441502   -6.284851   -2.122408
  37 C     6.0000    0    12.011   19.371583   -3.928004   -0.807348
  38 N     7.0000    0    14.007   21.441173   -3.841265    0.788753
  39 C     6.0000    0    12.011   22.149140   -2.149734    2.808114
  40 C     6.0000    0    12.011   24.182372   -0.167203    2.117892
  41 C     6.0000    0    12.011   22.766721   -6.048692    0.509054
  42 C     6.0000    0    12.011   21.608414   -7.567937   -1.317026
  43 S    16.0000    0    32.060   23.083156  -10.437165   -1.788210
  44 C     6.0000    0    12.011   25.266527   -9.663984    0.577047
  45 C     6.0000    0    12.011   24.831682   -7.263692    1.624201
  46 S    16.0000    0    32.060   26.965164   -6.612416    3.993180
  47 C     6.0000    0    12.011   28.364487   -9.617232    3.634340
  48 C     6.0000    0    12.011   27.276156  -10.998036    1.668420
  49 C     6.0000    0    12.011   28.283248  -13.449030    0.717794
  50 C     6.0000    0    12.011   28.351070  -13.625738   -2.159768
  51 C     6.0000    0    12.011   30.441674  -10.126551    5.209295
  52 C     6.0000    0    12.011   31.235586  -12.434341    6.088112
  53 C     6.0000    0    12.011   33.613390  -12.927919    7.345025
  54 C     6.0000    0    12.011   35.681601  -11.367648    7.391588
  55 C     6.0000    0    12.011   35.819967   -8.994794    6.184223
  56 N     7.0000    0    14.007   36.082563   -7.072905    5.210731
  57 C     6.0000    0    12.011   37.973801  -11.961097    8.614676
  58 N     7.0000    0    14.007   39.879193  -12.330350    9.583141
  59 C     6.0000    0    12.011   33.486004  -15.473701    8.403499
  60 C     6.0000    0    12.011   35.217257  -16.862102    9.790331
  61 C     6.0000    0    12.011   34.566171  -19.295635   10.540061
  62 C     6.0000    0    12.011   32.216316  -20.336968    9.922990
  63 C     6.0000    0    12.011   30.471343  -18.942558    8.541505
  64 C     6.0000    0    12.011   31.129345  -16.534726    7.792361
  65 C     6.0000    0    12.011   29.611631  -14.689333    6.336970
  66 O     8.0000    0    15.999   27.428524  -14.936868    5.680914
  67 Cl   17.0000    0    35.453   31.477036  -23.350533   10.873201
  68 Cl   17.0000    0    35.453   -3.810973   16.019379   -1.443241
  69 C     6.0000    0    12.011   25.578520    0.668528    4.513819
  70 C     6.0000    0    12.011   23.875650    1.974783    6.436237
  71 C     6.0000    0    12.011   26.068961   -1.132513    0.159663
  72 C     6.0000    0    12.011   18.358198    3.542443   -4.487004
  73 C     6.0000    0    12.011   19.929694    4.331422   -6.769320
  74 C     6.0000    0    12.011   21.273101    5.599240   -1.320106
  75 Cl   17.0000    0    35.453   -5.793390   10.679655    0.004838
  76 Cl   17.0000    0    35.453   36.700069  -21.035392   12.259485
  77 H     1.0000    0     1.008    1.575710   15.904974   -1.588901
  78 H     1.0000    0     1.008   -1.686807    7.404533    0.777377
  79 H     1.0000    0     1.008    9.800876   10.182827   -0.860128
  80 H     1.0000    0     1.008    6.438939    3.707019   -5.693726
  81 H     1.0000    0     1.008    4.992600    5.683767   -3.434029
  82 H     1.0000    0     1.008    5.315648   -0.092256   -3.358686
  83 H     1.0000    0     1.008    2.577284    1.769010   -3.739768
  84 H     1.0000    0     1.008    4.145530    1.670839   -0.798315
  85 H     1.0000    0     1.008   19.496531    1.823435    1.758579
  86 H     1.0000    0     1.008   17.054570    3.804283    0.693643
  87 H     1.0000    0     1.008   21.364922    1.698524   -2.506325
  88 H     1.0000    0     1.008   22.922302   -3.346100    4.309350
  89 H     1.0000    0     1.008   20.451656   -1.246010    3.551154
  90 H     1.0000    0     1.008   23.271335    1.494169    1.309580
  91 H     1.0000    0     1.008   27.111372  -14.972376    1.484040
  92 H     1.0000    0     1.008   30.188658  -13.715330    1.467845
  93 H     1.0000    0     1.008   26.459152  -13.695639   -2.951714
  94 H     1.0000    0     1.008   29.341097  -15.338170   -2.713836
  95 H     1.0000    0     1.008   29.342231  -12.012554   -2.960615
  96 H     1.0000    0     1.008   31.456419   -8.466918    5.853257
  97 H     1.0000    0     1.008   37.039520  -16.115925   10.309949
  98 H     1.0000    0     1.008   28.650762  -19.721617    8.059569
  99 H     1.0000    0     1.008   27.077508    1.973876    3.962340
 100 H     1.0000    0     1.008   26.475214   -0.973870    5.383924
 101 H     1.0000    0     1.008   22.912854    3.581636    5.586276
 102 H     1.0000    0     1.008   24.998412    2.667046    8.010549
 103 H     1.0000    0     1.008   22.461852    0.687652    7.186855
 104 H     1.0000    0     1.008   27.203912   -2.663928    0.917651
 105 H     1.0000    0     1.008   27.337515    0.392761   -0.375092
 106 H     1.0000    0     1.008   25.115122   -1.789703   -1.538672
 107 H     1.0000    0     1.008   16.916413    4.973306   -4.118601
 108 H     1.0000    0     1.008   17.396441    1.777344   -4.955958
 109 H     1.0000    0     1.008   20.717124    6.210566   -6.521709
 110 H     1.0000    0     1.008   18.753491    4.352020   -8.453690
 111 H     1.0000    0     1.008   21.471673    3.006762   -7.077346
 112 H     1.0000    0     1.008   19.908510    7.131373   -1.198275
 113 H     1.0000    0     1.008   22.717003    6.111374   -2.684224
 114 H     1.0000    0     1.008   22.178998    5.405656    0.515272

--------------------------------
INTERNAL COORDINATES (ANGSTROEM)
--------------------------------
 C      0   0   0     0.000000000000     0.00000000     0.00000000
 O      1   0   0     1.209080933147     0.00000000     0.00000000
 C      1   2   0     1.480309006221   127.93687470     0.00000000
 C      3   1   2     1.379637167700   128.93021640     3.26949857
 C      4   3   1     1.389886618289   118.32698898   178.98059291
 C      5   4   3     1.399479008560   120.36177629   359.90631843
 C      6   5   4     1.390947360974   121.17555903     0.56644090
 C      7   6   5     1.383995489624   118.52203538   359.60595460
 C      8   7   6     1.461695378559   131.18244949   178.11331776
 C      9   8   7     1.370413862634   125.28453039   340.50275976
 C     10   9   8     1.409401064353   123.63631652   193.20082186
 N     11  10   9     1.147917138386   176.45173289   144.36218364
 C     10   9   8     1.409791181239   123.91916569     9.27706938
 N     13  10   9     1.147525135324   176.80290243   158.32534067
 C      9   8   7     1.445161697873   107.26227790   172.44417769
 C     15   9   8     1.363625733477   132.49093798   193.47259490
 C     16  15   9     1.414065353723   130.52813221    17.62444505
 S     17  16  15     1.762148294951   115.85698460   209.42595241
 C     18  17  16     1.719358379920    90.96457470   181.89633124
 C     19  18  17     1.401883634900   111.15075888     2.98742183
 C     17  16  15     1.390605056297   131.73614292    34.84252562
 C     21  17  16     1.496827856702   125.65898643     3.50212652
 C     22  21  17     1.529148014418   112.94445690   230.67274319
 S     20  19  18     1.749930511820   112.93124978   176.63846351
 C     24  20  19     1.727293944498    89.29845066     0.89504459
 C     25  24  20     1.397315191501   113.87841658     0.16444098
 N     26  25  24     1.370439578238   110.22917415   179.80323068
 C     27  26  25     1.443438576767   117.49798152   160.41924092
 C     28  27  26     1.542217836526   113.34092739   267.31076383
 C     27  26  25     1.387761776387   107.75298814     0.03635158
 C     25  24  20     1.400594392713   139.27005322   181.97864262
 C     31  25  24     1.411360351824   130.02709877     3.96564991
 N     32  31  25     1.323957376542   128.82026434   358.99597767
 S     33  32  31     1.618776593511   108.38476391   177.63364368
 N     34  33  32     1.618984873864    98.12684185     0.12347210
 C     35  34  33     1.323858351675   108.37826519   359.97656929
 C     36  35  34     1.411632582721   128.75929500   175.91179208
 C     30  27  26     1.424400123350   133.70000974   185.70417411
 N     38  30  27     1.383802365513   133.95163095     9.99618327
 C     39  38  30     1.443433719989   132.67544403     6.84841151
 C     40  39  38     1.546507755622   115.23983737   257.85385285
 C     39  38  30     1.370563167826   108.11143375   176.03281735
 C     42  39  38     1.398505504959   109.89243957     1.45320405
 S     43  42  39     1.725259570181   114.04912196   181.20537553
 C     44  43  42     1.751836882875    89.40013953     1.71454387
 C     42  39  38     1.398453920406   138.26125428   186.44520526
 S     46  42  39     1.721898133398   136.67882150   358.12628211
 C     47  46  42     1.764295343359    90.94215385   176.81276861
 C     48  47  46     1.395656628580   112.26441417     2.74379294
 C     49  48  47     1.489734415089   124.04887454   171.83479205
 C     50  49  48     1.526030576299   113.49770125   224.39632781
 C     48  47  46     1.405520272106   115.92785796   178.47299417
 C     52  48  47     1.372652552469   127.65177790   151.66523041
 C     53  52  48     1.447026845432   125.62376671   168.84809539
 C     54  53  52     1.371182835256   126.41557311   344.75448967
 C     55  54  53     1.410761919000   124.69710638   359.62993226
 N     56  55  54     1.148485561294   176.02420305   199.08904461
 C     55  54  53     1.410265320746   124.10279467   181.08720388
 N     58  55  54     1.147813523269   176.73738401   185.60110331
 C     54  53  52     1.460529195668   107.61601967   168.86760404
 C     60  54  53     1.384807256661   131.45840752   180.52912737
 C     61  60  54     1.390849385124   118.58853961   180.50678535
 C     62  61  60     1.398767977257   121.22401248   359.85293011
 C     63  62  61     1.389814129515   120.28381665   359.84594673
 C     64  63  62     1.379097231453   118.29321014     0.43690987
 C     53  52  48     1.476408781402   124.83042989   336.55081375
 O     66  53  52     1.213378733743   128.01799967     5.14799335
 Cl    63  62  61     1.717260392922   120.00033429   179.85207232
 Cl     5   4   3     1.717081110519   119.69163967   179.95161531
 C     41  40  39     1.532618548596   109.61809475   204.81916878
 C     70  41  40     1.524706293684   113.44532135   297.18376723
 C     41  40  39     1.526903366458   112.84398891   327.84588699
 C     29  28  27     1.532681784781   111.40462463    49.72523871
 C     73  29  28     1.524641998175   112.97176876   182.18525876
 C     29  28  27     1.527831943245   108.11412588   172.12280754
 Cl     6   5   4     1.716943052084   119.80221419   180.54414011
 Cl    62  61  60     1.717723740332   118.97927537   179.96262557
 H      4   3   1     1.078487128574   120.70851636   358.87277171
 H      7   6   5     1.077979777593   119.37588662   180.14840259
 H     16  15   9     1.087295596653   114.23861063   195.27792667
 H     22  21  17     1.094850759647   107.57778179   111.28087132
 H     22  21  17     1.090386358545   109.94730007   354.37387338
 H     23  22  21     1.086444970028   110.55012436   294.05675712
 H     23  22  21     1.087101847345   109.75990057   174.43801001
 H     23  22  21     1.086823904917   111.48064856    54.14597265
 H     28  27  26     1.087492103741   110.84156117   142.79323739
 H     28  27  26     1.093397976128   106.28323427    26.49191917
 H     29  28  27     1.095796042428   108.66540188   290.98393604
 H     40  39  38     1.095126305090   105.99224350   138.89190403
 H     40  39  38     1.090962495139   108.96291913    23.55148750
 H     41  40  39     1.090093676342   109.39592632    86.85897521
 H     50  49  48     1.094899402548   108.26030878   102.30560410
 H     50  49  48     1.092732759873   108.64584720   346.38440694
 H     51  50  49     1.085963927624   111.43707189   291.69458819
 H     51  50  49     1.087014094849   109.36384550   172.15026634
 H     51  50  49     1.087857348047   110.60836862    52.75559586
 H     52  48  47     1.084332610826   114.72906008   334.75356567
 H     61  60  54     1.077681497707   122.19395145     0.77134398
 H     64  63  62     1.078497768472   120.99346637   180.22172397
 H     70  41  40     1.091571325842   108.16423211   176.48762939
 H     70  41  40     1.092032191879   109.18436366    59.80013571
 H     71  70  41     1.088535348347   110.79811173   304.30029244
 H     71  70  41     1.086848175506   109.94713880   184.97143345
 H     71  70  41     1.086935444725   111.50187404    65.33982486
 H     72  41  40     1.085508881723   111.14533377   293.94404201
 H     72  41  40     1.087282357118   109.38773540   174.79506736
 H     72  41  40     1.087848414900   111.36146158    55.51236319
 H     73  29  28     1.092444514152   109.23940050    60.15021856
 H     73  29  28     1.092269523378   109.19245377   302.32872886
 H     74  73  29     1.086108087163   111.37142141   292.62039956
 H     74  73  29     1.087195766778   109.87215192   172.97110255
 H     74  73  29     1.088009798118   110.56761260    53.55838258
 H     75  29  28     1.087633773795   110.05720919   289.42724450
 H     75  29  28     1.085516709268   110.78153555   169.18552571
 H     75  29  28     1.087936705696   111.27839767    49.17242409

---------------------------
INTERNAL COORDINATES (A.U.)
---------------------------
 C      0   0   0     0.000000000000     0.00000000     0.00000000
 O      1   0   0     2.284831837394     0.00000000     0.00000000
 C      1   2   0     2.797378615335   127.93687470     0.00000000
 C      3   1   2     2.607136411132   128.93021640     3.26949857
 C      4   3   1     2.626505065769   118.32698898   178.98059291
 C      5   4   3     2.644632056350   120.36177629   359.90631843
 C      6   5   4     2.628509578941   121.17555903     0.56644090
 C      7   6   5     2.615372445972   118.52203538   359.60595460
 C      8   7   6     2.762203956694   131.18244949   178.11331776
 C      9   8   7     2.589706890508   125.28453039   340.50275976
 C     10   9   8     2.663382024485   123.63631652   193.20082186
 N     11  10   9     2.169249015984   176.45173289   144.36218364
 C     10   9   8     2.664119238560   123.91916569     9.27706938
 N     13  10   9     2.168508237553   176.80290243   158.32534067
 C      9   8   7     2.730959828213   107.26227790   172.44417769
 C     15   9   8     2.576879185439   132.49093798   193.47259490
 C     16  15   9     2.672196254003   130.52813221    17.62444505
 S     17  16  15     3.329977684814   115.85698460   209.42595241
 C     18  17  16     3.249116464111    90.96457470   181.89633124
 C     19  18  17     2.649176141587   111.15075888     2.98742183
 C     17  16  15     2.627862716848   131.73614292    34.84252562
 C     21  17  16     2.828594718792   125.65898643     3.50212652
 C     22  21  17     2.889670965480   112.94445690   230.67274319
 S     20  19  18     3.306889420733   112.93124978   176.63846351
 C     24  20  19     3.264112507882    89.29845066     0.89504459
 C     25  24  20     2.640543034705   113.87841658     0.16444098
 N     26  25  24     2.589755485956   110.22917415   179.80323068
 C     27  26  25     2.727703601227   117.49798152   160.41924092
 C     28  27  26     2.914369349883   113.34092739   267.31076383
 C     27  26  25     2.622489696495   107.75298814     0.03635158
 C     25  24  20     2.646739826934   139.27005322   181.97864262
 C     31  25  24     2.667084541222   130.02709877     3.96564991
 N     32  31  25     2.501916854649   128.82026434   358.99597767
 S     33  32  31     3.059044433738   108.38476391   177.63364368
 N     34  33  32     3.059438026564    98.12684185     0.12347210
 C     35  34  33     2.501729724770   108.37826519   359.97656929
 C     36  35  34     2.667598983063   128.75929500   175.91179208
 C     30  27  26     2.691726138255   133.70000974   185.70417411
 N     38  30  27     2.615007494292   133.95163095     9.99618327
 C     39  38  30     2.727694423246   132.67544403     6.84841151
 C     40  39  38     2.922476122111   115.23983737   257.85385285
 C     39  38  30     2.589989036430   108.11143375   176.03281735
 C     42  39  38     2.642792401153   109.89243957     1.45320405
 S     43  42  39     3.260268097568   114.04912196   181.20537553
 C     44  43  42     3.310491939935    89.40013953     1.71454387
 C     42  39  38     2.642694920477   138.26125428   186.44520526
 S     46  42  39     3.253915902633   136.67882150   358.12628211
 C     47  46  42     3.334035018302    90.94215385   176.81276861
 C     48  47  46     2.637408805009   112.26441417     2.74379294
 C     49  48  47     2.815190056795   124.04887454   171.83479205
 C     50  49  48     2.883779861195   113.49770125   224.39632781
 C     48  47  46     2.656048389954   115.92785796   178.47299417
 C     52  48  47     2.593937401195   127.65177790   151.66523041
 C     53  52  48     2.734484446298   125.62376671   168.84809539
 C     54  53  52     2.591160038167   126.41557311   344.75448967
 C     55  54  53     2.665953667075   124.69710638   359.62993226
 N     56  55  54     2.170323179608   176.02420305   199.08904461
 C     55  54  53     2.665015232377   124.10279467   181.08720388
 N     58  55  54     2.169053211790   176.73738401   185.60110331
 C     54  53  52     2.760000190410   107.61601967   168.86760404
 C     60  54  53     2.616906463355   131.45840752   180.52912737
 C     61  60  54     2.628324431417   118.58853961   180.50678535
 C     62  61  60     2.643288401915   121.22401248   359.85293011
 C     63  62  61     2.626368081838   120.28381665   359.84594673
 C     64  63  62     2.606116079494   118.29321014     0.43690987
 C     53  52  48     2.790008258566   124.83042989   336.55081375
 O     66  53  52     2.292953503499   128.01799967     5.14799335
 Cl    63  62  61     3.245151843253   120.00033429   179.85207232
 Cl     5   4   3     3.244813048610   119.69163967   179.95161531
 C     41  40  39     2.896229324614   109.61809475   204.81916878
 C     70  41  40     2.881277329729   113.44532135   297.18376723
 C     41  40  39     2.885429195568   112.84398891   327.84588699
 C     29  28  27     2.896348823686   111.40462463    49.72523871
 C     73  29  28     2.881155828826   112.97176876   182.18525876
 C     29  28  27     2.887183951390   108.11412588   172.12280754
 Cl     6   5   4     3.244552155978   119.80221419   180.54414011
 Cl    62  61  60     3.246027442962   118.97927537   179.96262557
 H      4   3   1     2.038045311964   120.70851636   358.87277171
 H      7   6   5     2.037086557557   119.37588662   180.14840259
 H     16  15   9     2.054690904292   114.23861063   195.27792667
 H     22  21  17     2.068968093249   107.57778179   111.28087132
 H     22  21  17     2.060531597813   109.94730007   354.37387338
 H     23  22  21     2.053083452930   110.55012436   294.05675712
 H     23  22  21     2.054324771161   109.75990057   174.43801001
 H     23  22  21     2.053799536093   111.48064856    54.14597265
 H     28  27  26     2.055062248873   110.84156117   142.79323739
 H     28  27  26     2.066222730265   106.28323427    26.49191917
 H     29  28  27     2.070754418823   108.66540188   290.98393604
 H     40  39  38     2.069488798673   105.99224350   138.89190403
 H     40  39  38     2.061620338192   108.96291913    23.55148750
 H     41  40  39     2.059978508605   109.39592632    86.85897521
 H     50  49  48     2.069060015010   108.26030878   102.30560410
 H     50  49  48     2.064965653724   108.64584720   346.38440694
 H     51  50  49     2.052174414526   111.43707189   291.69458819
 H     51  50  49     2.054158942977   109.36384550   172.15026634
 H     51  50  49     2.055752460583   110.60836862    52.75559586
 H     52  48  47     2.049091672540   114.72906008   334.75356567
 H     61  60  54     2.036522890260   122.19395145     0.77134398
 H     64  63  62     2.038065418458   120.99346637   180.22172397
 H     70  41  40     2.062770861482   108.16423211   176.48762939
 H     70  41  40     2.063641772077   109.18436366    59.80013571
 H     71  70  41     2.057033695468   110.79811173   304.30029244
 H     71  70  41     2.053845400858   109.94713880   184.97143345
 H     71  70  41     2.054010315783   111.50187404    65.33982486
 H     72  41  40     2.051314502396   111.14533377   293.94404201
 H     72  41  40     2.054665885197   109.38773540   174.79506736
 H     72  41  40     2.055735579381   111.36146158    55.51236319
 H     73  29  28     2.064420948251   109.23940050    60.15021856
 H     73  29  28     2.064090263613   109.19245377   302.32872886
 H     74  73  29     2.052446836574   111.37142141   292.62039956
 H     74  73  29     2.054502253169   109.87215192   172.97110255
 H     74  73  29     2.056040549465   110.56761260    53.55838258
 H     75  29  28     2.055329966476   110.05720919   289.42724450
 H     75  29  28     2.051329294312   110.78153555   169.18552571
 H     75  29  28     2.055902424805   111.27839767    49.17242409

---------------------
BASIS SET INFORMATION
---------------------
There are 6 groups of distinct atoms

 Group   1 Type C   : 11s6p2d1f contracted to 5s3p2d1f pattern {62111/411/11/1}
 Group   2 Type O   : 11s6p2d1f contracted to 5s3p2d1f pattern {62111/411/11/1}
 Group   3 Type N   : 11s6p2d1f contracted to 5s3p2d1f pattern {62111/411/11/1}
 Group   4 Type S   : 14s9p3d1f contracted to 5s5p2d1f pattern {73211/51111/21/1}
 Group   5 Type Cl  : 14s9p3d1f contracted to 5s5p2d1f pattern {73211/51111/21/1}
 Group   6 Type H   : 5s1p contracted to 3s1p pattern {311/1}

Atom   0C    basis set group =>   1
Atom   1O    basis set group =>   2
Atom   2C    basis set group =>   1
Atom   3C    basis set group =>   1
Atom   4C    basis set group =>   1
Atom   5C    basis set group =>   1
Atom   6C    basis set group =>   1
Atom   7C    basis set group =>   1
Atom   8C    basis set group =>   1
Atom   9C    basis set group =>   1
Atom  10C    basis set group =>   1
Atom  11N    basis set group =>   3
Atom  12C    basis set group =>   1
Atom  13N    basis set group =>   3
Atom  14C    basis set group =>   1
Atom  15C    basis set group =>   1
Atom  16C    basis set group =>   1
Atom  17S    basis set group =>   4
Atom  18C    basis set group =>   1
Atom  19C    basis set group =>   1
Atom  20C    basis set group =>   1
Atom  21C    basis set group =>   1
Atom  22C    basis set group =>   1
Atom  23S    basis set group =>   4
Atom  24C    basis set group =>   1
Atom  25C    basis set group =>   1
Atom  26N    basis set group =>   3
Atom  27C    basis set group =>   1
Atom  28C    basis set group =>   1
Atom  29C    basis set group =>   1
Atom  30C    basis set group =>   1
Atom  31C    basis set group =>   1
Atom  32N    basis set group =>   3
Atom  33S    basis set group =>   4
Atom  34N    basis set group =>   3
Atom  35C    basis set group =>   1
Atom  36C    basis set group =>   1
Atom  37C    basis set group =>   1
Atom  38N    basis set group =>   3
Atom  39C    basis set group =>   1
Atom  40C    basis set group =>   1
Atom  41C    basis set group =>   1
Atom  42C    basis set group =>   1
Atom  43S    basis set group =>   4
Atom  44C    basis set group =>   1
Atom  45C    basis set group =>   1
Atom  46S    basis set group =>   4
Atom  47C    basis set group =>   1
Atom  48C    basis set group =>   1
Atom  49C    basis set group =>   1
Atom  50C    basis set group =>   1
Atom  51C    basis set group =>   1
Atom  52C    basis set group =>   1
Atom  53C    basis set group =>   1
Atom  54C    basis set group =>   1
Atom  55C    basis set group =>   1
Atom  56N    basis set group =>   3
Atom  57C    basis set group =>   1
Atom  58N    basis set group =>   3
Atom  59C    basis set group =>   1
Atom  60C    basis set group =>   1
Atom  61C    basis set group =>   1
Atom  62C    basis set group =>   1
Atom  63C    basis set group =>   1
Atom  64C    basis set group =>   1
Atom  65C    basis set group =>   1
Atom  66O    basis set group =>   2
Atom  67Cl   basis set group =>   5
Atom  68Cl   basis set group =>   5
Atom  69C    basis set group =>   1
Atom  70C    basis set group =>   1
Atom  71C    basis set group =>   1
Atom  72C    basis set group =>   1
Atom  73C    basis set group =>   1
Atom  74C    basis set group =>   1
Atom  75Cl   basis set group =>   5
Atom  76Cl   basis set group =>   5
Atom  77H    basis set group =>   6
Atom  78H    basis set group =>   6
Atom  79H    basis set group =>   6
Atom  80H    basis set group =>   6
Atom  81H    basis set group =>   6
Atom  82H    basis set group =>   6
Atom  83H    basis set group =>   6
Atom  84H    basis set group =>   6
Atom  85H    basis set group =>   6
Atom  86H    basis set group =>   6
Atom  87H    basis set group =>   6
Atom  88H    basis set group =>   6
Atom  89H    basis set group =>   6
Atom  90H    basis set group =>   6
Atom  91H    basis set group =>   6
Atom  92H    basis set group =>   6
Atom  93H    basis set group =>   6
Atom  94H    basis set group =>   6
Atom  95H    basis set group =>   6
Atom  96H    basis set group =>   6
Atom  97H    basis set group =>   6
Atom  98H    basis set group =>   6
Atom  99H    basis set group =>   6
Atom 100H    basis set group =>   6
Atom 101H    basis set group =>   6
Atom 102H    basis set group =>   6
Atom 103H    basis set group =>   6
Atom 104H    basis set group =>   6
Atom 105H    basis set group =>   6
Atom 106H    basis set group =>   6
Atom 107H    basis set group =>   6
Atom 108H    basis set group =>   6
Atom 109H    basis set group =>   6
Atom 110H    basis set group =>   6
Atom 111H    basis set group =>   6
Atom 112H    basis set group =>   6
Atom 113H    basis set group =>   6
Atom 114H    basis set group =>   6
---------------------------------
AUXILIARY/J BASIS SET INFORMATION
---------------------------------
There are 6 groups of distinct atoms

 Group   1 Type C   : 12s5p4d2f1g contracted to 6s4p3d1f1g pattern {711111/2111/211/2/1}
 Group   2 Type O   : 12s5p4d2f1g contracted to 6s4p3d1f1g pattern {711111/2111/211/2/1}
 Group   3 Type N   : 12s5p4d2f1g contracted to 6s4p3d1f1g pattern {711111/2111/211/2/1}
 Group   4 Type S   : 14s5p5d2f1g contracted to 8s4p3d1f1g pattern {71111111/2111/311/2/1}
 Group   5 Type Cl  : 14s5p5d2f1g contracted to 8s4p3d1f1g pattern {71111111/2111/311/2/1}
 Group   6 Type H   : 5s2p1d contracted to 3s1p1d pattern {311/2/1}

Atom   0C    basis set group =>   1
Atom   1O    basis set group =>   2
Atom   2C    basis set group =>   1
Atom   3C    basis set group =>   1
Atom   4C    basis set group =>   1
Atom   5C    basis set group =>   1
Atom   6C    basis set group =>   1
Atom   7C    basis set group =>   1
Atom   8C    basis set group =>   1
Atom   9C    basis set group =>   1
Atom  10C    basis set group =>   1
Atom  11N    basis set group =>   3
Atom  12C    basis set group =>   1
Atom  13N    basis set group =>   3
Atom  14C    basis set group =>   1
Atom  15C    basis set group =>   1
Atom  16C    basis set group =>   1
Atom  17S    basis set group =>   4
Atom  18C    basis set group =>   1
Atom  19C    basis set group =>   1
Atom  20C    basis set group =>   1
Atom  21C    basis set group =>   1
Atom  22C    basis set group =>   1
Atom  23S    basis set group =>   4
Atom  24C    basis set group =>   1
Atom  25C    basis set group =>   1
Atom  26N    basis set group =>   3
Atom  27C    basis set group =>   1
Atom  28C    basis set group =>   1
Atom  29C    basis set group =>   1
Atom  30C    basis set group =>   1
Atom  31C    basis set group =>   1
Atom  32N    basis set group =>   3
Atom  33S    basis set group =>   4
Atom  34N    basis set group =>   3
Atom  35C    basis set group =>   1
Atom  36C    basis set group =>   1
Atom  37C    basis set group =>   1
Atom  38N    basis set group =>   3
Atom  39C    basis set group =>   1
Atom  40C    basis set group =>   1
Atom  41C    basis set group =>   1
Atom  42C    basis set group =>   1
Atom  43S    basis set group =>   4
Atom  44C    basis set group =>   1
Atom  45C    basis set group =>   1
Atom  46S    basis set group =>   4
Atom  47C    basis set group =>   1
Atom  48C    basis set group =>   1
Atom  49C    basis set group =>   1
Atom  50C    basis set group =>   1
Atom  51C    basis set group =>   1
Atom  52C    basis set group =>   1
Atom  53C    basis set group =>   1
Atom  54C    basis set group =>   1
Atom  55C    basis set group =>   1
Atom  56N    basis set group =>   3
Atom  57C    basis set group =>   1
Atom  58N    basis set group =>   3
Atom  59C    basis set group =>   1
Atom  60C    basis set group =>   1
Atom  61C    basis set group =>   1
Atom  62C    basis set group =>   1
Atom  63C    basis set group =>   1
Atom  64C    basis set group =>   1
Atom  65C    basis set group =>   1
Atom  66O    basis set group =>   2
Atom  67Cl   basis set group =>   5
Atom  68Cl   basis set group =>   5
Atom  69C    basis set group =>   1
Atom  70C    basis set group =>   1
Atom  71C    basis set group =>   1
Atom  72C    basis set group =>   1
Atom  73C    basis set group =>   1
Atom  74C    basis set group =>   1
Atom  75Cl   basis set group =>   5
Atom  76Cl   basis set group =>   5
Atom  77H    basis set group =>   6
Atom  78H    basis set group =>   6
Atom  79H    basis set group =>   6
Atom  80H    basis set group =>   6
Atom  81H    basis set group =>   6
Atom  82H    basis set group =>   6
Atom  83H    basis set group =>   6
Atom  84H    basis set group =>   6
Atom  85H    basis set group =>   6
Atom  86H    basis set group =>   6
Atom  87H    basis set group =>   6
Atom  88H    basis set group =>   6
Atom  89H    basis set group =>   6
Atom  90H    basis set group =>   6
Atom  91H    basis set group =>   6
Atom  92H    basis set group =>   6
Atom  93H    basis set group =>   6
Atom  94H    basis set group =>   6
Atom  95H    basis set group =>   6
Atom  96H    basis set group =>   6
Atom  97H    basis set group =>   6
Atom  98H    basis set group =>   6
Atom  99H    basis set group =>   6
Atom 100H    basis set group =>   6
Atom 101H    basis set group =>   6
Atom 102H    basis set group =>   6
Atom 103H    basis set group =>   6
Atom 104H    basis set group =>   6
Atom 105H    basis set group =>   6
Atom 106H    basis set group =>   6
Atom 107H    basis set group =>   6
Atom 108H    basis set group =>   6
Atom 109H    basis set group =>   6
Atom 110H    basis set group =>   6
Atom 111H    basis set group =>   6
Atom 112H    basis set group =>   6
Atom 113H    basis set group =>   6
Atom 114H    basis set group =>   6


           ************************************************************
           *        Program running with 6 parallel MPI-processes     *
           *              working on a common directory               *
           ************************************************************
------------------------------------------------------------------------------
                           ORCA GTO INTEGRAL CALCULATION
                           -- RI-GTO INTEGRALS CHOSEN --
------------------------------------------------------------------------------

                         BASIS SET STATISTICS AND STARTUP INFO

Gaussian basis set:
 # of primitive gaussian shells          ... 1831
 # of primitive gaussian functions       ... 3999
 # of contracted shells                  ... 1017
 # of contracted basis functions         ... 2669
 Highest angular momentum                ...    3
 Maximum contraction depth               ...    7
Auxiliary gaussian basis set:
 # of primitive gaussian shells          ... 2179
 # of primitive gaussian functions       ... 6061
 # of contracted shells                  ... 1363
 # of contracted aux-basis functions     ... 4209
 Highest angular momentum                ...    4
 Maximum contraction depth               ...    7
Ratio of auxiliary to basis functions    ...  1.58
Integral package used                  ... LIBINT
 One Electron integrals                  ... done
 Ordering auxiliary basis shells         ... done
 Integral threshhold             Thresh  ...  2.500e-11
 Primitive cut-off               TCut    ...  2.500e-12
 Pre-screening matrix                    ... done
 Shell pair data                         ... 
 Ordering of the shell pairs             ... done (   0.042 sec) 172726 of 517653 pairs
 Determination of significant pairs      ... done (   0.001 sec)
 Creation of shell pair data             ... done (   0.027 sec)
 Storage of shell pair data              ... done (   4.957 sec)
 Shell pair data done in (   5.027 sec)
 Computing two index integrals           ... done
 Cholesky decomposition of the V-matrix  ... done


Timings:
 Total evaluation time                   ...  20.821 sec (  0.347 min)
 One electron matrix time                ...   6.301 sec (  0.105 min) = 30.3%
 Schwartz matrix evaluation time         ...   3.914 sec (  0.065 min) = 18.8%
 Two index repulsion integral time       ...   0.795 sec (  0.013 min) =  3.8%
 Cholesky decomposition of V             ...   4.767 sec (  0.079 min) = 22.9%
 Three index repulsion integral time     ...   0.000 sec (  0.000 min) =  0.0%



           ************************************************************
           *        Program running with 6 parallel MPI-processes     *
           *              working on a common directory               *
           ************************************************************
-------------------------------------------------------------------------------
                                 ORCA SCF
-------------------------------------------------------------------------------

------------
SCF SETTINGS
------------
Hamiltonian:
 Density Functional     Method          .... DFT(GTOs)
 Exchange Functional    Exchange        .... B88
   X-Alpha parameter    XAlpha          ....  0.666667
   Becke's b parameter  XBeta           ....  0.004200
 Correlation Functional Correlation     .... LYP
 LDA part of GGA corr.  LDAOpt          .... VWN-5
 Gradients option       PostSCFGGA      .... off
 Hybrid DFT is turned on
   Fraction HF Exchange ScalHFX         ....  0.200000
   Scaling of DF-GGA-X  ScalDFX         ....  0.720000
   Scaling of DF-GGA-C  ScalDFC         ....  0.810000
   Scaling of DF-LDA-C  ScalLDAC        ....  1.000000
   Perturbative correction              ....  0.000000
   Density functional embedding theory  .... OFF
   NL short-range parameter             ....  4.800000
 RI-approximation to the Coulomb term is turned on
   Number of auxiliary basis functions  .... 4209
   RIJ-COSX (HFX calculated with COS-X)).... on


General Settings:
 Integral files         IntName         .... BT6IC-HD-4Cl.orcainp
 Hartree-Fock type      HFTyp           .... RHF
 Total Charge           Charge          ....    0
 Multiplicity           Mult            ....    1
 Number of Electrons    NEL             ....  606
 Basis Dimension        Dim             .... 2669
 Nuclear Repulsion      ENuc            ....  13781.4349656367 Eh

Convergence Acceleration:
 DIIS                   CNVDIIS         .... on
   Start iteration      DIISMaxIt       ....    12
   Startup error        DIISStart       ....  0.200000
   # of expansion vecs  DIISMaxEq       ....     5
   Bias factor          DIISBfac        ....   1.050
   Max. coefficient     DIISMaxC        ....  10.000
 Newton-Raphson         CNVNR           .... off
 SOSCF                  CNVSOSCF        .... on
   Start iteration      SOSCFMaxIt      ....   150
   Startup grad/error   SOSCFStart      ....  0.003300
 Level Shifting         CNVShift        .... on
   Level shift para.    LevelShift      ....    0.2500
   Turn off err/grad.   ShiftErr        ....    0.0010
 Zerner damping         CNVZerner       .... off
 Static damping         CNVDamp         .... on
   Fraction old density DampFac         ....    0.7000
   Max. Damping (<1)    DampMax         ....    0.9800
   Min. Damping (>=0)   DampMin         ....    0.0000
   Turn off err/grad.   DampErr         ....    0.1000
 Fernandez-Rico         CNVRico         .... off

SCF Procedure:
 Maximum # iterations   MaxIter         ....   125
 SCF integral mode      SCFMode         .... Direct
   Integral package                     .... LIBINT
 Reset frequency        DirectResetFreq ....    20
 Integral Threshold     Thresh          ....  2.500e-11 Eh
 Primitive CutOff       TCut            ....  2.500e-12 Eh

Convergence Tolerance:
 Convergence Check Mode ConvCheckMode   .... Total+1el-Energy
 Convergence forced     ConvForced      .... 1
 Energy Change          TolE            ....  1.000e-08 Eh
 1-El. energy change                    ....  1.000e-05 Eh
 Orbital Gradient       TolG            ....  1.000e-05
 Orbital Rotation angle TolX            ....  1.000e-05
 DIIS Error             TolErr          ....  5.000e-07


Diagonalization of the overlap matrix:
Smallest eigenvalue                        ... 2.188e-06
Time for diagonalization                   ...   14.321 sec
Threshold for overlap eigenvalues          ... 1.000e-08
Number of eigenvalues below threshold      ... 0
Time for construction of square roots      ...    5.909 sec
Total time needed                          ...   20.246 sec

-------------------
DFT GRID GENERATION
-------------------

General Integration Accuracy     IntAcc      ...  4.670
Radial Grid Type                 RadialGrid  ... Gauss-Chebyshev
Angular Grid (max. acc.)         AngularGrid ... Lebedev-302
Angular grid pruning method      GridPruning ... 3 (G Style)
Weight generation scheme         WeightScheme... Becke
Basis function cutoff            BFCut       ...    1.0000e-11
Integration weight cutoff        WCut        ...    1.0000e-14
Grids for H and He will be reduced by one unit

# of grid points (after initial pruning)     ... 612570 (   0.0 sec)
# of grid points (after weights+screening)   ... 516092 (  15.2 sec)
nearest neighbour list constructed           ...    0.0 sec
Grid point re-assignment to atoms done       ...    0.1 sec
Grid point division into batches done        ...    1.7 sec
Reduced shell lists constructed in    3.8 sec

Total number of grid points                  ...   516092
Total number of batches                      ...     8119
Average number of points per batch           ...       63
Average number of grid points per atom       ...     4488
Average number of shells per batch           ...   172.67 (16.98%)
Average number of basis functions per batch  ...   446.57 (16.73%)
Average number of large shells per batch     ...   107.38 (62.19%)
Average number of large basis fcns per batch ...   281.46 (63.03%)
Maximum spatial batch extension              ...  14.70, 20.01, 21.34 au
Average spatial batch extension              ...   0.29,  0.31,  0.34 au

Time for grid setup =   27.300 sec

------------------------------
INITIAL GUESS: MODEL POTENTIAL
------------------------------
Loading Hartree-Fock densities                     ... done
Calculating cut-offs                               ... done
Setting up the integral package                    ... done
Initializing the effective Hamiltonian             ... done
Starting the Coulomb interaction                   ... done (   5.8 sec)
Reading the grid                                   ... done
Mapping shells                                     ... done
Starting the XC term evaluation                    ... done (  19.1 sec)
  promolecular density results
     # of electrons  =    605.981384618
     EX              =   -614.205155661
     EC              =    -21.926651307
     EX+EC           =   -636.131806968
Transforming the Hamiltonian                       ... done (   5.1 sec)
Diagonalizing the Hamiltonian                      ... done (  19.0 sec)
Back transforming the eigenvectors                 ... done (   4.1 sec)
Now organizing SCF variables                       ... done
                      ------------------
                      INITIAL GUESS DONE (  81.3 sec)
                      ------------------
--------------------
COSX GRID GENERATION
--------------------

General Integration Accuracy     IntAcc      ...  3.340
Radial Grid Type                 RadialGrid  ... Gauss-Chebyshev
Angular Grid (max. acc.)         AngularGrid ... Lebedev-50
Angular grid pruning method      GridPruning ... 3 (G Style)
Weight generation scheme         WeightScheme... Becke
Basis function cutoff            BFCut       ...    1.0000e-11
Integration weight cutoff        WCut        ...    1.0000e-14
Grids for H and He will be reduced by one unit

# of grid points (after initial pruning)     ...  57842 (   0.0 sec)
# of grid points (after weights+screening)   ...  51069 (   1.4 sec)
nearest neighbour list constructed           ...    0.0 sec
Grid point re-assignment to atoms done       ...    0.0 sec
Grid point division into batches done        ...    0.0 sec
Reduced shell lists constructed in    0.3 sec

Total number of grid points                  ...    51069
Total number of batches                      ...      856
Average number of points per batch           ...       59
Average number of grid points per atom       ...      444
Average number of shells per batch           ...   203.38 (20.00%)
Average number of basis functions per batch  ...   531.73 (19.92%)
Average number of large shells per batch     ...   127.85 (62.86%)
Average number of large basis fcns per batch ...   340.15 (63.97%)
Maximum spatial batch extension              ...  14.93, 15.58, 26.96 au
Average spatial batch extension              ...   0.54,  0.64,  0.86 au

Overlap Fitting                  UseSFitting ... on
Constructing numerical overlap ... done (      1.0 sec)
Inverting numerical overlap    ... done (      5.7 sec)
Obtaining analytic overlap     ... done (      0.1 sec)
Final contraction and storage  ... done (      1.3 sec)


General Integration Accuracy     IntAcc      ...  3.670
Radial Grid Type                 RadialGrid  ... Gauss-Chebyshev
Angular Grid (max. acc.)         AngularGrid ... Lebedev-50
Angular grid pruning method      GridPruning ... 3 (G Style)
Weight generation scheme         WeightScheme... Becke
Basis function cutoff            BFCut       ...    1.0000e-11
Integration weight cutoff        WCut        ...    1.0000e-14
Grids for H and He will be reduced by one unit

# of grid points (after initial pruning)     ...  72358 (   0.0 sec)
# of grid points (after weights+screening)   ...  63593 (   1.7 sec)
nearest neighbour list constructed           ...    0.0 sec
Grid point re-assignment to atoms done       ...    0.0 sec
Grid point division into batches done        ...    0.0 sec
Reduced shell lists constructed in    0.3 sec

Total number of grid points                  ...    63593
Total number of batches                      ...     1047
Average number of points per batch           ...       60
Average number of grid points per atom       ...      553
Average number of shells per batch           ...   200.65 (19.73%)
Average number of basis functions per batch  ...   524.24 (19.64%)
Average number of large shells per batch     ...   124.99 (62.29%)
Average number of large basis fcns per batch ...   331.90 (63.31%)
Maximum spatial batch extension              ...  14.61, 15.50, 25.40 au
Average spatial batch extension              ...   0.50,  0.58,  0.78 au

Overlap Fitting                  UseSFitting ... on
Constructing numerical overlap ... done (      1.3 sec)
Inverting numerical overlap    ... done (      4.1 sec)
Obtaining analytic overlap     ... done (      0.1 sec)
Final contraction and storage  ... done (      1.3 sec)


General Integration Accuracy     IntAcc      ...  4.010
Radial Grid Type                 RadialGrid  ... Gauss-Chebyshev
Angular Grid (max. acc.)         AngularGrid ... Lebedev-110
Angular grid pruning method      GridPruning ... 3 (G Style)
Weight generation scheme         WeightScheme... Becke
Basis function cutoff            BFCut       ...    1.0000e-11
Integration weight cutoff        WCut        ...    1.0000e-14
Grids for H and He will be reduced by one unit

# of grid points (after initial pruning)     ... 139900 (   0.0 sec)
# of grid points (after weights+screening)   ... 121884 (   3.4 sec)
nearest neighbour list constructed           ...    0.0 sec
Grid point re-assignment to atoms done       ...    0.0 sec
Grid point division into batches done        ...    0.1 sec
Reduced shell lists constructed in    0.7 sec

Total number of grid points                  ...   121884
Total number of batches                      ...     1964
Average number of points per batch           ...       62
Average number of grid points per atom       ...     1060
Average number of shells per batch           ...   188.67 (18.55%)
Average number of basis functions per batch  ...   492.54 (18.45%)
Average number of large shells per batch     ...   119.00 (63.07%)
Average number of large basis fcns per batch ...   315.56 (64.07%)
Maximum spatial batch extension              ...  16.25, 16.23, 24.23 au
Average spatial batch extension              ...   0.44,  0.47,  0.60 au

Overlap Fitting                  UseSFitting ... on
Constructing numerical overlap ... done (      2.1 sec)
Inverting numerical overlap    ... done (      3.4 sec)
Obtaining analytic overlap     ... done (      0.1 sec)
Final contraction and storage  ... done (      1.3 sec)

Time for X-Grid setup             =   34.266 sec
--------------
SCF ITERATIONS
--------------
ITER       Energy         Delta-E        Max-DP      RMS-DP      [F,P]     Damp
               ***  Starting incremental Fock matrix formation  ***
  0  -6650.1435427109   0.000000000000 0.23601399  0.00095537  0.2941419 0.7000
  1  -6651.1083031001  -0.964760389203 0.17705717  0.00080262  0.1076469 0.7000
                               ***Turning on DIIS***
  2  -6651.4467724788  -0.338469378670 0.26773252  0.00111087  0.0433242 0.0000
  3  -6652.0114414160  -0.564668937250 0.16834449  0.00077519  0.0585940 0.0000
  4  -6652.1353251963  -0.123883780214 0.05359197  0.00026030  0.0351006 0.0000
  5  -6652.1488883581  -0.013563161880 0.03195998  0.00011920  0.0117866 0.0000
                      *** Initiating the SOSCF procedure ***
                           *** Shutting down DIIS ***
                      *** Re-Reading the Fockian *** 
                      *** Removing any level shift *** 
ITER      Energy       Delta-E        Grad      Rot      Max-DP    RMS-DP
  6  -6652.15008305  -0.0011946886  0.001148  0.001148  0.010634  0.000038
               *** Restarting incremental Fock matrix formation ***
  7  -6652.15024329  -0.0001602453  0.000591  0.007433  0.023922  0.000090
  8  -6652.15026633  -0.0000230418  0.000351  0.005868  0.016654  0.000048
  9  -6652.15028098  -0.0000146422  0.000467  0.004580  0.015892  0.000046
 10  -6652.15029145  -0.0000104753  0.000131  0.000595  0.004399  0.000014
 11  -6652.15029344  -0.0000019899  0.000101  0.001088  0.004478  0.000014
 12  -6652.15029450  -0.0000010613  0.000084  0.000393  0.002320  0.000007
 13  -6652.15029512  -0.0000006194  0.000045  0.000473  0.002692  0.000008
 14  -6652.15029578  -0.0000006627  0.000027  0.000121  0.000991  0.000003
 15  -6652.15029590  -0.0000001140  0.000026  0.000228  0.000859  0.000003
 16  -6652.15029587   0.0000000258  0.000012  0.000048  0.000681  0.000002
 17  -6652.15029588  -0.0000000028  0.000014  0.000062  0.000237  0.000001
 18  -6652.15029604  -0.0000001631  0.000004  0.000016  0.000580  0.000002
 19  -6652.15029590   0.0000001399  0.000005  0.000027  0.000473  0.000001
                  ***Gradient check signals convergence***
              ***Rediagonalizing the Fockian in SOSCF/NRSCF***

               *****************************************************
               *                     SUCCESS                       *
               *           SCF CONVERGED AFTER  20 CYCLES          *
               *****************************************************

Setting up the final grid:

General Integration Accuracy     IntAcc      ...  5.010
Radial Grid Type                 RadialGrid  ... Gauss-Chebyshev
Angular Grid (max. acc.)         AngularGrid ... Lebedev-434
Angular grid pruning method      GridPruning ... 3 (G Style)
Weight generation scheme         WeightScheme... Becke
Basis function cutoff            BFCut       ...    1.0000e-11
Integration weight cutoff        WCut        ...    1.0000e-14
Grids for H and He will be reduced by one unit

# of grid points (after initial pruning)     ... 1087420 (   0.1 sec)
# of grid points (after weights+screening)   ... 912716 (  22.7 sec)
nearest neighbour list constructed           ...    0.0 sec
Grid point re-assignment to atoms done       ...    0.1 sec
Grid point division into batches done        ...    5.6 sec
Reduced shell lists constructed in    9.2 sec

Total number of grid points                  ...   912716
Total number of batches                      ...    14320
Average number of points per batch           ...       63
Average number of grid points per atom       ...     7937
Average number of shells per batch           ...   169.95 (16.71%)
Average number of basis functions per batch  ...   437.45 (16.39%)
Average number of large shells per batch     ...   105.44 (62.04%)
Average number of large basis fcns per batch ...   275.41 (62.96%)
Maximum spatial batch extension              ...  16.52, 19.35, 23.08 au
Average spatial batch extension              ...   0.24,  0.26,  0.27 au

Final grid set up in   46.1 sec
Final integration                            ... done (  13.0 sec)
Change in XC energy                          ...    -0.000163092
Integrated number of electrons               ...   606.000234804
Previous integrated no of electrons          ...   606.000073139
Old exchange energy                            =   -123.914519532 Eh
New exchange energy                            =   -123.917436586 Eh
Exchange energy change after final integration =     -0.002917054 Eh
Total energy after final integration           =  -6652.153376140 Eh
Final COS-X integration done in                =   516.888 sec

----------------
TOTAL SCF ENERGY
----------------

Total Energy       :        -6652.15337614 Eh         -181014.29595 eV

Components:
Nuclear Repulsion  :        13781.43496564 Eh          375011.91065 eV
Electronic Energy  :       -20433.58834178 Eh         -556026.20661 eV
One Electron Energy:       -36589.24759107 Eh         -995644.04452 eV
Two Electron Energy:        16155.65924929 Eh          439617.83791 eV

Virial components:
Potential Energy   :       -13287.92699419 Eh         -361582.87603 eV
Kinetic Energy     :         6635.77361805 Eh          180568.58008 eV
Virial Ratio       :            2.00246840


DFT components:
N(Alpha)           :      303.000117402166 electrons
N(Beta)            :      303.000117402166 electrons
N(Total)           :      606.000234804333 electrons
E(X)               :     -492.354649443227 Eh       
E(C)               :      -25.717331500510 Eh       
E(XC)              :     -518.071980943737 Eh       
DFET-embed. en.    :        0.000000000000 Eh       

---------------
SCF CONVERGENCE
---------------

  Last Energy change         ...   -9.4697e-08  Tolerance :   1.0000e-08
  Last MAX-Density change    ...    7.5495e-15  Tolerance :   1.0000e-07
  Last RMS-Density change    ...    1.3525e-17  Tolerance :   5.0000e-09
  Last Orbital Gradient      ...    2.3631e-06  Tolerance :   1.0000e-05
  Last Orbital Rotation      ...    2.3313e-05  Tolerance :   1.0000e-05

             **** THE GBW FILE WAS UPDATED (BT6IC-HD-4Cl.orcainp.gbw) ****
             **** DENSITY FILE WAS UPDATED (BT6IC-HD-4Cl.orcainp.scfp) ****
             **** ENERGY FILE WAS UPDATED (BT6IC-HD-4Cl.orcainp.en.tmp) ****
             **** THE GBW FILE WAS UPDATED (BT6IC-HD-4Cl.orcainp.gbw) ****
             **** DENSITY FILE WAS UPDATED (BT6IC-HD-4Cl.orcainp.scfp) ****
----------------
ORBITAL ENERGIES
----------------

  NO   OCC          E(Eh)            E(eV) 
   0   2.0000    -101.551596     -2763.3594 
   1   2.0000    -101.550748     -2763.3363 
   2   2.0000    -101.548316     -2763.2702 
   3   2.0000    -101.546313     -2763.2156 
   4   2.0000     -88.946212     -2420.3495 
   5   2.0000     -88.910950     -2419.3900 
   6   2.0000     -88.910484     -2419.3773 
   7   2.0000     -88.907662     -2419.3005 
   8   2.0000     -88.907180     -2419.2873 
   9   2.0000     -19.135295      -520.6978 
  10   2.0000     -19.131280      -520.5886 
  11   2.0000     -14.407759      -392.0550 
  12   2.0000     -14.404895      -391.9771 
  13   2.0000     -14.353202      -390.5705 
  14   2.0000     -14.352698      -390.5568 
  15   2.0000     -14.332016      -389.9940 
  16   2.0000     -14.331788      -389.9878 
  17   2.0000     -14.328336      -389.8938 
  18   2.0000     -14.326701      -389.8493 
  19   2.0000     -10.280717      -279.7525 
  20   2.0000     -10.277049      -279.6527 
  21   2.0000     -10.275615      -279.6137 
  22   2.0000     -10.274719      -279.5893 
  23   2.0000     -10.270968      -279.4873 
  24   2.0000     -10.270377      -279.4712 
  25   2.0000     -10.262987      -279.2701 
  26   2.0000     -10.260962      -279.2150 
  27   2.0000     -10.260318      -279.1975 
  28   2.0000     -10.258078      -279.1365 
  29   2.0000     -10.255840      -279.0756 
  30   2.0000     -10.252768      -278.9920 
  31   2.0000     -10.246915      -278.8327 
  32   2.0000     -10.244518      -278.7675 
  33   2.0000     -10.243827      -278.7487 
  34   2.0000     -10.242601      -278.7154 
  35   2.0000     -10.241934      -278.6972 
  36   2.0000     -10.240538      -278.6592 
  37   2.0000     -10.237296      -278.5710 
  38   2.0000     -10.237172      -278.5676 
  39   2.0000     -10.236739      -278.5558 
  40   2.0000     -10.235052      -278.5099 
  41   2.0000     -10.233092      -278.4566 
  42   2.0000     -10.232607      -278.4434 
  43   2.0000     -10.231344      -278.4090 
  44   2.0000     -10.230078      -278.3746 
  45   2.0000     -10.229981      -278.3719 
  46   2.0000     -10.229823      -278.3676 
  47   2.0000     -10.228959      -278.3441 
  48   2.0000     -10.227104      -278.2936 
  49   2.0000     -10.226932      -278.2890 
  50   2.0000     -10.226754      -278.2841 
  51   2.0000     -10.225859      -278.2598 
  52   2.0000     -10.225839      -278.2592 
  53   2.0000     -10.225615      -278.2531 
  54   2.0000     -10.225056      -278.2379 
  55   2.0000     -10.223250      -278.1888 
  56   2.0000     -10.223066      -278.1838 
  57   2.0000     -10.218855      -278.0692 
  58   2.0000     -10.218664      -278.0640 
  59   2.0000     -10.218058      -278.0475 
  60   2.0000     -10.215986      -277.9911 
  61   2.0000     -10.215086      -277.9666 
  62   2.0000     -10.213919      -277.9349 
  63   2.0000     -10.213263      -277.9170 
  64   2.0000     -10.212773      -277.9037 
  65   2.0000     -10.205205      -277.6977 
  66   2.0000     -10.203398      -277.6486 
  67   2.0000     -10.200859      -277.5795 
  68   2.0000     -10.189398      -277.2676 
  69   2.0000     -10.188262      -277.2367 
  70   2.0000     -10.184666      -277.1388 
  71   2.0000     -10.184498      -277.1343 
  72   2.0000     -10.179118      -276.9879 
  73   2.0000     -10.178104      -276.9603 
  74   2.0000     -10.176481      -276.9161 
  75   2.0000     -10.173126      -276.8248 
  76   2.0000     -10.172959      -276.8203 
  77   2.0000      -9.484174      -258.0775 
  78   2.0000      -9.483340      -258.0548 
  79   2.0000      -9.480906      -257.9886 
  80   2.0000      -9.478921      -257.9345 
  81   2.0000      -8.017269      -218.1610 
  82   2.0000      -7.987394      -217.3480 
  83   2.0000      -7.987158      -217.3416 
  84   2.0000      -7.983254      -217.2354 
  85   2.0000      -7.982818      -217.2235 
  86   2.0000      -7.245825      -197.1689 
  87   2.0000      -7.245016      -197.1469 
  88   2.0000      -7.242561      -197.0801 
  89   2.0000      -7.240599      -197.0267 
  90   2.0000      -7.237458      -196.9412 
  91   2.0000      -7.236665      -196.9197 
  92   2.0000      -7.236618      -196.9184 
  93   2.0000      -7.235802      -196.8962 
  94   2.0000      -7.234195      -196.8525 
  95   2.0000      -7.233402      -196.8309 
  96   2.0000      -7.232194      -196.7980 
  97   2.0000      -7.231400      -196.7764 
  98   2.0000      -5.981983      -162.7780 
  99   2.0000      -5.974615      -162.5775 
 100   2.0000      -5.974017      -162.5613 
 101   2.0000      -5.950144      -161.9116 
 102   2.0000      -5.949820      -161.9028 
 103   2.0000      -5.946354      -161.8085 
 104   2.0000      -5.946194      -161.8042 
 105   2.0000      -5.946071      -161.8008 
 106   2.0000      -5.945797      -161.7934 
 107   2.0000      -5.943485      -161.7305 
 108   2.0000      -5.943315      -161.7258 
 109   2.0000      -5.942452      -161.7023 
 110   2.0000      -5.941994      -161.6899 
 111   2.0000      -5.939023      -161.6090 
 112   2.0000      -5.938536      -161.5958 
 113   2.0000      -1.065987       -29.0070 
 114   2.0000      -1.062428       -28.9101 
 115   2.0000      -1.044566       -28.4241 
 116   2.0000      -1.032668       -28.1003 
 117   2.0000      -1.032167       -28.0867 
 118   2.0000      -0.954429       -25.9713 
 119   2.0000      -0.949613       -25.8403 
 120   2.0000      -0.944734       -25.7075 
 121   2.0000      -0.939815       -25.5737 
 122   2.0000      -0.936751       -25.4903 
 123   2.0000      -0.935697       -25.4616 
 124   2.0000      -0.927224       -25.2311 
 125   2.0000      -0.923292       -25.1241 
 126   2.0000      -0.916015       -24.9260 
 127   2.0000      -0.911479       -24.8026 
 128   2.0000      -0.903175       -24.5766 
 129   2.0000      -0.894394       -24.3377 
 130   2.0000      -0.885781       -24.1033 
 131   2.0000      -0.882036       -24.0014 
 132   2.0000      -0.881678       -23.9917 
 133   2.0000      -0.873214       -23.7614 
 134   2.0000      -0.859387       -23.3851 
 135   2.0000      -0.855100       -23.2685 
 136   2.0000      -0.848681       -23.0938 
 137   2.0000      -0.844743       -22.9866 
 138   2.0000      -0.829680       -22.5767 
 139   2.0000      -0.826903       -22.5012 
 140   2.0000      -0.824236       -22.4286 
 141   2.0000      -0.821703       -22.3597 
 142   2.0000      -0.812336       -22.1048 
 143   2.0000      -0.798107       -21.7176 
 144   2.0000      -0.790813       -21.5191 
 145   2.0000      -0.790160       -21.5014 
 146   2.0000      -0.789414       -21.4810 
 147   2.0000      -0.784916       -21.3586 
[...]
   293a -> 305a  :     0.015046 (c=  0.12266198)
   295a -> 303a  :     0.017764 (c=  0.13328125)
   295a -> 304a  :     0.015485 (c= -0.12443893)
   295a -> 305a  :     0.012407 (c= -0.11138512)
   295a -> 306a  :     0.030613 (c=  0.17496493)
   296a -> 305a  :     0.031754 (c=  0.17819717)
   296a -> 306a  :     0.192139 (c=  0.43833612)
   297a -> 304a  :     0.017574 (c=  0.13256575)
   297a -> 305a  :     0.027349 (c=  0.16537594)
   297a -> 306a  :     0.177467 (c=  0.42126884)
   298a -> 305a  :     0.180659 (c= -0.42504055)
   298a -> 306a  :     0.028459 (c= -0.16869756)
   299a -> 307a  :     0.013427 (c= -0.11587519)

STATE 46:  E=   0.146912 au      3.998 eV    32243.5 cm**-1
   289a -> 303a  :     0.023089 (c= -0.15195045)
   291a -> 303a  :     0.035434 (c=  0.18823927)
   291a -> 304a  :     0.018529 (c= -0.13612227)
   292a -> 303a  :     0.010619 (c=  0.10304734)
   292a -> 304a  :     0.017371 (c= -0.13179944)
   293a -> 304a  :     0.045519 (c= -0.21335204)
   293a -> 306a  :     0.011590 (c=  0.10765510)
   294a -> 304a  :     0.015752 (c=  0.12550653)
   294a -> 305a  :     0.012382 (c=  0.11127410)
   294a -> 306a  :     0.036461 (c= -0.19094730)
   296a -> 304a  :     0.034478 (c=  0.18568273)
   297a -> 304a  :     0.012877 (c= -0.11347860)
   297a -> 305a  :     0.022222 (c= -0.14906908)
   298a -> 303a  :     0.013240 (c= -0.11506345)
   298a -> 304a  :     0.051534 (c= -0.22701067)
   298a -> 305a  :     0.067336 (c=  0.25949249)
   298a -> 306a  :     0.400104 (c= -0.63253757)
   300a -> 306a  :     0.011515 (c= -0.10730905)

STATE 47:  E=   0.147409 au      4.011 eV    32352.5 cm**-1
   289a -> 303a  :     0.056757 (c= -0.23823812)
   291a -> 303a  :     0.047519 (c=  0.21798751)
   291a -> 304a  :     0.141237 (c= -0.37581501)
   292a -> 303a  :     0.013877 (c=  0.11780213)
   292a -> 304a  :     0.069738 (c= -0.26407871)
   293a -> 303a  :     0.014421 (c=  0.12008784)
   295a -> 303a  :     0.031013 (c=  0.17610377)
   295a -> 304a  :     0.018783 (c= -0.13705289)
   295a -> 305a  :     0.020489 (c= -0.14314095)
   296a -> 305a  :     0.211401 (c= -0.45978368)
   296a -> 306a  :     0.026344 (c= -0.16230883)
   297a -> 304a  :     0.021634 (c=  0.14708590)
   297a -> 305a  :     0.154753 (c=  0.39338654)
   297a -> 306a  :     0.029589 (c=  0.17201443)

STATE 48:  E=   0.149380 au      4.065 eV    32785.1 cm**-1
   289a -> 303a  :     0.038786 (c=  0.19694070)
   291a -> 303a  :     0.021522 (c= -0.14670224)
   291a -> 304a  :     0.214067 (c=  0.46267352)
   292a -> 304a  :     0.032727 (c=  0.18090669)
   293a -> 303a  :     0.010590 (c= -0.10290802)
   294a -> 305a  :     0.011541 (c=  0.10742970)
   295a -> 306a  :     0.012413 (c= -0.11141146)
   296a -> 305a  :     0.112647 (c= -0.33562915)
   296a -> 306a  :     0.170881 (c= -0.41337754)
   297a -> 305a  :     0.031247 (c=  0.17676770)
   297a -> 306a  :     0.119796 (c=  0.34611489)
   298a -> 305a  :     0.029729 (c=  0.17242011)
   298a -> 306a  :     0.027722 (c= -0.16650018)
   302a -> 309a  :     0.021900 (c=  0.14798544)
   302a -> 311a  :     0.014326 (c= -0.11969209)

STATE 49:  E=   0.151283 au      4.117 eV    33202.7 cm**-1
   289a -> 303a  :     0.350777 (c=  0.59226452)
   289a -> 304a  :     0.010177 (c=  0.10088074)
   290a -> 303a  :     0.054521 (c= -0.23349736)
   291a -> 304a  :     0.216637 (c= -0.46544288)
   295a -> 305a  :     0.036453 (c=  0.19092705)
   295a -> 306a  :     0.143376 (c= -0.37864986)
   297a -> 305a  :     0.015400 (c= -0.12409544)
   297a -> 306a  :     0.047498 (c=  0.21793978)
   302a -> 311a  :     0.013204 (c= -0.11490787)

STATE 50:  E=   0.151828 au      4.131 eV    33322.4 cm**-1
   289a -> 303a  :     0.172835 (c=  0.41573391)
   291a -> 303a  :     0.010430 (c=  0.10212626)
   291a -> 304a  :     0.032579 (c= -0.18049598)
   295a -> 305a  :     0.046293 (c= -0.21515895)
   295a -> 306a  :     0.447386 (c=  0.66886884)
   296a -> 306a  :     0.028299 (c= -0.16822208)
   297a -> 305a  :     0.042195 (c=  0.20541466)
   297a -> 306a  :     0.076290 (c= -0.27620722)
   301a -> 308a  :     0.014751 (c= -0.12145208)
   302a -> 311a  :     0.021533 (c= -0.14674116)


-----------------------------
TD-DFT/TDA-EXCITATION SPECTRA
-----------------------------

Center of mass = ( 17.9845, -2.9042,  1.4683)
Calculating the Dipole integrals                  ... done
Transforming integrals                            ... done
Calculating the Linear Momentum integrals         ... done
Transforming integrals                            ... done
Calculating angular momentum integrals            ... done
Transforming integrals                            ... done

-----------------------------------------------------------------------------
         ABSORPTION SPECTRUM VIA TRANSITION ELECTRIC DIPOLE MOMENTS
-----------------------------------------------------------------------------
State   Energy    Wavelength  fosc         T2        TX        TY        TZ  
        (cm-1)      (nm)                 (au**2)    (au)      (au)      (au) 
-----------------------------------------------------------------------------
   1   14071.7    710.6   1.915072763  44.80381  -5.34243   3.92899  -0.90845
   2   16068.1    622.4   0.455465796   9.33182  -2.24407   1.36878  -1.55641
   3   18170.0    550.4   0.481533006   8.72463   2.02955  -2.09509   0.46494
   4   18681.3    535.3   0.019908136   0.35083  -0.39516  -0.36062  -0.25423
   5   18987.6    526.7   0.043260180   0.75006  -0.56215   0.41690  -0.51013
   6   19940.2    501.5   0.062409257   1.03038   0.71924  -0.69897  -0.15656
   7   21256.6    470.4   0.142004732   2.19930  -0.20224   0.31131   1.43578
   8   21348.1    468.4   0.051336551   0.79167   0.19767  -0.10621   0.86100
   9   21793.4    458.9   0.159147486   2.40409   1.22583  -0.55334   0.77153
  10   22615.4    442.2   0.004598766   0.06694   0.16635  -0.19054   0.05448
  11   22882.2    437.0   0.061416510   0.88361  -0.55445   0.05144  -0.75733
  12   23970.5    417.2   0.014017622   0.19252   0.43129  -0.03252   0.07382
  13   24370.7    410.3   0.012979066   0.17533  -0.10779   0.33605   0.22534
  14   24494.6    408.3   0.013466967   0.18100  -0.22285   0.32468   0.16100
  15   25117.1    398.1   0.014010930   0.18364  -0.15581   0.07950   0.39121
  16   25574.6    391.0   0.039993640   0.51482  -0.06731   0.46784  -0.53983
  17   25817.1    387.3   0.026076033   0.33251   0.31446  -0.04059  -0.48164
  18   26034.4    384.1   0.009880161   0.12494  -0.18258  -0.21232  -0.21569
  19   26256.2    380.9   0.037290812   0.46757   0.46369   0.48582  -0.12857
  20   26395.6    378.9   0.010878334   0.13568  -0.25856   0.12975  -0.22801
  21   26709.2    374.4   0.160153535   1.97402   0.99661  -0.97990   0.14343
  22   26914.9    371.5   0.048840774   0.59740   0.46079  -0.58485   0.20742
  23   27121.6    368.7   0.021056084   0.25559   0.24611  -0.34183   0.27958
  24   27463.6    364.1   0.006282347   0.07531   0.24244  -0.10065  -0.07999
  25   27468.2    364.1   0.142467919   1.70751   1.02301  -0.54243   0.60559
  26   27556.2    362.9   0.132906705   1.58783  -0.81020   0.94612  -0.19040
  27   27946.9    357.8   0.058530001   0.68948  -0.79692   0.14767  -0.18053
  28   28289.3    353.5   0.063707172   0.74138  -0.40389   0.46100  -0.60476
  29   28784.2    347.4   0.019920396   0.22783  -0.03764  -0.37627  -0.29127
  30   28817.4    347.0   0.089256753   1.01968   0.35717   0.82460   0.46060
  31   29018.5    344.6   0.029341990   0.33288   0.22150  -0.53133  -0.03876
  32   29341.2    340.8   0.032136701   0.36058   0.26785   0.31080   0.43845
  33   29720.1    336.5   0.002785419   0.03085   0.09087  -0.14784   0.02720
  34   29924.9    334.2   0.163746519   1.80142   0.75859  -1.10148   0.11270
  35   30146.8    331.7   0.074375517   0.81220   0.35803  -0.41916   0.71297
  36   30252.1    330.6   0.037132886   0.40409   0.47750   0.05868   0.41550
  37   30379.6    329.2   0.030636198   0.33199  -0.17179   0.47606   0.27540
  38   30901.9    323.6   0.012715542   0.13546  -0.36280   0.05521   0.02818
  39   31041.4    322.2   0.011170422   0.11847   0.32955   0.02422  -0.09633
  40   31251.9    320.0   0.023884743   0.25161   0.41366  -0.28311  -0.01851
  41   31328.7    319.2   0.037051479   0.38935   0.49681   0.34613   0.15076
  42   31592.6    316.5   0.084039734   0.87574   0.75110   0.52093   0.20056
  43   31787.0    314.6   0.097137025   1.00603   0.65163  -0.68944   0.32571
  44   31834.5    314.1   0.019575141   0.20243   0.26582   0.35221  -0.08788
  45   31917.7    313.3   0.147706799   1.52351  -0.45807   1.07631  -0.39401
  46   32243.5    310.1   0.350988700   3.58366  -0.78798  -1.68732   0.34014
  47   32352.5    309.1   0.265500519   2.70168  -0.52638   1.47077  -0.51131
  48   32785.1    305.0   0.034879044   0.35024  -0.37985  -0.35040   0.28839
  49   33202.7    301.2   0.013623898   0.13508  -0.01670   0.36175  -0.06279
  50   33322.4    300.1   0.015799062   0.15609  -0.22962  -0.21787   0.23643

-----------------------------------------------------------------------------
         ABSORPTION SPECTRUM VIA TRANSITION VELOCITY DIPOLE MOMENTS
-----------------------------------------------------------------------------
State   Energy    Wavelength   fosc        P2         PX        PY        PZ  
        (cm-1)      (nm)                 (au**2)     (au)      (au)      (au) 
-----------------------------------------------------------------------------
   1   14071.7    710.6   0.465465431   0.04477   0.15543  -0.12582   0.06912
   2   16068.1    622.4   0.125896152   0.01383   0.04317  -0.10866  -0.01241
   3   18170.0    550.4   0.176530927   0.02192  -0.14333   0.03193  -0.01892
   4   18681.3    535.3   0.113956295   0.01455  -0.04149  -0.08421  -0.07574
   5   18987.6    526.7   0.025201179   0.00327   0.02175  -0.05257   0.00583
   6   19940.2    501.5   0.024255290   0.00331  -0.03995   0.00156  -0.04132
   7   21256.6    470.4   0.019156434   0.00278   0.04573   0.02259   0.01349
   8   21348.1    468.4   0.006604096   0.00096  -0.01139   0.02486  -0.01469
   9   21793.4    458.9   0.043301351   0.00645  -0.01306   0.07185  -0.03342
  10   22615.4    442.2   0.011023662   0.00170   0.01377  -0.03742  -0.01066
  11   22882.2    437.0   0.054286110   0.00849   0.05259  -0.06893   0.03119
  12   23970.5    417.2   0.023276498   0.00381   0.00012   0.04558   0.04166
  13   24370.7    410.3   0.001697735   0.00028   0.01627   0.00378   0.00191
  14   24494.6    408.3   0.006865094   0.00115   0.02582   0.00854   0.02024
  15   25117.1    398.1   0.019044339   0.00327   0.05187  -0.02206   0.00959
  16   25574.6    391.0   0.003614554   0.00063   0.01846   0.01431  -0.00929
  17   25817.1    387.3   0.014007767   0.00247  -0.04414  -0.02067  -0.00983
  18   26034.4    384.1   0.003766611   0.00067   0.00736  -0.00059   0.02481
  19   26256.2    380.9   0.006381483   0.00115  -0.00937   0.02872   0.01526
  20   26395.6    378.9   0.013167826   0.00238   0.03392  -0.01996   0.02875
  21   26709.2    374.4   0.063290960   0.01155  -0.07509   0.07687  -0.00248
  22   26914.9    371.5   0.059231865   0.01090  -0.07424   0.06735  -0.02911
  23   27121.6    368.7   0.018593662   0.00345  -0.04450   0.02837  -0.02572
  24   27463.6    364.1   0.007067901   0.00133  -0.02966   0.00840  -0.01940
  25   27468.2    364.1   0.099804073   0.01874  -0.09807   0.07779  -0.05538
  26   27556.2    362.9   0.044699982   0.00842   0.08335  -0.03560  -0.01428
  27   27946.9    357.8   0.026497274   0.00506   0.06792  -0.02094  -0.00299
  28   28289.3    353.5   0.018263652   0.00353   0.05224  -0.02690   0.00889
  29   28784.2    347.4   0.012087706   0.00238   0.01959  -0.03103   0.03211
  30   28817.4    347.0   0.015200814   0.00299   0.02350   0.02902   0.04000
  31   29018.5    344.6   0.003158357   0.00063  -0.01323  -0.00226   0.02113
  32   29341.2    340.8   0.005188646   0.00104   0.00578   0.02749   0.01585
  33   29720.1    336.5   0.003261303   0.00066  -0.02270   0.00827  -0.00888
  34   29924.9    334.2   0.091745321   0.01876  -0.11617   0.06878  -0.02321
  35   30146.8    331.7   0.014837088   0.00306  -0.00557   0.05501   0.00042
  36   30252.1    330.6   0.011122361   0.00230  -0.01392   0.04234   0.01771
  37   30379.6    329.2   0.020278069   0.00421   0.04489   0.04013  -0.02419
  38   30901.9    323.6   0.011750543   0.00248   0.02375  -0.04244   0.01079
  39   31041.4    322.2   0.001289667   0.00027  -0.01288  -0.01035  -0.00080
  40   31251.9    320.0   0.016117680   0.00344  -0.00071   0.05750  -0.01167
  41   31328.7    319.2   0.005228957   0.00112   0.02046   0.02119  -0.01587
  42   31592.6    316.5   0.011507161   0.00248   0.01586   0.04680   0.00655
  43   31787.0    314.6   0.023465522   0.00510  -0.06522   0.01603   0.02424
  44   31834.5    314.1   0.000462802   0.00010   0.00803   0.00445  -0.00404
  45   31917.7    313.3   0.031432986   0.00686   0.07260  -0.02017  -0.03434
  46   32243.5    310.1   0.055325704   0.01219  -0.09932   0.03091  -0.03706
  47   32352.5    309.1   0.052680356   0.01165   0.10455  -0.02032  -0.01745
  48   32785.1    305.0   0.009090895   0.00204  -0.00060   0.00618  -0.04470
  49   33202.7    301.2   0.005801575   0.00132   0.00100  -0.03619   0.00243
  50   33322.4    300.1   0.003662651   0.00083  -0.01277  -0.01037  -0.02374

-------------------------------------------------------------------
                             CD SPECTRUM
-------------------------------------------------------------------
State  Energy     Wavelength     R         MX        MY        MZ   
       (cm-1)       (nm)     (1e40*cgs)   (au)      (au)      (au)  
-------------------------------------------------------------------
   1   14071.7    710.6    -154.91303   0.11717   0.17057   0.41034
   2   16068.1    622.4    -233.02504   0.06476   0.27855   0.46917
   3   18170.0    550.4    -43.93620  -0.20358  -0.22451  -0.32344
   4   18681.3    535.3     -5.22724   0.14545  -0.02654  -0.14483
   5   18987.6    526.7     54.67208   0.07495  -0.14073  -0.42493
   6   19940.2    501.5    -38.30470  -0.37510  -0.37356   0.46355
   7   21256.6    470.4    136.70338  -0.02904  -0.20724   0.24280
   8   21348.1    468.4    -20.33266   0.09086  -0.03720  -0.07554
   9   21793.4    458.9    -19.22234  -0.01729  -0.11386  -0.10703
  10   22615.4    442.2     -1.37417  -0.05765  -0.01472   0.07104
  11   22882.2    437.0    -31.95155   0.09845   0.25576   0.03479
  12   23970.5    417.2    -25.72909  -0.13165  -0.03909   0.01265
  13   24370.7    410.3     31.78956  -0.06444   0.07006   0.16392
  14   24494.6    408.3    -10.10106   0.15078   0.14438  -0.21555
  15   25117.1    398.1     48.55276   0.06281  -0.01028   0.29035
  16   25574.6    391.0     11.21103   0.07239   0.13620   0.06496
  17   25817.1    387.3     46.62342  -0.07251  -0.14723  -0.24026
  18   26034.4    384.1     44.49528  -0.12397  -0.15647  -0.17861
  19   26256.2    380.9    -21.83029  -0.04397  -0.03496   0.06948
  20   26395.6    378.9      6.36320  -0.01272  -0.02358  -0.05819
  21   26709.2    374.4    -31.12059  -0.20367  -0.14148  -0.01162
  22   26914.9    371.5    -19.50248  -0.14002  -0.05635  -0.04728
  23   27121.6    368.7     -6.07299  -0.07861  -0.00957   0.01143
  24   27463.6    364.1    -21.95773  -0.20613  -0.13856   0.13185
  25   27468.2    364.1     74.71989  -0.10812  -0.25323   0.21753
  26   27556.2    362.9     32.68957   0.00777   0.13796   0.28832
  27   27946.9    357.8    -44.22504   0.13724   0.15213   0.03821
  28   28289.3    353.5     29.45099   0.11355   0.21494  -0.01529
  29   28784.2    347.4      5.08368   0.07439   0.05642  -0.11951
  30   28817.4    347.0      8.07565  -0.06923   0.06913  -0.03288
  31   29018.5    344.6     18.55159  -0.00819  -0.06594  -0.15803
  32   29341.2    340.8     11.52725  -0.02573   0.00589   0.06730
  33   29720.1    336.5     -2.12556   0.02470   0.05343   0.04211
  34   29924.9    334.2     98.74883  -0.20616  -0.32887   0.03194
  35   30146.8    331.7     30.21000  -0.01602  -0.08973   0.04517
  36   30252.1    330.6     -8.31601  -0.12606  -0.08496   0.11442
  37   30379.6    329.2     -7.84597   0.04744   0.11018  -0.22129
  38   30901.9    323.6     -5.46295   0.03150   0.03815  -0.08040
  39   31041.4    322.2    -12.56449  -0.06018  -0.05561   0.05681
  40   31251.9    320.0     -9.89926  -0.07582  -0.03390  -0.04163
  41   31328.7    319.2     -2.81910  -0.01872   0.01705  -0.01712
  42   31592.6    316.5    -36.40188  -0.05144  -0.05203  -0.05720
  43   31787.0    314.6     -8.49064  -0.08413  -0.18059  -0.26925
  44   31834.5    314.1      2.11063  -0.00984   0.02096   0.00328
  45   31917.7    313.3     41.55145   0.07579   0.22689   0.30798
  46   32243.5    310.1    159.87646  -0.01670  -0.19221   0.00482
  47   32352.5    309.1    118.12901   0.07520   0.34642   0.42900
  48   32785.1    305.0     -1.62110   0.07348  -0.10760  -0.04587
  49   33202.7    301.2      2.01648   0.00535   0.03583   0.13689
  50   33322.4    300.1      1.87649   0.01116  -0.06184  -0.02931

Total run time:    28294.207 sec

           *** ORCA-CIS/TD-DFT FINISHED WITHOUT ERROR ***

-----------------------
CIS/TD-DFT TOTAL ENERGY
-----------------------

    E(SCF)  =  -6652.153376140 Eh
    DE(CIS) =      0.064115282 Eh (Root  1)
    ----------------------------- ---------
    E(tot)  =  -6652.089260858 Eh


-------------------------   --------------------
FINAL SINGLE POINT ENERGY     -6652.089260857600
-------------------------   --------------------


                            ***************************************
                            *     ORCA property calculations      *
                            ***************************************

                                    ---------------------
                                    Active property flags
                                    ---------------------
   (+) Dipole Moment


------------------------------------------------------------------------------
                       ORCA ELECTRIC PROPERTIES CALCULATION
------------------------------------------------------------------------------

Dipole Moment Calculation                       ... on
Quadrupole Moment Calculation                   ... off
Polarizability Calculation                      ... off
GBWName                                         ... BT6IC-HD-4Cl.orcainp.gbw
Electron density file                           ... BT6IC-HD-4Cl.orcainp.scfp
The origin for moment calculation is the CENTER OF MASS  = (17.984483, -2.904170  1.468253)

-------------
DIPOLE MOMENT
-------------
                                X             Y             Z
Electronic contribution:    -48.80665     -47.70855      34.97482
Nuclear contribution   :     48.03770      48.92527     -36.89922
                        -----------------------------------------
Total Dipole Moment    :     -0.76895       1.21671      -1.92440
                        -----------------------------------------
Magnitude (a.u.)       :      2.40312
Magnitude (Debye)      :      6.10825



--------------------
Rotational spectrum 
--------------------
 
Rotational constants in cm-1:     0.001727     0.000193     0.000190 
Rotational constants in MHz :    51.775354     5.776986     5.694158 

 Dipole components along the rotational axes: 
x,y,z [a.u.] :     1.724887    -0.106524    -1.669853 
x,y,z [Debye]:     4.384315    -0.270762    -4.244430 

 

Timings for individual modules:

Sum of individual times         ...    35567.329 sec (= 592.789 min)
GTO integral calculation        ...       24.897 sec (=   0.415 min)   0.1 %
SCF iterations                  ...     7246.741 sec (= 120.779 min)  20.4 %
CIS module                      ...    28295.691 sec (= 471.595 min)  79.6 %
                             ****ORCA TERMINATED NORMALLY****
TOTAL RUN TIME: 0 days 9 hours 52 minutes 52 seconds 303 msec
