
                                 *****************
                                 * O   R   C   A *
                                 *****************

           --- An Ab Initio, DFT and Semiempirical electronic structure package ---

                  #######################################################
                  #                        -***-                        #
                  #          Department of theory and spectroscopy      #
                  #               Directorship: Frank Neese             #
                  #        Max Planck Institute fuer Kohlenforschung    #
                  #                Kaiser Wilhelm Platz 1               #
                  #                 D-45470 Muelheim/Ruhr               #
                  #                      Germany                        #
                  #                                                     #
                  #                  All rights reserved                #
                  #                        -***-                        #
                  #######################################################


                         Program Version 4.2.0 -  RELEASE  -


 With contributions from (in alphabetic order):
   Daniel Aravena         : Magnetic Suceptibility
   Michael Atanasov       : Ab Initio Ligand Field Theory (pilot matlab implementation)
   Alexander A. Auer      : GIAO ZORA, VPT2
   Ute Becker             : Parallelization
   Giovanni Bistoni       : ED, misc. LED, open-shell LED, HFLED
   Martin Brehm           : Molecular dynamics
   Dmytro Bykov           : SCF Hessian
   Vijay G. Chilkuri      : MRCI spin determinant printing, contributions to CSF-ICE
   Dipayan Datta          : RHF DLPNO-CCSD density
   Achintya Kumar Dutta   : EOM-CC, STEOM-CC
   Dmitry Ganyushin       : Spin-Orbit,Spin-Spin,Magnetic field MRCI
   Miquel Garcia          : C-PCM Hessian, Gaussian charge scheme
   Yang Guo               : DLPNO-NEVPT2, CIM, IAO-localization
   Andreas Hansen         : Spin unrestricted coupled pair/coupled cluster methods
   Benjamin Helmich-Paris : CASSCF linear response (MC-RPA)
   Lee Huntington         : MR-EOM, pCC
   Robert Izsak           : Overlap fitted RIJCOSX, COSX-SCS-MP3, EOM
   Christian Kollmar      : KDIIS, OOCD, Brueckner-CCSD(T), CCSD density
   Simone Kossmann        : Meta GGA functionals, TD-DFT gradient, OOMP2, MP2 Hessian
   Martin Krupicka        : AUTO-CI
   Lucas Lang             : DCDCAS
   Dagmar Lenk            : GEPOL surface, SMD
   Dimitrios Liakos       : Extrapolation schemes; Compound Job, initial MDCI parallelization
   Dimitrios Manganas     : Further ROCIS development; embedding schemes
   Dimitrios Pantazis     : SARC Basis sets
   Taras Petrenko         : DFT Hessian,TD-DFT gradient, ASA, ECA, R-Raman, ABS, FL, XAS/XES, NRVS
   Peter Pinski           : DLPNO-MP2, DLPNO-MP2 Gradient
   Christoph Reimann      : Effective Core Potentials
   Marius Retegan         : Local ZFS, SOC
   Christoph Riplinger    : Optimizer, TS searches, QM/MM, DLPNO-CCSD(T), (RO)-DLPNO pert. Triples
   Tobias Risthaus        : Range-separated hybrids, TD-DFT gradient, RPA, STAB
   Michael Roemelt        : Original ROCIS implementation
   Masaaki Saitow         : Open-shell DLPNO-CCSD energy and density
   Barbara Sandhoefer     : DKH picture change effects
   Avijit Sen             : IP-ROCIS
   Kantharuban Sivalingam : CASSCF convergence, NEVPT2, FIC-MRCI
   Bernardo de Souza      : ESD, SOC TD-DFT
   Georgi Stoychev        : AutoAux, RI-MP2 NMR
   Willem Van den Heuvel  : Paramagnetic NMR
   Boris Wezisla          : Elementary symmetry handling
   Frank Wennmohs         : Technical directorship


 We gratefully acknowledge several colleagues who have allowed us to
 interface, adapt or use parts of their codes:
   Stefan Grimme, W. Hujo, H. Kruse,             : VdW corrections, initial TS optimization,
                  C. Bannwarth                     DFT functionals, gCP, sTDA/sTD-DF
   Ed Valeev, F. Pavosevic, A. Kumar             : LibInt (2-el integral package), F12 methods
   Garnet Chan, S. Sharma, J. Yang, R. Olivares  : DMRG
   Ulf Ekstrom                                   : XCFun DFT Library
   Mihaly Kallay                                 : mrcc  (arbitrary order and MRCC methods)
   Andreas Klamt, Michael Diedenhofen            : otool_cosmo (COSMO solvation model)
   Jiri Pittner, Ondrej Demel                    : Mk-CCSD
   Frank Weinhold                                : gennbo (NPA and NBO analysis)
   Christopher J. Cramer and Donald G. Truhlar   : smd solvation model
   Lars Goerigk                                  : TD-DFT with DH, B97 family of functionals
   V. Asgeirsson, H. Jonsson                     : NEB implementation
   FAccTs GmbH                                   : IRC, NEB, NEB-TS, Multilevel, MM, QM/MM, CI optimization
   S Lehtola, MJT Oliveira, MAL Marques          : LibXC Library


 Your calculation uses the libint2 library for the computation of 2-el integrals
 For citations please refer to: http://libint.valeyev.net

 Your ORCA version has been built with support for libXC version: 4.2.3
 For citations please refer to: https://tddft.org/programs/libxc/

 This ORCA versions uses:
   CBLAS   interface :  Fast vector & matrix operations
   LAPACKE interface :  Fast linear algebra routines
   SCALAPACK package :  Parallel linear algebra routines


----- Orbital basis set information -----
Your calculation utilizes the basis: def2-TZVP
   F. Weigend and R. Ahlrichs, Phys. Chem. Chem. Phys. 7, 3297 (2005).

----- AuxJ basis set information -----
Your calculation utilizes the auxiliary basis: def2/J
   F. Weigend, Phys. Chem. Chem. Phys. 8, 1057 (2006).

================================================================================
                                        WARNINGS
                       Please study these warnings very carefully!
================================================================================

INFO   : Checking CIS options ...

WARNING: CIS/ROCIS methods need fully converged wavefunctions
  ===> : Setting SCFConvForced true
         You can overwrite this default with %scf ConvForced false 


INFO   : the flag for use of LIBINT has been found!

================================================================================
                                       INPUT FILE
================================================================================
NAME = BTA3.inp
|  1> # ORCA input file
|  2> # BTA3.out: Geometry 50
|  3> ! B3LYP def2-TZVP def2/J RIJCOSX Grid4 TightSCF
|  4> 
|  5> %maxcore 6000
|  6> %tddft
|  7>   maxdim 5
|  8>   nroots 50
|  9>   end
| 10> %pal
| 11>   nprocs 6
| 12>   end
| 13> 
| 14> 
| 15> * xyz 0 1
| 16>    C        2.24380        -2.93091        -0.05528
| 17>    C        2.25283        -2.34293         1.24141
| 18>    C        1.20969        -1.50703         1.67235
| 19>    C        0.13454        -1.31730         0.81503
| 20>    C        0.07731        -1.99997        -0.43183
| 21>    C        1.14360        -2.79228        -0.88631
| 22>    C        3.55067        -3.69967        -0.31967
| 23>    C        4.16368        -3.68380         1.07870
| 24>    C        3.42754        -2.85694         1.91647
| 25>    C        5.22078        -4.34154         1.73469
| 26>    C        5.27679        -4.03416         3.09460
| 27>    S        4.02485        -2.86184         3.53379
| 28>    C       -1.14827        -0.48971         1.04951
| 29>    C       -1.94227        -0.84603        -0.20461
| 30>    C       -1.21666        -1.71077        -1.00890
| 31>    C       -3.20291        -0.51215        -0.73810
| 32>    C       -3.46213        -1.18946        -1.92707
| 33>    S       -2.08938        -2.18796        -2.41651
| 34>    C        6.12971        -4.62238         4.10205
| 35>    C       -4.70911        -1.23588        -2.66051
| 36>    C       -1.81581        -0.97070         2.34556
| 37>    C       -0.92492         1.02924         1.02386
| 38>    C        3.29671        -5.10656        -0.87420
| 39>    C        4.48098        -2.91854        -1.27529
| 40>    C        6.06059        -4.29242         5.46484
| 41>    C        6.84792        -4.90623         6.46035
| 42>    C        7.79664        -5.89798         6.17673
| 43>    C        7.89133        -6.24840         4.79338
| 44>    C        7.08736        -5.64100         3.78438
| 45>    C       -5.10929        -2.34875        -3.40935
| 46>    C       -6.39574        -2.47776        -3.96841
| 47>    C       -7.38965        -1.49855        -3.84179
| 48>    C       -6.95675        -0.29437        -3.20098
| 49>    C       -5.66158        -0.17101        -2.61264
| 50>    N        8.66950        -7.17685         4.20714
| 51>    N        8.32957        -7.10390         2.93182
| 52>    N        7.40223        -6.22148         2.60614
| 53>    N       -7.61696         0.86129        -2.99991
| 54>    N       -6.74278         1.60393        -2.33765
| 55>    N       -5.56926         1.06015        -2.06979
| 56>    C        8.66010        -6.57012         7.11297
| 57>    C        8.61061        -6.64725         8.46847
| 58>    C       -8.77753        -1.65771        -4.19323
| 59>    C       -9.45837        -2.80539        -4.45630
| 60>    C       -7.02632         2.98718        -2.00127
| 61>    C        8.96090        -7.94256         1.93114
| 62>    C      -10.92907        -2.81449        -4.60346
| 63>    N      -11.39718        -4.15351        -4.67736
| 64>    C      -10.43928        -5.12201        -4.66127
| 65>    S       -8.81904        -4.44580        -4.50952
| 66>    C        9.61006        -7.43802         9.21532
| 67>    N        9.26467        -7.48380        10.59018
| 68>    C        8.14204        -6.79783        10.94471
| 69>    S        7.39522        -5.99357         9.56141
| 70>    C       10.10440        -8.25997        11.49943
| 71>    O       10.58365        -7.99437         8.76172
| 72>    C        7.56517        -6.67772        12.20130
| 73>    C        6.36313        -5.91475        12.32337
| 74>    C        8.08263        -7.27039        13.39084
| 75>    C        3.20915        -6.22763        -0.04245
| 76>    C        3.03329        -7.50675        -0.57951
| 77>    C        2.92426        -7.70910        -1.96067
| 78>    C        2.96485        -6.57529        -2.78740
| 79>    C        3.14883        -5.30033        -2.25692
| 80>    C        4.12725        -1.70487        -1.87223
| 81>    C        4.99622        -1.06152        -2.76031
| 82>    C        6.24636        -1.60332        -3.07847
| 83>    C        6.60006        -2.81953        -2.47024
| 84>    C        5.73809        -3.46176        -1.58540
| 85>    C       -2.76083        -2.00190         2.34578
| 86>    C       -3.29473        -2.48756         3.54318
| 87>    C       -2.90096        -1.96410         4.78108
| 88>    C       -1.95021        -0.92923         4.77532
| 89>    C       -1.41939        -0.43981         3.58313
| 90>    C        0.22135         1.61090         0.47257
| 91>    C        0.31741         2.99902         0.32391
| 92>    C       -0.72473         3.84801         0.71624
| 93>    C       -1.86256         3.25924         1.29333
| 94>    C       -1.96328         1.87876         1.44101
| 95>    O      -11.66645        -1.85615        -4.62507
| 96>    C      -12.83345        -4.40498        -4.72838
| 97>    C      -10.59138        -6.49874        -4.74640
| 98>    C       -9.41175        -7.30512        -4.69982
| 99>    C      -11.83458        -7.18417        -4.88199
|100>    N        5.38322        -5.29321        12.39254
|101>    N        8.48453        -7.74411        14.37328
|102>    N      -12.82501        -7.78324        -4.99004
|103>    N       -8.43360        -7.93197        -4.66048
|104>    C       -3.47176        -2.48907         6.07492
|105>    C       -0.65586         5.33865         0.50460
|106>    C        7.19133        -0.89707        -4.01667
|107>    C        2.77740        -9.08821        -2.55085
|108>    H        1.23409        -1.04025         2.65836
|109>    H        1.09947        -3.29473        -1.85363
|110>    H        5.89931        -5.06226         1.28554
|111>    H       -3.92547         0.16219        -0.28252
|112>    H        5.35472        -3.52210         5.78341
|113>    H        6.71694        -4.55389         7.48504
|114>    H       -4.42229        -3.19149        -3.51048
|115>    H       -6.60641        -3.39987        -4.50915
|116>    H        9.47907        -7.14670         6.67079
|117>    H       -9.40013        -0.75883        -4.14773
|118>    H       -8.10034         3.15236        -2.13957
|119>    H       -6.45727         3.65518        -2.66331
|120>    H       -6.72823         3.17510        -0.96161
|121>    H        9.60068        -8.65904         2.45748
|122>    H        9.56374        -7.32216         1.25194
|123>    H        8.18821        -8.46652         1.35263
|124>    H       10.89292        -8.70629        10.88262
|125>    H        9.51960        -9.04901        11.98894
|126>    H       10.55045        -7.61346        12.26629
|127>    H        3.30350        -6.10923         1.03830
|128>    H        2.99466        -8.36765         0.09341
|129>    H        2.87045        -6.69663        -3.87054
|130>    H        3.21884        -4.44523        -2.93136
|131>    H        3.15886        -1.25243        -1.66028
|132>    H        4.68378        -0.12152        -3.22340
|133>    H        7.56504        -3.27631        -2.70687
|134>    H        6.03512        -4.41513        -1.14450
|135>    H       -3.08712        -2.43821         1.40055
|136>    H       -4.03408        -3.29244         3.51219
|137>    H       -1.61997        -0.49301         5.72272
|138>    H       -0.69546         0.37781         3.61078
|139>    H        1.04662         0.97773         0.14290
|140>    H        1.22112         3.42937        -0.11697
|141>    H       -2.68763         3.89515         1.62673
|142>    H       -2.86230         1.44876         1.88742
|143>    H      -13.32374        -3.42788        -4.64935
|144>    H      -13.14147        -5.04780        -3.89347
|145>    H      -13.11545        -4.88733        -5.67382
|146>    H       -4.23733        -3.25751         5.89557
|147>    H       -3.93461        -1.68206         6.66705
|148>    H       -2.68495        -2.93944         6.70374
|149>    H        0.35272         5.66308         0.20847
|150>    H       -0.94405         5.89136         1.41336
|151>    H       -1.35164         5.65387        -0.29126
|152>    H        6.64890        -0.24778        -4.72073
|153>    H        7.79306        -1.61011        -4.60205
|154>    H        7.89785        -0.25805        -3.45757
|155>    H        2.91456        -9.86925        -1.78866
|156>    H        3.51701        -9.26171        -3.34880
|157>    H        1.78150        -9.22814        -3.00471
|158> *
|159> 
|160>                          ****END OF INPUT****
================================================================================

                       ****************************
                       * Single Point Calculation *
                       ****************************

---------------------------------
CARTESIAN COORDINATES (ANGSTROEM)
---------------------------------
  C      2.243800   -2.930910   -0.055280
  C      2.252830   -2.342930    1.241410
  C      1.209690   -1.507030    1.672350
  C      0.134540   -1.317300    0.815030
  C      0.077310   -1.999970   -0.431830
  C      1.143600   -2.792280   -0.886310
  C      3.550670   -3.699670   -0.319670
  C      4.163680   -3.683800    1.078700
  C      3.427540   -2.856940    1.916470
  C      5.220780   -4.341540    1.734690
  C      5.276790   -4.034160    3.094600
  S      4.024850   -2.861840    3.533790
  C     -1.148270   -0.489710    1.049510
  C     -1.942270   -0.846030   -0.204610
  C     -1.216660   -1.710770   -1.008900
  C     -3.202910   -0.512150   -0.738100
  C     -3.462130   -1.189460   -1.927070
  S     -2.089380   -2.187960   -2.416510
  C      6.129710   -4.622380    4.102050
  C     -4.709110   -1.235880   -2.660510
  C     -1.815810   -0.970700    2.345560
  C     -0.924920    1.029240    1.023860
  C      3.296710   -5.106560   -0.874200
  C      4.480980   -2.918540   -1.275290
  C      6.060590   -4.292420    5.464840
  C      6.847920   -4.906230    6.460350
  C      7.796640   -5.897980    6.176730
  C      7.891330   -6.248400    4.793380
  C      7.087360   -5.641000    3.784380
  C     -5.109290   -2.348750   -3.409350
  C     -6.395740   -2.477760   -3.968410
  C     -7.389650   -1.498550   -3.841790
  C     -6.956750   -0.294370   -3.200980
  C     -5.661580   -0.171010   -2.612640
  N      8.669500   -7.176850    4.207140
  N      8.329570   -7.103900    2.931820
  N      7.402230   -6.221480    2.606140
  N     -7.616960    0.861290   -2.999910
  N     -6.742780    1.603930   -2.337650
  N     -5.569260    1.060150   -2.069790
  C      8.660100   -6.570120    7.112970
  C      8.610610   -6.647250    8.468470
  C     -8.777530   -1.657710   -4.193230
  C     -9.458370   -2.805390   -4.456300
  C     -7.026320    2.987180   -2.001270
  C      8.960900   -7.942560    1.931140
  C    -10.929070   -2.814490   -4.603460
  N    -11.397180   -4.153510   -4.677360
  C    -10.439280   -5.122010   -4.661270
  S     -8.819040   -4.445800   -4.509520
  C      9.610060   -7.438020    9.215320
  N      9.264670   -7.483800   10.590180
  C      8.142040   -6.797830   10.944710
  S      7.395220   -5.993570    9.561410
  C     10.104400   -8.259970   11.499430
  O     10.583650   -7.994370    8.761720
  C      7.565170   -6.677720   12.201300
  C      6.363130   -5.914750   12.323370
  C      8.082630   -7.270390   13.390840
  C      3.209150   -6.227630   -0.042450
  C      3.033290   -7.506750   -0.579510
  C      2.924260   -7.709100   -1.960670
  C      2.964850   -6.575290   -2.787400
  C      3.148830   -5.300330   -2.256920
  C      4.127250   -1.704870   -1.872230
  C      4.996220   -1.061520   -2.760310
  C      6.246360   -1.603320   -3.078470
  C      6.600060   -2.819530   -2.470240
  C      5.738090   -3.461760   -1.585400
  C     -2.760830   -2.001900    2.345780
  C     -3.294730   -2.487560    3.543180
  C     -2.900960   -1.964100    4.781080
  C     -1.950210   -0.929230    4.775320
  C     -1.419390   -0.439810    3.583130
  C      0.221350    1.610900    0.472570
  C      0.317410    2.999020    0.323910
  C     -0.724730    3.848010    0.716240
  C     -1.862560    3.259240    1.293330
  C     -1.963280    1.878760    1.441010
  O    -11.666450   -1.856150   -4.625070
  C    -12.833450   -4.404980   -4.728380
  C    -10.591380   -6.498740   -4.746400
  C     -9.411750   -7.305120   -4.699820
  C    -11.834580   -7.184170   -4.881990
  N      5.383220   -5.293210   12.392540
  N      8.484530   -7.744110   14.373280
  N    -12.825010   -7.783240   -4.990040
  N     -8.433600   -7.931970   -4.660480
  C     -3.471760   -2.489070    6.074920
  C     -0.655860    5.338650    0.504600
  C      7.191330   -0.897070   -4.016670
  C      2.777400   -9.088210   -2.550850
  H      1.234090   -1.040250    2.658360
  H      1.099470   -3.294730   -1.853630
  H      5.899310   -5.062260    1.285540
  H     -3.925470    0.162190   -0.282520
  H      5.354720   -3.522100    5.783410
  H      6.716940   -4.553890    7.485040
  H     -4.422290   -3.191490   -3.510480
  H     -6.606410   -3.399870   -4.509150
  H      9.479070   -7.146700    6.670790
  H     -9.400130   -0.758830   -4.147730
  H     -8.100340    3.152360   -2.139570
  H     -6.457270    3.655180   -2.663310
  H     -6.728230    3.175100   -0.961610
  H      9.600680   -8.659040    2.457480
  H      9.563740   -7.322160    1.251940
  H      8.188210   -8.466520    1.352630
  H     10.892920   -8.706290   10.882620
  H      9.519600   -9.049010   11.988940
  H     10.550450   -7.613460   12.266290
  H      3.303500   -6.109230    1.038300
  H      2.994660   -8.367650    0.093410
  H      2.870450   -6.696630   -3.870540
  H      3.218840   -4.445230   -2.931360
  H      3.158860   -1.252430   -1.660280
  H      4.683780   -0.121520   -3.223400
  H      7.565040   -3.276310   -2.706870
  H      6.035120   -4.415130   -1.144500
  H     -3.087120   -2.438210    1.400550
  H     -4.034080   -3.292440    3.512190
  H     -1.619970   -0.493010    5.722720
  H     -0.695460    0.377810    3.610780
  H      1.046620    0.977730    0.142900
  H      1.221120    3.429370   -0.116970
  H     -2.687630    3.895150    1.626730
  H     -2.862300    1.448760    1.887420
  H    -13.323740   -3.427880   -4.649350
  H    -13.141470   -5.047800   -3.893470
  H    -13.115450   -4.887330   -5.673820
  H     -4.237330   -3.257510    5.895570
  H     -3.934610   -1.682060    6.667050
  H     -2.684950   -2.939440    6.703740
  H      0.352720    5.663080    0.208470
  H     -0.944050    5.891360    1.413360
  H     -1.351640    5.653870   -0.291260
  H      6.648900   -0.247780   -4.720730
  H      7.793060   -1.610110   -4.602050
  H      7.897850   -0.258050   -3.457570
  H      2.914560   -9.869250   -1.788660
  H      3.517010   -9.261710   -3.348800
  H      1.781500   -9.228140   -3.004710

----------------------------
CARTESIAN COORDINATES (A.U.)
----------------------------
  NO LB      ZA    FRAG     MASS         X           Y           Z
   0 C     6.0000    0    12.011    4.240167   -5.538617   -0.104464
   1 C     6.0000    0    12.011    4.257232   -4.427496    2.345925
   2 C     6.0000    0    12.011    2.285983   -2.847874    3.160284
   3 C     6.0000    0    12.011    0.254244   -2.489336    1.540183
   4 C     6.0000    0    12.011    0.146095   -3.779396   -0.816040
   5 C     6.0000    0    12.011    2.161091   -5.276644   -1.674883
   6 C     6.0000    0    12.011    6.709794   -6.991363   -0.604089
   7 C     6.0000    0    12.011    7.868215   -6.961373    2.038448
   8 C     6.0000    0    12.011    6.477112   -5.398834    3.621603
   9 C     6.0000    0    12.011    9.865844   -8.204322    3.278089
  10 C     6.0000    0    12.011    9.971688   -7.623458    5.847946
  11 S    16.0000    0    32.060    7.605864   -5.408094    6.677895
  12 C     6.0000    0    12.011   -2.169916   -0.925418    1.983286
  13 C     6.0000    0    12.011   -3.670358   -1.598765   -0.386657
  14 C     6.0000    0    12.011   -2.299154   -3.232887   -1.906545
  15 C     6.0000    0    12.011   -6.052623   -0.967823   -1.394807
  16 C     6.0000    0    12.011   -6.542478   -2.247754   -3.641635
  17 S    16.0000    0    32.060   -3.948356   -4.134645   -4.566542
  18 C     6.0000    0    12.011   11.583473   -8.735032    7.751751
  19 C     6.0000    0    12.011   -8.898928   -2.335475   -5.027635
  20 C     6.0000    0    12.011   -3.431384   -1.834357    4.432466
  21 C     6.0000    0    12.011   -1.747845    1.944982    1.934815
  22 C     6.0000    0    12.011    6.229879   -9.650000   -1.651999
  23 C     6.0000    0    12.011    8.467825   -5.515241   -2.409949
  24 C     6.0000    0    12.011   11.452855   -8.111498   10.327051
  25 C     6.0000    0    12.011   12.940693   -9.271431   12.208292
  26 C     6.0000    0    12.011   14.733514  -11.145567   11.672328
  27 C     6.0000    0    12.011   14.912453  -11.807765    9.058175
  28 C     6.0000    0    12.011   13.393169  -10.659945    7.151442
  29 C     6.0000    0    12.011   -9.655159   -4.438494   -6.442738
  30 C     6.0000    0    12.011  -12.086197   -4.682288   -7.499208
  31 C     6.0000    0    12.011  -13.964415   -2.831849   -7.259931
  32 C     6.0000    0    12.011  -13.146352   -0.556279   -6.048976
  33 C     6.0000    0    12.011  -10.698836   -0.323162   -4.937174
  34 N     7.0000    0    14.007   16.382981  -13.562281    7.950342
  35 N     7.0000    0    14.007   15.740606  -13.424425    5.540337
  36 N     7.0000    0    14.007   13.988187  -11.756893    4.924891
  37 N     7.0000    0    14.007  -14.393968    1.627602   -5.669008
  38 N     7.0000    0    14.007  -12.742008    3.030988   -4.417518
  39 N     7.0000    0    14.007  -10.524376    2.003393   -3.911336
  40 C     6.0000    0    12.011   16.365217  -12.415727   13.441565
  41 C     6.0000    0    12.011   16.271695  -12.561482   16.003089
  42 C     6.0000    0    12.011  -16.587128   -3.132618   -7.924056
  43 C     6.0000    0    12.011  -17.873729   -5.301419   -8.421187
  44 C     6.0000    0    12.011  -13.277821    5.644952   -3.781852
  45 C     6.0000    0    12.011   16.933647  -15.009263    3.649326
  46 C     6.0000    0    12.011  -20.652949   -5.318615   -8.699279
  47 N     7.0000    0    14.007  -21.537549   -7.848996   -8.838929
  48 C     6.0000    0    12.011  -19.727380   -9.679196   -8.808524
  49 S    16.0000    0    32.060  -16.665570   -8.401344   -8.521758
  50 C     6.0000    0    12.011   18.160382  -14.055821   17.414431
  51 N     7.0000    0    14.007   17.507689  -14.142332   20.012540
  52 C     6.0000    0    12.011   15.386226  -12.846037   20.682505
  53 S    16.0000    0    32.060   13.974941  -11.326206   18.068446
  54 C     6.0000    0    12.011   19.094549  -15.609081   21.730773
  55 O     8.0000    0    15.999   20.000200  -15.107170   16.557251
  56 C     6.0000    0    12.011   14.296099  -12.619062   23.057115
  57 C     6.0000    0    12.011   12.024573  -11.177258   23.287794
  58 C     6.0000    0    12.011   15.273957  -13.739046   25.305020
  59 C     6.0000    0    12.011    6.064415  -11.768515   -0.080219
  60 C     6.0000    0    12.011    5.732087  -14.185702   -1.095115
  61 C     6.0000    0    12.011    5.526051  -14.568088   -3.705129
  62 C     6.0000    0    12.011    5.602755  -12.425497   -5.267423
  63 C     6.0000    0    12.011    5.950426  -10.016172   -4.264961
  64 C     6.0000    0    12.011    7.799372   -3.221737   -3.538002
  65 C     6.0000    0    12.011    9.441488   -2.005982   -5.216230
  66 C     6.0000    0    12.011   11.803910   -3.029836   -5.817465
  67 C     6.0000    0    12.011   12.472306   -5.328140   -4.668077
  68 C     6.0000    0    12.011   10.843419   -6.541778   -2.995972
  69 C     6.0000    0    12.011   -5.217213   -3.783043    4.432882
  70 C     6.0000    0    12.011   -6.226137   -4.700807    6.695640
  71 C     6.0000    0    12.011   -5.482020   -3.711611    9.034932
  72 C     6.0000    0    12.011   -3.685363   -1.755990    9.024047
  73 C     6.0000    0    12.011   -2.682258   -0.831120    6.771134
  74 C     6.0000    0    12.011    0.418291    3.044160    0.893028
  75 C     6.0000    0    12.011    0.599818    5.667326    0.612101
  76 C     6.0000    0    12.011   -1.369541    7.271685    1.353497
  77 C     6.0000    0    12.011   -3.519728    6.159071    2.444040
  78 C     6.0000    0    12.011   -3.710062    3.550342    2.723114
  79 O     8.0000    0    15.999  -22.046395   -3.507615   -8.740116
  80 C     6.0000    0    12.011  -24.251706   -8.324206   -8.935343
  81 C     6.0000    0    12.011  -20.014808  -12.280839   -8.969396
  82 C     6.0000    0    12.011  -17.785630  -13.804676   -8.881373
  83 C     6.0000    0    12.011  -22.364115  -13.576114   -9.225624
  84 N     7.0000    0    14.007   10.172812  -10.002717   23.418507
  85 N     7.0000    0    14.007   16.033438  -14.634247   27.161563
  86 N     7.0000    0    14.007  -24.235757  -14.708192   -9.429809
  87 N     7.0000    0    14.007  -15.937194  -14.989251   -8.807031
  88 C     6.0000    0    12.011   -6.560676   -4.703661   11.479935
  89 C     6.0000    0    12.011   -1.239396   10.088586    0.953556
  90 C     6.0000    0    12.011   13.589644   -1.695217   -7.590406
  91 C     6.0000    0    12.011    5.248525  -17.174228   -4.820408
  92 H     1.0000    0     1.008    2.332092   -1.965788    5.023572
  93 H     1.0000    0     1.008    2.077697   -6.226137   -3.502853
  94 H     1.0000    0     1.008   11.148080   -9.566285    2.429319
  95 H     1.0000    0     1.008   -7.418063    0.306495   -0.533885
  96 H     1.0000    0     1.008   10.118954   -6.655804   10.929061
  97 H     1.0000    0     1.008   12.693177   -8.605605   14.144676
  98 H     1.0000    0     1.008   -8.356917   -6.031042   -6.633846
  99 H     1.0000    0     1.008  -12.484306   -6.424823   -8.521059
 100 H     1.0000    0     1.008   17.912846  -13.505306   12.605966
 101 H     1.0000    0     1.008  -17.763671   -1.433981   -7.838074
 102 H     1.0000    0     1.008  -15.307424    5.957097   -4.043201
 103 H     1.0000    0     1.008  -12.202472    6.907289   -5.032927
 104 H     1.0000    0     1.008  -12.714512    6.000069   -1.817180
 105 H     1.0000    0     1.008   18.142656  -16.363214    4.643964
 106 H     1.0000    0     1.008   18.072849  -13.836877    2.365824
 107 H     1.0000    0     1.008   15.473474  -15.999404    2.556100
 108 H     1.0000    0     1.008   20.584636  -16.452504   20.565171
 109 H     1.0000    0     1.008   17.989437  -17.100151   22.655813
 110 H     1.0000    0     1.008   19.937461  -14.387354   23.179929
 111 H     1.0000    0     1.008    6.242710  -11.544772    1.962103
 112 H     1.0000    0     1.008    5.659087  -15.812567    0.176519
 113 H     1.0000    0     1.008    5.424364  -12.654797   -7.314261
 114 H     1.0000    0     1.008    6.082726   -8.400267   -5.539468
 115 H     1.0000    0     1.008    5.969380   -2.366750   -3.137475
 116 H     1.0000    0     1.008    8.851061   -0.229640   -6.091343
 117 H     1.0000    0     1.008   14.295854   -6.191329   -5.115243
 118 H     1.0000    0     1.008   11.404724   -8.343387   -2.162792
 119 H     1.0000    0     1.008   -5.833811   -4.607549    2.646656
 120 H     1.0000    0     1.008   -7.623306   -6.221810    6.637077
 121 H     1.0000    0     1.008   -3.061300   -0.931654   10.814374
 122 H     1.0000    0     1.008   -1.314229    0.713957    6.823385
 123 H     1.0000    0     1.008    1.977825    1.847642    0.270042
 124 H     1.0000    0     1.008    2.307582    6.480570   -0.221041
 125 H     1.0000    0     1.008   -5.078885    7.360767    3.074074
 126 H     1.0000    0     1.008   -5.408963    2.737760    3.566707
 127 H     1.0000    0     1.008  -25.178220   -6.477754   -8.785998
 128 H     1.0000    0     1.008  -24.833779   -9.538960   -7.357592
 129 H     1.0000    0     1.008  -24.784609   -9.235715  -10.721966
 130 H     1.0000    0     1.008   -8.007393   -6.155802   11.141013
 131 H     1.0000    0     1.008   -7.435335   -3.178633   12.598899
 132 H     1.0000    0     1.008   -5.073820   -5.554737   12.668233
 133 H     1.0000    0     1.008    0.666544   10.701670    0.393951
 134 H     1.0000    0     1.008   -1.783996   11.133057    2.670863
 135 H     1.0000    0     1.008   -2.554229   10.684266   -0.550402
 136 H     1.0000    0     1.008   12.564600   -0.468236   -8.920887
 137 H     1.0000    0     1.008   14.726749   -3.042667   -8.696614
 138 H     1.0000    0     1.008   14.924774   -0.487644   -6.533860
 139 H     1.0000    0     1.008    5.507720  -18.650180   -3.380078
 140 H     1.0000    0     1.008    6.646186  -17.502095   -6.328315
 141 H     1.0000    0     1.008    3.366547  -17.438657   -5.678079

--------------------------------
INTERNAL COORDINATES (ANGSTROEM)
--------------------------------
 C      0   0   0     0.000000000000     0.00000000     0.00000000
 C      1   0   0     1.423800188720     0.00000000     0.00000000
 C      2   1   0     1.404485369522   121.36651007     0.00000000
 C      3   2   1     1.388143572474   117.84631063     2.82406076
 C      4   3   2     1.422664212455   120.45447137     2.67594935
 C      1   2   3     1.385737773823   120.65621508   354.08652199
 C      1   2   3     1.539091682324   110.93653686   175.16912043
 C      7   1   2     1.526915771711   100.27553278    10.14303667
 C      8   7   1     1.388329259254   110.24000887   351.51112699
 C      8   7   1     1.407268701315   136.35380296   167.15287954
 C     10   8   7     1.395340385927   112.42658980   185.64806252
 S      9   8   7     1.724101861405   112.37537267   177.04391926
 C      4   3   2     1.544502371186   128.51849739   178.21321685
 C     13   4   3     1.526504804054   100.49859826   186.14956343
 C     14  13   4     1.386061883106   110.49094162   359.30640929
 C     14  13   4     1.409006970920   136.14761571   179.76278611
 C     16  14  13     1.392692897016   111.99529784   182.75434898
 S     15  14  13     1.723576632065   112.42974635   178.09585782
 C     11  10   8     1.445140407469   127.83964067   172.96907365
 C     17  16  14     1.447428122706   127.48444701   171.21866959
 C     13   4   3     1.535156876088   108.75030952   305.25278371
 C     13   4   3     1.535497394169   113.99813757    72.03844567
 C      7   1   2     1.533407537023   112.31949523   131.59564410
 C      7   1   2     1.545590617660   111.39943453   255.33277836
 C     19  11  10     1.403868854309   123.50463884   183.53000052
 C     25  19  11     1.409855100746   123.75364761   177.02166520
 C     26  25  19     1.401455673684   122.90429347     1.02167428
 C     27  26  25     1.430180965822   114.45366542   359.34629620
 C     28  27  26     1.425967573579   122.86927699   359.95915300
 C     20  17  16     1.399780345233   122.87943757   211.82674834
 C     30  20  17     1.408596914025   123.10922139   170.75668489
 C     31  30  20     1.400978920826   123.23228210     0.80384764
 C     32  31  30     1.431114718847   114.45531326     5.49116187
 C     33  32  31     1.427874985459   122.11168198   353.41847667
 N     28  27  26     1.345825133143   128.95053911   181.90469976
 N     35  28  27     1.321860510720   103.50305222   178.31295468
 N     36  35  28     1.320867894379   117.08402564   359.94876164
 N     33  32  31     1.346052162659   129.86146057   175.13570285
 N     38  33  32     1.324497319590   103.43593261   178.69832368
 N     39  38  33     1.320831124103   117.19130062   359.65241311
 C     27  26  25     1.440097458091   127.20065905   179.03443816
 C     41  27  26     1.358594327605   130.79071801    15.40277610
 C     32  31  30     1.440504381666   125.74977807   190.86327300
 C     43  32  31     1.360117021767   128.51411365    14.07900520
 C     39  38  33     1.451525748480   121.41745659   175.50050152
 C     36  35  28     1.450271914815   121.45582093   179.08625445
 C     44  43  32     1.478072178752   121.50210845   170.63721862
 N     47  44  43     1.420409357369   109.80987114   188.47454240
 C     48  47  44     1.362286147658   115.96703827   357.20539174
 S     44  43  32     1.761397225330   127.58962443   357.22257390
 C     42  41  27     1.477160254644   120.67661232   178.50254895
 N     51  42  41     1.418319456293   110.03650762   186.34688087
 C     52  51  42     1.362550725184   115.88803874   358.80169050
 S     42  41  27     1.760394341646   128.57249372     3.23499774
 C     52  51  42     1.460931861621   118.71684770   177.89630496
 O     51  42  41     1.209609759633   126.95635659     5.52042346
 C     53  52  51     1.387884662751   128.43374074   179.38047085
 C     57  53  52     1.428959225241   118.24183526   181.00898310
 C     57  53  52     1.426193532484   124.63819466     0.64180909
 C     23   7   1     1.398668209762   122.05343250   266.81996600
 C     60  23   7     1.398394850391   120.84031836   182.72937143
 C     61  60  23     1.400155708841   121.38794084   359.28860940
 C     62  61  60     1.403800255414   117.51345985   358.46280810
 C     63  62  61     1.393119044590   121.24732200     1.96703740
 C     24   7   1     1.398019007525   123.39821320   356.62859257
 C     65  24   7     1.399176246868   120.86720445   181.87027860
 C     66  65  24     1.399150830039   121.41233352   359.76721620
 C     67  66  65     1.405067324721   117.49508880   359.88686240
 C     68  67  66     1.392262000990   121.23487256     0.06690381
 C     21  13   4     1.398726666937   121.66218068   270.18396228
 C     70  21  13     1.398099283170   120.94652100   175.78048086
 C     71  70  21     1.400521900757   121.31883620   359.79181784
 C     72  71  70     1.405316568251   117.50514434     0.13463638
 C     73  72  71     1.393778606845   121.31533941     0.08322565
 C     22  13   4     1.398636454766   122.49261076    17.17734635
 C     75  22  13     1.399358586496   120.70843850   172.33669550
 C     76  75  22     1.400272340868   121.37118288   359.84790413
 C     77  76  75     1.405112127163   117.62546001     1.36445074
 C     78  77  76     1.392005363208   121.17914042   358.52834223
 O     47  44  43     1.209384889975   127.12631259     6.54284626
 C     48  47  44     1.459010525733   119.25669374   175.62487791
 C     49  48  47     1.387720079771   128.86691318   181.41863869
 C     82  49  48     1.429666163025   117.84834039   180.26741881
 C     82  49  48     1.426094377312   125.32461763     0.48610836
 N     58  57  53     1.162462932140   178.51066202    10.48272149
 N     59  57  53     1.162377994458   178.74527464   182.12573372
 N     84  82  49     1.162545161402   177.70873064   183.41527992
 N     83  82  49     1.162439667510   178.29727613   357.49215247
 C     72  71  70     1.508452215518   121.44399396   180.20525831
 C     77  76  75     1.507163619552   121.75609449   182.73921363
 C     67  66  65     1.507307733477   121.34948598   181.08329254
 C     62  61  60     1.507257338380   121.74006631   178.07335042
 H      3   2   1     1.091189556631   121.01366581   181.48041394
 H      6   1   2     1.090922289533   121.18453720   184.18373615
 H     10   8   7     1.087003220694   125.88638119     1.94042760
 H     16  14  13     1.088292481643   125.61632136     0.65878788
 H     25  19  11     1.092305911455   118.73015326   357.45901883
 H     26  25  19     1.091461786825   117.08749424   179.03336174
 H     30  20  17     1.091973893690   118.89820462   355.21340574
 H     31  30  20     1.089526708530   116.81340148   181.65904444
 H     41  27  26     1.094842230506   115.57755631   193.10295823
 H     43  32  31     1.094388534479   116.56579677   187.20947589
 H     45  39  38     1.095413293146   107.81626254    14.88859803
 H     45  39  38     1.099244678905   109.78021002   255.22053970
 H     45  39  38     1.097754294048   109.24259288   135.73208353
 H     46  36  35     1.095306274245   107.51621698     7.24494514
 H     46  36  35     1.099829471145   109.78639555   247.33303631
 H     46  36  35     1.098297654463   109.45450620   127.43957565
 H     55  52  51     1.096093020186   106.23638165   358.92476544
 H     55  52  51     1.097358283197   110.69095710   239.56273094
 H     55  52  51     1.097729494092   110.82061922   118.28486886
 H     60  23   7     1.091302453493   119.77195883     1.20663543
 H     61  60  23     1.093372037918   119.22871129   178.39959289
 H     63  62  61     1.093995893594   119.40641720   180.72007744
 H     64  63  62     1.091314218592   119.35613767   177.36141322
 H     65  24   7     1.089680663406   120.14963362     1.02723591
 H     66  65  24     1.093467467143   119.11878967   179.01191688
 H     68  67  66     1.093539265733   119.34251438   179.24988342
 H     69  68  67     1.091574087179   119.41399332   178.83936374
 H     70  21  13     1.091004735599   119.78592077   355.93294090
 H     71  70  21     1.093357497345   119.31928350   179.82090972
 H     73  72  71     1.094035239835   119.62275667   179.83086249
 H     74  73  72     1.092401772152   119.57459175   178.88947590
 H     75  22  13     1.091172365257   119.84231337   353.06768961
 H     76  75  22     1.093740399272   119.33057125   180.46087836
 H     78  77  76     1.093744756787   119.50056513   178.95100814
 H     79  78  77     1.091979326041   119.56834113   180.38140126
 H     81  48  47     1.096063152834   106.50961155   357.38471268
 H     81  48  47     1.097801703815   110.52001586   237.95061160
 H     81  48  47     1.098199579357   111.01354238   116.87997343
 H     89  72  71     1.099437984154   111.51935656   356.95109722
 H     89  72  71     1.102775226191   111.38866645   236.37819893
 H     89  72  71     1.103321215875   111.16520716   117.17353028
 H     90  77  76     1.100082459727   111.80047413   348.78413832
 H     90  77  76     1.101992086088   111.61122173   227.31620713
 H     90  77  76     1.103116764626   110.80015308   108.60805886
 H     91  67  66     1.100685374028   111.44352949   333.84452242
 H     91  67  66     1.101442135974   111.71403042   212.76412825
 H     91  67  66     1.104585841300   110.91654970    93.35231075
 H     92  62  61     1.099895423802   111.48411753   351.82857915
 H     92  62  61     1.101748339958   111.23961126   231.41811122
 H     92  62  61     1.103352216883   111.41083151   112.44895748

---------------------------
INTERNAL COORDINATES (A.U.)
---------------------------
 C      0   0   0     0.000000000000     0.00000000     0.00000000
 C      1   0   0     2.690592426107     0.00000000     0.00000000
 C      2   1   0     2.654092707495   121.36651007     0.00000000
 C      3   2   1     2.623211186538   117.84631063     2.82406076
 C      4   3   2     2.688445742071   120.45447137     2.67594935
 C      1   2   3     2.618664885955   120.65621508   354.08652199
 C      1   2   3     2.908461774589   110.93653686   175.16912043
 C      7   1   2     2.885452638099   100.27553278    10.14303667
 C      8   7   1     2.623562083699   110.24000887   351.51112699
 C      8   7   1     2.659352442324   136.35380296   167.15287954
 C     10   8   7     2.636811193003   112.42658980   185.64806252
 S      9   8   7     3.258080345039   112.37537267   177.04391926
 C      4   3   2     2.918686494734   128.51849739   178.21321685
 C     13   4   3     2.884676021777   100.49859826   186.14956343
 C     14  13   4     2.619277363738   110.49094162   359.30640929
 C     14  13   4     2.662637295824   136.14761571   179.76278611
 C     16  14  13     2.631808164018   111.99529784   182.75434898
 S     15  14  13     3.257087805429   112.42974635   178.09585782
 C     11  10   8     2.730919595180   127.83964067   172.96907365
 C     17  16  14     2.735242750450   127.48444701   171.21866959
 C     13   4   3     2.901026068412   108.75030952   305.25278371
 C     13   4   3     2.901669554329   113.99813757    72.03844567
 C      7   1   2     2.897720296665   112.31949523   131.59564410
 C      7   1   2     2.920742982536   111.39943453   255.33277836
 C     19  11  10     2.652927662587   123.50463884   183.53000052
 C     25  19  11     2.664240028922   123.75364761   177.02166520
 C     26  25  19     2.648367412092   122.90429347     1.02167428
 C     27  26  25     2.702650347351   114.45366542   359.34629620
 C     28  27  26     2.694688189917   122.86927699   359.95915300
 C     20  17  16     2.645201500136   122.87943757   211.82674834
 C     30  20  17     2.661862400593   123.10922139   170.75668489
 C     31  30  20     2.647466479759   123.23228210     0.80384764
 C     32  31  30     2.704414884844   114.45531326     5.49116187
 C     33  32  31     2.698292675995   122.11168198   353.41847667
 N     28  27  26     2.543240925789   128.95053911   181.90469976
 N     35  28  27     2.497954352505   103.50305222   178.31295468
 N     36  35  28     2.496078579465   117.08402564   359.94876164
 N     33  32  31     2.543669949399   129.86146057   175.13570285
 N     38  33  32     2.502937199137   103.43593261   178.69832368
 N     39  38  33     2.496009093715   117.19130062   359.65241311
 C     27  26  25     2.721389801948   127.20065905   179.03443816
 C     41  27  26     2.567371206272   130.79071801    15.40277610
 C     32  31  30     2.722158776063   125.74977807   190.86327300
 C     43  32  31     2.570248681224   128.51411365    14.07900520
 C     39  38  33     2.742986140962   121.41745659   175.50050152
 C     36  35  28     2.740616738717   121.45582093   179.08625445
 C     44  43  32     2.793151624009   121.50210845   170.63721862
 N     47  44  43     2.684184683486   109.80987114   188.47454240
 C     48  47  44     2.574347735108   115.96703827   357.20539174
 S     44  43  32     3.328558368922   127.58962443   357.22257390
 C     42  41  27     2.791428337191   120.67661232   178.50254895
 N     51  42  41     2.680235342806   110.03650762   186.34688087
 C     52  51  42     2.574847714174   115.88803874   358.80169050
 S     42  41  27     3.326663193416   128.57249372     3.23499774
 C     52  51  42     2.760761118784   118.71684770   177.89630496
 O     51  42  41     2.285831174625   126.95635659     5.52042346
 C     53  52  51     2.622721918069   128.43374074   179.38047085
 C     57  53  52     2.700341592245   118.24183526   181.00898310
 C     57  53  52     2.695115190365   124.63819466     0.64180909
 C     23   7   1     2.643099868673   122.05343250   266.81996600
 C     60  23   7     2.642583294325   120.84031836   182.72937143
 C     61  60  23     2.645910834556   121.38794084   359.28860940
 C     62  61  60     2.652798029461   117.51345985   358.46280810
 C     63  62  61     2.632613466226   121.24732200     1.96703740
 C     24   7   1     2.641873054238   123.39821320   356.62859257
 C     65  24   7     2.644059919669   120.86720445   181.87027860
 C     66  65  24     2.644011888823   121.41233352   359.76721620
 C     67  66  65     2.655192443445   117.49508880   359.88686240
 C     68  67  66     2.630993888536   121.23487256     0.06690381
 C     21  13   4     2.643210336723   121.66218068   270.18396228
 C     70  21  13     2.642024753223   120.94652100   175.78048086
 C     71  70  21     2.646602836990   121.31883620   359.79181784
 C     72  71  70     2.655663445456   117.50514434     0.13463638
 C     73  72  71     2.633859858256   121.31533941     0.08322565
 C     22  13   4     2.643039860426   122.49261076    17.17734635
 C     75  22  13     2.644404491629   120.70843850   172.33669550
 C     76  75  22     2.646131237145   121.37118288   359.84790413
 C     77  76  75     2.655277107789   117.62546001     1.36445074
 C     78  77  76     2.630508913413   121.17914042   358.52834223
 O     47  44  43     2.285406232555   127.12631259     6.54284626
 C     48  47  44     2.757130320144   119.25669374   175.62487791
 C     49  48  47     2.622410901311   128.86691318   181.41863869
 C     82  49  48     2.701677511052   117.84834039   180.26741881
 C     82  49  48     2.694927814244   125.32461763     0.48610836
 N     58  57  53     2.196736582580   178.51066202    10.48272149
 N     59  57  53     2.196576073622   178.74527464   182.12573372
 N     84  82  49     2.196891973366   177.70873064   183.41527992
 N     83  82  49     2.196692618800   178.29727613   357.49215247
 C     72  71  70     2.850561573435   121.44399396   180.20525831
 C     77  76  75     2.848126479962   121.75609449   182.73921363
 C     67  66  65     2.848398815813   121.34948598   181.08329254
 C     62  61  60     2.848303582881   121.74006631   178.07335042
 H      3   2   1     2.062049422227   121.01366581   181.48041394
 H      6   1   2     2.061544360608   121.18453720   184.18373615
 H     10   8   7     2.054138393803   125.88638119     1.94042760
 H     16  14  13     2.056574743910   125.61632136     0.65878788
 H     25  19  11     2.064159027114   118.73015326   357.45901883
 H     26  25  19     2.062563862740   117.08749424   179.03336174
 H     30  20  17     2.063531604465   118.89820462   355.21340574
 H     31  30  20     2.058907094714   116.81340148   181.65904444
 H     41  27  26     2.068951975508   115.57755631   193.10295823
 H     43  32  31     2.068094614270   116.56579677   187.20947589
 H     45  39  38     2.070031127502   107.81626254    14.88859803
 H     45  39  38     2.077271397300   109.78021002   255.22053970
 H     45  39  38     2.074454978086   109.24259288   135.73208353
 H     46  36  35     2.069828891088   107.51621698     7.24494514
 H     46  36  35     2.078376494480   109.78639555   247.33303631
 H     46  36  35     2.075481780464   109.45450620   127.43957565
 H     55  52  51     2.071315625454   106.23638165   358.92476544
 H     55  52  51     2.073706626031   110.69095710   239.56273094
 H     55  52  51     2.074408112962   110.82061922   118.28486886
 H     60  23   7     2.062262766378   119.77195883     1.20663543
 H     61  60  23     2.066173714152   119.22871129   178.39959289
 H     63  62  61     2.067352630527   119.40641720   180.72007744
 H     64  63  62     2.062284999192   119.35613767   177.36141322
 H     65  24   7     2.059198027266   120.14963362     1.02723591
 H     66  65  24     2.066354049253   119.11878967   179.01191688
 H     68  67  66     2.066489728925   119.34251438   179.24988342
 H     69  68  67     2.062776079653   119.41399332   178.83936374
 H     70  21  13     2.061700161094   119.78592077   355.93294090
 H     71  70  21     2.066146236451   119.31928350   179.82090972
 H     73  72  71     2.067426984146   119.62275667   179.83086249
 H     74  73  72     2.064340177577   119.57459175   178.88947590
 H     75  22  13     2.062016935238   119.84231337   353.06768961
 H     76  75  22     2.066869816230   119.33057125   180.46087836
 H     78  77  76     2.066878050741   119.50056513   178.95100814
 H     79  78  77     2.063541870121   119.56834113   180.38140126
 H     81  48  47     2.071259184338   106.50961155   357.38471268
 H     81  48  47     2.074544569563   110.52001586   237.95061160
 H     81  48  47     2.075296445372   111.01354238   116.87997343
 H     89  72  71     2.077636691281   111.51935656   356.95109722
 H     89  72  71     2.083943164774   111.38866645   236.37819893
 H     89  72  71     2.084974935749   111.16520716   117.17353028
 H     90  77  76     2.078854573615   111.80047413   348.78413832
 H     90  77  76     2.082463244454   111.61122173   227.31620713
 H     90  77  76     2.084588578881   110.80015308   108.60805886
 H     91  67  66     2.079993916526   111.44352949   333.84452242
 H     91  67  66     2.081423989353   111.71403042   212.76412825
 H     91  67  66     2.087364731464   110.91654970    93.35231075
 H     92  62  61     2.078501126939   111.48411753   351.82857915
 H     92  62  61     2.082002631023   111.23961126   231.41811122
 H     92  62  61     2.085033519163   111.41083151   112.44895748

---------------------
BASIS SET INFORMATION
---------------------
There are 5 groups of distinct atoms

 Group   1 Type C   : 11s6p2d1f contracted to 5s3p2d1f pattern {62111/411/11/1}
 Group   2 Type S   : 14s9p3d1f contracted to 5s5p2d1f pattern {73211/51111/21/1}
 Group   3 Type N   : 11s6p2d1f contracted to 5s3p2d1f pattern {62111/411/11/1}
 Group   4 Type O   : 11s6p2d1f contracted to 5s3p2d1f pattern {62111/411/11/1}
 Group   5 Type H   : 5s1p contracted to 3s1p pattern {311/1}

Atom   0C    basis set group =>   1
Atom   1C    basis set group =>   1
Atom   2C    basis set group =>   1
Atom   3C    basis set group =>   1
Atom   4C    basis set group =>   1
Atom   5C    basis set group =>   1
Atom   6C    basis set group =>   1
Atom   7C    basis set group =>   1
Atom   8C    basis set group =>   1
Atom   9C    basis set group =>   1
Atom  10C    basis set group =>   1
Atom  11S    basis set group =>   2
Atom  12C    basis set group =>   1
Atom  13C    basis set group =>   1
Atom  14C    basis set group =>   1
Atom  15C    basis set group =>   1
Atom  16C    basis set group =>   1
Atom  17S    basis set group =>   2
Atom  18C    basis set group =>   1
Atom  19C    basis set group =>   1
Atom  20C    basis set group =>   1
Atom  21C    basis set group =>   1
Atom  22C    basis set group =>   1
Atom  23C    basis set group =>   1
Atom  24C    basis set group =>   1
Atom  25C    basis set group =>   1
Atom  26C    basis set group =>   1
Atom  27C    basis set group =>   1
Atom  28C    basis set group =>   1
Atom  29C    basis set group =>   1
Atom  30C    basis set group =>   1
Atom  31C    basis set group =>   1
Atom  32C    basis set group =>   1
Atom  33C    basis set group =>   1
Atom  34N    basis set group =>   3
Atom  35N    basis set group =>   3
Atom  36N    basis set group =>   3
Atom  37N    basis set group =>   3
Atom  38N    basis set group =>   3
Atom  39N    basis set group =>   3
Atom  40C    basis set group =>   1
Atom  41C    basis set group =>   1
Atom  42C    basis set group =>   1
Atom  43C    basis set group =>   1
Atom  44C    basis set group =>   1
Atom  45C    basis set group =>   1
Atom  46C    basis set group =>   1
Atom  47N    basis set group =>   3
Atom  48C    basis set group =>   1
Atom  49S    basis set group =>   2
Atom  50C    basis set group =>   1
Atom  51N    basis set group =>   3
Atom  52C    basis set group =>   1
Atom  53S    basis set group =>   2
Atom  54C    basis set group =>   1
Atom  55O    basis set group =>   4
Atom  56C    basis set group =>   1
Atom  57C    basis set group =>   1
Atom  58C    basis set group =>   1
Atom  59C    basis set group =>   1
Atom  60C    basis set group =>   1
Atom  61C    basis set group =>   1
Atom  62C    basis set group =>   1
Atom  63C    basis set group =>   1
Atom  64C    basis set group =>   1
Atom  65C    basis set group =>   1
Atom  66C    basis set group =>   1
Atom  67C    basis set group =>   1
Atom  68C    basis set group =>   1
Atom  69C    basis set group =>   1
Atom  70C    basis set group =>   1
Atom  71C    basis set group =>   1
Atom  72C    basis set group =>   1
Atom  73C    basis set group =>   1
Atom  74C    basis set group =>   1
Atom  75C    basis set group =>   1
Atom  76C    basis set group =>   1
Atom  77C    basis set group =>   1
Atom  78C    basis set group =>   1
Atom  79O    basis set group =>   4
Atom  80C    basis set group =>   1
Atom  81C    basis set group =>   1
Atom  82C    basis set group =>   1
Atom  83C    basis set group =>   1
Atom  84N    basis set group =>   3
Atom  85N    basis set group =>   3
Atom  86N    basis set group =>   3
Atom  87N    basis set group =>   3
Atom  88C    basis set group =>   1
Atom  89C    basis set group =>   1
Atom  90C    basis set group =>   1
Atom  91C    basis set group =>   1
Atom  92H    basis set group =>   5
Atom  93H    basis set group =>   5
Atom  94H    basis set group =>   5
Atom  95H    basis set group =>   5
Atom  96H    basis set group =>   5
Atom  97H    basis set group =>   5
Atom  98H    basis set group =>   5
Atom  99H    basis set group =>   5
Atom 100H    basis set group =>   5
Atom 101H    basis set group =>   5
Atom 102H    basis set group =>   5
Atom 103H    basis set group =>   5
Atom 104H    basis set group =>   5
Atom 105H    basis set group =>   5
Atom 106H    basis set group =>   5
Atom 107H    basis set group =>   5
Atom 108H    basis set group =>   5
Atom 109H    basis set group =>   5
Atom 110H    basis set group =>   5
Atom 111H    basis set group =>   5
Atom 112H    basis set group =>   5
Atom 113H    basis set group =>   5
Atom 114H    basis set group =>   5
Atom 115H    basis set group =>   5
Atom 116H    basis set group =>   5
Atom 117H    basis set group =>   5
Atom 118H    basis set group =>   5
Atom 119H    basis set group =>   5
Atom 120H    basis set group =>   5
Atom 121H    basis set group =>   5
Atom 122H    basis set group =>   5
Atom 123H    basis set group =>   5
Atom 124H    basis set group =>   5
Atom 125H    basis set group =>   5
Atom 126H    basis set group =>   5
Atom 127H    basis set group =>   5
Atom 128H    basis set group =>   5
Atom 129H    basis set group =>   5
Atom 130H    basis set group =>   5
Atom 131H    basis set group =>   5
Atom 132H    basis set group =>   5
Atom 133H    basis set group =>   5
Atom 134H    basis set group =>   5
Atom 135H    basis set group =>   5
Atom 136H    basis set group =>   5
Atom 137H    basis set group =>   5
Atom 138H    basis set group =>   5
Atom 139H    basis set group =>   5
Atom 140H    basis set group =>   5
Atom 141H    basis set group =>   5
---------------------------------
AUXILIARY/J BASIS SET INFORMATION
---------------------------------
There are 5 groups of distinct atoms

 Group   1 Type C   : 12s5p4d2f1g contracted to 6s4p3d1f1g pattern {711111/2111/211/2/1}
 Group   2 Type S   : 14s5p5d2f1g contracted to 8s4p3d1f1g pattern {71111111/2111/311/2/1}
 Group   3 Type N   : 12s5p4d2f1g contracted to 6s4p3d1f1g pattern {711111/2111/211/2/1}
 Group   4 Type O   : 12s5p4d2f1g contracted to 6s4p3d1f1g pattern {711111/2111/211/2/1}
 Group   5 Type H   : 5s2p1d contracted to 3s1p1d pattern {311/2/1}

Atom   0C    basis set group =>   1
Atom   1C    basis set group =>   1
Atom   2C    basis set group =>   1
Atom   3C    basis set group =>   1
Atom   4C    basis set group =>   1
Atom   5C    basis set group =>   1
Atom   6C    basis set group =>   1
Atom   7C    basis set group =>   1
Atom   8C    basis set group =>   1
Atom   9C    basis set group =>   1
Atom  10C    basis set group =>   1
Atom  11S    basis set group =>   2
Atom  12C    basis set group =>   1
Atom  13C    basis set group =>   1
Atom  14C    basis set group =>   1
Atom  15C    basis set group =>   1
Atom  16C    basis set group =>   1
Atom  17S    basis set group =>   2
Atom  18C    basis set group =>   1
Atom  19C    basis set group =>   1
Atom  20C    basis set group =>   1
Atom  21C    basis set group =>   1
Atom  22C    basis set group =>   1
Atom  23C    basis set group =>   1
Atom  24C    basis set group =>   1
Atom  25C    basis set group =>   1
Atom  26C    basis set group =>   1
Atom  27C    basis set group =>   1
Atom  28C    basis set group =>   1
Atom  29C    basis set group =>   1
Atom  30C    basis set group =>   1
Atom  31C    basis set group =>   1
Atom  32C    basis set group =>   1
Atom  33C    basis set group =>   1
Atom  34N    basis set group =>   3
Atom  35N    basis set group =>   3
Atom  36N    basis set group =>   3
Atom  37N    basis set group =>   3
Atom  38N    basis set group =>   3
Atom  39N    basis set group =>   3
Atom  40C    basis set group =>   1
Atom  41C    basis set group =>   1
Atom  42C    basis set group =>   1
Atom  43C    basis set group =>   1
Atom  44C    basis set group =>   1
Atom  45C    basis set group =>   1
Atom  46C    basis set group =>   1
Atom  47N    basis set group =>   3
Atom  48C    basis set group =>   1
Atom  49S    basis set group =>   2
Atom  50C    basis set group =>   1
Atom  51N    basis set group =>   3
Atom  52C    basis set group =>   1
Atom  53S    basis set group =>   2
Atom  54C    basis set group =>   1
Atom  55O    basis set group =>   4
Atom  56C    basis set group =>   1
Atom  57C    basis set group =>   1
Atom  58C    basis set group =>   1
Atom  59C    basis set group =>   1
Atom  60C    basis set group =>   1
Atom  61C    basis set group =>   1
Atom  62C    basis set group =>   1
Atom  63C    basis set group =>   1
Atom  64C    basis set group =>   1
Atom  65C    basis set group =>   1
Atom  66C    basis set group =>   1
Atom  67C    basis set group =>   1
Atom  68C    basis set group =>   1
Atom  69C    basis set group =>   1
Atom  70C    basis set group =>   1
Atom  71C    basis set group =>   1
Atom  72C    basis set group =>   1
Atom  73C    basis set group =>   1
Atom  74C    basis set group =>   1
Atom  75C    basis set group =>   1
Atom  76C    basis set group =>   1
Atom  77C    basis set group =>   1
Atom  78C    basis set group =>   1
Atom  79O    basis set group =>   4
Atom  80C    basis set group =>   1
Atom  81C    basis set group =>   1
Atom  82C    basis set group =>   1
Atom  83C    basis set group =>   1
Atom  84N    basis set group =>   3
Atom  85N    basis set group =>   3
Atom  86N    basis set group =>   3
Atom  87N    basis set group =>   3
Atom  88C    basis set group =>   1
Atom  89C    basis set group =>   1
Atom  90C    basis set group =>   1
Atom  91C    basis set group =>   1
Atom  92H    basis set group =>   5
Atom  93H    basis set group =>   5
Atom  94H    basis set group =>   5
Atom  95H    basis set group =>   5
Atom  96H    basis set group =>   5
Atom  97H    basis set group =>   5
Atom  98H    basis set group =>   5
Atom  99H    basis set group =>   5
Atom 100H    basis set group =>   5
Atom 101H    basis set group =>   5
Atom 102H    basis set group =>   5
Atom 103H    basis set group =>   5
Atom 104H    basis set group =>   5
Atom 105H    basis set group =>   5
Atom 106H    basis set group =>   5
Atom 107H    basis set group =>   5
Atom 108H    basis set group =>   5
Atom 109H    basis set group =>   5
Atom 110H    basis set group =>   5
Atom 111H    basis set group =>   5
Atom 112H    basis set group =>   5
Atom 113H    basis set group =>   5
Atom 114H    basis set group =>   5
Atom 115H    basis set group =>   5
Atom 116H    basis set group =>   5
Atom 117H    basis set group =>   5
Atom 118H    basis set group =>   5
Atom 119H    basis set group =>   5
Atom 120H    basis set group =>   5
Atom 121H    basis set group =>   5
Atom 122H    basis set group =>   5
Atom 123H    basis set group =>   5
Atom 124H    basis set group =>   5
Atom 125H    basis set group =>   5
Atom 126H    basis set group =>   5
Atom 127H    basis set group =>   5
Atom 128H    basis set group =>   5
Atom 129H    basis set group =>   5
Atom 130H    basis set group =>   5
Atom 131H    basis set group =>   5
Atom 132H    basis set group =>   5
Atom 133H    basis set group =>   5
Atom 134H    basis set group =>   5
Atom 135H    basis set group =>   5
Atom 136H    basis set group =>   5
Atom 137H    basis set group =>   5
Atom 138H    basis set group =>   5
Atom 139H    basis set group =>   5
Atom 140H    basis set group =>   5
Atom 141H    basis set group =>   5


           ************************************************************
           *        Program running with 6 parallel MPI-processes     *
           *              working on a common directory               *
           ************************************************************
------------------------------------------------------------------------------
                           ORCA GTO INTEGRAL CALCULATION
                           -- RI-GTO INTEGRALS CHOSEN --
------------------------------------------------------------------------------

                         BASIS SET STATISTICS AND STARTUP INFO

Gaussian basis set:
 # of primitive gaussian shells          ... 2168
 # of primitive gaussian functions       ... 4700
 # of contracted shells                  ... 1220
 # of contracted basis functions         ... 3176
 Highest angular momentum                ...    3
 Maximum contraction depth               ...    7
Auxiliary gaussian basis set:
 # of primitive gaussian shells          ... 2620
 # of primitive gaussian functions       ... 7268
 # of contracted shells                  ... 1638
 # of contracted aux-basis functions     ... 5066
 Highest angular momentum                ...    4
 Maximum contraction depth               ...    7
Ratio of auxiliary to basis functions    ...  1.60
Integral package used                  ... LIBINT
 One Electron integrals                  ... done
 Ordering auxiliary basis shells         ... done
 Integral threshhold             Thresh  ...  2.500e-11
 Primitive cut-off               TCut    ...  2.500e-12
 Pre-screening matrix                    ... done
 Shell pair data                         ... 
 Ordering of the shell pairs             ... done (   0.091 sec) 206026 of 744810 pairs
 Determination of significant pairs      ... done (   0.001 sec)
 Creation of shell pair data             ... done (   0.028 sec)
 Storage of shell pair data              ... done (   0.045 sec)
 Shell pair data done in (   0.184 sec)
 Computing two index integrals           ... done
 Cholesky decomposition of the V-matrix  ... done


Timings:
 Total evaluation time                   ...  23.682 sec (  0.395 min)
 One electron matrix time                ...   6.766 sec (  0.113 min) = 28.6%
 Schwartz matrix evaluation time         ...  10.447 sec (  0.174 min) = 44.1%
 Two index repulsion integral time       ...   0.900 sec (  0.015 min) =  3.8%
 Cholesky decomposition of V             ...   5.366 sec (  0.089 min) = 22.7%
 Three index repulsion integral time     ...   0.000 sec (  0.000 min) =  0.0%



           ************************************************************
           *        Program running with 6 parallel MPI-processes     *
           *              working on a common directory               *
           ************************************************************
-------------------------------------------------------------------------------
                                 ORCA SCF
-------------------------------------------------------------------------------

------------
SCF SETTINGS
------------
Hamiltonian:
 Density Functional     Method          .... DFT(GTOs)
 Exchange Functional    Exchange        .... B88
   X-Alpha parameter    XAlpha          ....  0.666667
   Becke's b parameter  XBeta           ....  0.004200
 Correlation Functional Correlation     .... LYP
 LDA part of GGA corr.  LDAOpt          .... VWN-5
 Gradients option       PostSCFGGA      .... off
 Hybrid DFT is turned on
   Fraction HF Exchange ScalHFX         ....  0.200000
   Scaling of DF-GGA-X  ScalDFX         ....  0.720000
   Scaling of DF-GGA-C  ScalDFC         ....  0.810000
   Scaling of DF-LDA-C  ScalLDAC        ....  1.000000
   Perturbative correction              ....  0.000000
   Density functional embedding theory  .... OFF
   NL short-range parameter             ....  4.800000
 RI-approximation to the Coulomb term is turned on
   Number of auxiliary basis functions  .... 5066
   RIJ-COSX (HFX calculated with COS-X)).... on


General Settings:
 Integral files         IntName         .... BTA3
 Hartree-Fock type      HFTyp           .... RHF
 Total Charge           Charge          ....    0
 Multiplicity           Mult            ....    1
 Number of Electrons    NEL             ....  658
 Basis Dimension        Dim             .... 3176
 Nuclear Repulsion      ENuc            ....  15306.4281962261 Eh

Convergence Acceleration:
 DIIS                   CNVDIIS         .... on
   Start iteration      DIISMaxIt       ....    12
   Startup error        DIISStart       ....  0.200000
   # of expansion vecs  DIISMaxEq       ....     5
   Bias factor          DIISBfac        ....   1.050
   Max. coefficient     DIISMaxC        ....  10.000
 Newton-Raphson         CNVNR           .... off
 SOSCF                  CNVSOSCF        .... on
   Start iteration      SOSCFMaxIt      ....   150
   Startup grad/error   SOSCFStart      ....  0.003300
 Level Shifting         CNVShift        .... on
   Level shift para.    LevelShift      ....    0.2500
   Turn off err/grad.   ShiftErr        ....    0.0010
 Zerner damping         CNVZerner       .... off
 Static damping         CNVDamp         .... on
   Fraction old density DampFac         ....    0.7000
   Max. Damping (<1)    DampMax         ....    0.9800
   Min. Damping (>=0)   DampMin         ....    0.0000
   Turn off err/grad.   DampErr         ....    0.1000
 Fernandez-Rico         CNVRico         .... off

SCF Procedure:
 Maximum # iterations   MaxIter         ....   125
 SCF integral mode      SCFMode         .... Direct
   Integral package                     .... LIBINT
 Reset frequency        DirectResetFreq ....    20
 Integral Threshold     Thresh          ....  2.500e-11 Eh
 Primitive CutOff       TCut            ....  2.500e-12 Eh

Convergence Tolerance:
 Convergence Check Mode ConvCheckMode   .... Total+1el-Energy
 Convergence forced     ConvForced      .... 1
 Energy Change          TolE            ....  1.000e-08 Eh
 1-El. energy change                    ....  1.000e-05 Eh
 Orbital Gradient       TolG            ....  1.000e-05
 Orbital Rotation angle TolX            ....  1.000e-05
 DIIS Error             TolErr          ....  5.000e-07


Diagonalization of the overlap matrix:
Smallest eigenvalue                        ... 2.501e-06
Time for diagonalization                   ...   25.602 sec
Threshold for overlap eigenvalues          ... 1.000e-08
Number of eigenvalues below threshold      ... 0
Time for construction of square roots      ...    9.525 sec
Total time needed                          ...   35.143 sec

-------------------
DFT GRID GENERATION
-------------------

General Integration Accuracy     IntAcc      ...  4.670
Radial Grid Type                 RadialGrid  ... Gauss-Chebyshev
Angular Grid (max. acc.)         AngularGrid ... Lebedev-302
Angular grid pruning method      GridPruning ... 3 (G Style)
Weight generation scheme         WeightScheme... Becke
Basis function cutoff            BFCut       ...    1.0000e-11
Integration weight cutoff        WCut        ...    1.0000e-14
Grids for H and He will be reduced by one unit

# of grid points (after initial pruning)     ... 743740 (   0.0 sec)
# of grid points (after weights+screening)   ... 630208 (  13.0 sec)
nearest neighbour list constructed           ...    0.0 sec
Grid point re-assignment to atoms done       ...    0.1 sec
Grid point division into batches done        ...    4.5 sec
Reduced shell lists constructed in   10.0 sec

Total number of grid points                  ...   630208
Total number of batches                      ...     9917
Average number of points per batch           ...       63
Average number of grid points per atom       ...     4438
Average number of shells per batch           ...   270.74 (22.19%)
Average number of basis functions per batch  ...   668.00 (21.03%)
Average number of large shells per batch     ...   153.54 (56.71%)
Average number of large basis fcns per batch ...   393.43 (58.90%)
Maximum spatial batch extension              ...  16.49, 18.29, 14.45 au
Average spatial batch extension              ...   0.24,  0.25,  0.24 au

Time for grid setup =   26.471 sec

------------------------------
INITIAL GUESS: MODEL POTENTIAL
------------------------------
Loading Hartree-Fock densities                     ... done
Calculating cut-offs                               ... done
Setting up the integral package                    ... done
Initializing the effective Hamiltonian             ... done
Starting the Coulomb interaction                   ... done (  15.7 sec)
Reading the grid                                   ... done
Mapping shells                                     ... done
Starting the XC term evaluation                    ... done (  10.5 sec)
  promolecular density results
     # of electrons  =    657.976208103
     EX              =   -590.703471321
     EC              =    -22.972223256
     EX+EC           =   -613.675694577
Transforming the Hamiltonian                       ... done (   9.4 sec)
Diagonalizing the Hamiltonian                      ... done (  24.5 sec)
Back transforming the eigenvectors                 ... done (   6.1 sec)
Now organizing SCF variables                       ... done
                      ------------------
                      INITIAL GUESS DONE (  93.5 sec)
                      ------------------
--------------------
COSX GRID GENERATION
--------------------

General Integration Accuracy     IntAcc      ...  3.340
Radial Grid Type                 RadialGrid  ... Gauss-Chebyshev
Angular Grid (max. acc.)         AngularGrid ... Lebedev-50
Angular grid pruning method      GridPruning ... 3 (G Style)
Weight generation scheme         WeightScheme... Becke
Basis function cutoff            BFCut       ...    1.0000e-11
Integration weight cutoff        WCut        ...    1.0000e-14
Grids for H and He will be reduced by one unit

# of grid points (after initial pruning)     ...  69696 (   0.0 sec)
# of grid points (after weights+screening)   ...  61827 (   1.5 sec)
nearest neighbour list constructed           ...    0.0 sec
Grid point re-assignment to atoms done       ...    0.0 sec
Grid point division into batches done        ...    0.0 sec
Reduced shell lists constructed in    0.7 sec

Total number of grid points                  ...    61827
Total number of batches                      ...     1040
Average number of points per batch           ...       59
Average number of grid points per atom       ...      435
Average number of shells per batch           ...   317.77 (26.05%)
Average number of basis functions per batch  ...   789.55 (24.86%)
Average number of large shells per batch     ...   178.65 (56.22%)
Average number of large basis fcns per batch ...   462.21 (58.54%)
Maximum spatial batch extension              ...  11.91, 14.31, 13.86 au
Average spatial batch extension              ...   0.50,  0.56,  0.51 au

Overlap Fitting                  UseSFitting ... on
Constructing numerical overlap ... done (      2.4 sec)
Inverting numerical overlap    ... done (      4.6 sec)
Obtaining analytic overlap     ... done (      0.0 sec)
Final contraction and storage  ... done (     12.9 sec)


General Integration Accuracy     IntAcc      ...  3.670
Radial Grid Type                 RadialGrid  ... Gauss-Chebyshev
Angular Grid (max. acc.)         AngularGrid ... Lebedev-50
Angular grid pruning method      GridPruning ... 3 (G Style)
Weight generation scheme         WeightScheme... Becke
Basis function cutoff            BFCut       ...    1.0000e-11
Integration weight cutoff        WCut        ...    1.0000e-14
Grids for H and He will be reduced by one unit

# of grid points (after initial pruning)     ...  87456 (   0.0 sec)
# of grid points (after weights+screening)   ...  77226 (   1.5 sec)
nearest neighbour list constructed           ...    0.0 sec
Grid point re-assignment to atoms done       ...    0.0 sec
Grid point division into batches done        ...    0.0 sec
Reduced shell lists constructed in    0.6 sec

Total number of grid points                  ...    77226
Total number of batches                      ...     1275
Average number of points per batch           ...       60
Average number of grid points per atom       ...      544
Average number of shells per batch           ...   312.59 (25.62%)
Average number of basis functions per batch  ...   775.95 (24.43%)
Average number of large shells per batch     ...   175.44 (56.12%)
Average number of large basis fcns per batch ...   453.34 (58.42%)
Maximum spatial batch extension              ...  13.13, 15.53, 14.55 au
Average spatial batch extension              ...   0.47,  0.52,  0.47 au

Overlap Fitting                  UseSFitting ... on
Constructing numerical overlap ... done (      2.7 sec)
Inverting numerical overlap    ... done (      8.2 sec)
Obtaining analytic overlap     ... done (      0.0 sec)
Final contraction and storage  ... done (     12.9 sec)


General Integration Accuracy     IntAcc      ...  4.010
Radial Grid Type                 RadialGrid  ... Gauss-Chebyshev
Angular Grid (max. acc.)         AngularGrid ... Lebedev-110
Angular grid pruning method      GridPruning ... 3 (G Style)
Weight generation scheme         WeightScheme... Becke
Basis function cutoff            BFCut       ...    1.0000e-11
Integration weight cutoff        WCut        ...    1.0000e-14
Grids for H and He will be reduced by one unit

# of grid points (after initial pruning)     ... 169020 (   0.0 sec)
# of grid points (after weights+screening)   ... 147843 (   3.7 sec)
nearest neighbour list constructed           ...    0.0 sec
Grid point re-assignment to atoms done       ...    0.0 sec
Grid point division into batches done        ...    0.2 sec
Reduced shell lists constructed in    1.8 sec

Total number of grid points                  ...   147843
Total number of batches                      ...     2382
Average number of points per batch           ...       62
Average number of grid points per atom       ...     1041
Average number of shells per batch           ...   297.36 (24.37%)
Average number of basis functions per batch  ...   737.07 (23.21%)
Average number of large shells per batch     ...   168.47 (56.65%)
Average number of large basis fcns per batch ...   434.30 (58.92%)
Maximum spatial batch extension              ...  12.89, 15.96, 17.50 au
Average spatial batch extension              ...   0.39,  0.41,  0.38 au

Overlap Fitting                  UseSFitting ... on
Constructing numerical overlap ... done (      4.2 sec)
Inverting numerical overlap    ... done (      6.3 sec)
Obtaining analytic overlap     ... done (      0.1 sec)
Final contraction and storage  ... done (     13.0 sec)

Time for X-Grid setup             =   78.130 sec
--------------
SCF ITERATIONS
--------------
ITER       Energy         Delta-E        Max-DP      RMS-DP      [F,P]     Damp
               ***  Starting incremental Fock matrix formation  ***
  0  -5246.8018485936   0.000000000000 0.26312503  0.00062066  0.3231879 0.7000
  1  -5247.8981756470  -1.096327053378 0.16895836  0.00050807  0.1026611 0.7000
                               ***Turning on DIIS***
  2  -5248.2911898575  -0.393014210576 0.22091824  0.00085652  0.0465918 0.0000
  3  -5248.9490899958  -0.657900138231 0.14439020  0.00044514  0.0546741 0.0000
  4  -5249.0862264016  -0.137136405869 0.04192488  0.00014668  0.0422230 0.0000
  5  -5249.1039504402  -0.017724038596 0.01595874  0.00006522  0.0105931 0.0000
                      *** Initiating the SOSCF procedure ***
                           *** Shutting down DIIS ***
                      *** Re-Reading the Fockian *** 
                      *** Removing any level shift *** 
ITER      Energy       Delta-E        Grad      Rot      Max-DP    RMS-DP
  6  -5249.10512354  -0.0011731004  0.000760  0.000760  0.018373  0.000029
               *** Restarting incremental Fock matrix formation ***
  7  -5249.10523999  -0.0001164516  0.000378  0.004577  0.010629  0.000063
  8  -5249.10522413   0.0000158635  0.000471  0.002268  0.006772  0.000020
  9  -5249.10527218  -0.0000480541  0.000145  0.001797  0.004564  0.000021
 10  -5249.10526830   0.0000038828  0.000170  0.000376  0.000717  0.000002
 11  -5249.10527561  -0.0000073128  0.000047  0.000615  0.001026  0.000007
 12  -5249.10527455   0.0000010587  0.000066  0.000286  0.000656  0.000002
 13  -5249.10527609  -0.0000015402  0.000013  0.000071  0.000705  0.000002
 14  -5249.10527605   0.0000000485  0.000027  0.000051  0.000323  0.000001
 15  -5249.10527627  -0.0000002236  0.000007  0.000092  0.001599  0.000002
 16  -5249.10527615   0.0000001190  0.000012  0.000052  0.000573  0.000001
                  ***Gradient check signals convergence***
              ***Rediagonalizing the Fockian in SOSCF/NRSCF***

               *****************************************************
               *                     SUCCESS                       *
               *           SCF CONVERGED AFTER  17 CYCLES          *
               *****************************************************

Setting up the final grid:

General Integration Accuracy     IntAcc      ...  5.010
Radial Grid Type                 RadialGrid  ... Gauss-Chebyshev
Angular Grid (max. acc.)         AngularGrid ... Lebedev-434
Angular grid pruning method      GridPruning ... 3 (G Style)
Weight generation scheme         WeightScheme... Becke
Basis function cutoff            BFCut       ...    1.0000e-11
Integration weight cutoff        WCut        ...    1.0000e-14
Grids for H and He will be reduced by one unit

# of grid points (after initial pruning)     ... 1321976 (   0.1 sec)
# of grid points (after weights+screening)   ... 1116600 (  20.3 sec)
nearest neighbour list constructed           ...    0.0 sec
Grid point re-assignment to atoms done       ...    0.2 sec
Grid point division into batches done        ...   13.0 sec
Reduced shell lists constructed in   21.1 sec

Total number of grid points                  ...  1116600
Total number of batches                      ...    17513
Average number of points per batch           ...       63
[...]
   315a -> 329a  :     0.010510 (c= -0.10252000)
   325a -> 331a  :     0.014760 (c= -0.12148959)
   326a -> 331a  :     0.038561 (c=  0.19636880)
   327a -> 333a  :     0.039641 (c=  0.19910053)
   328a -> 335a  :     0.017961 (c=  0.13401724)
   328a -> 336a  :     0.016229 (c=  0.12739312)
   328a -> 337a  :     0.010106 (c= -0.10052706)

STATE 45:  E=   0.147215 au      4.006 eV    32309.9 cm**-1
   308a -> 330a  :     0.034585 (c=  0.18596988)
   309a -> 329a  :     0.170093 (c= -0.41242328)
   312a -> 329a  :     0.031198 (c=  0.17662932)
   313a -> 330a  :     0.080445 (c= -0.28362797)
   314a -> 330a  :     0.196151 (c= -0.44288947)
   318a -> 329a  :     0.012734 (c= -0.11284552)
   321a -> 330a  :     0.013120 (c=  0.11454308)
   322a -> 331a  :     0.026541 (c= -0.16291399)
   323a -> 331a  :     0.019516 (c=  0.13969793)
   325a -> 331a  :     0.127968 (c= -0.35772666)
   326a -> 331a  :     0.121568 (c=  0.34866589)
   328a -> 334a  :     0.029016 (c=  0.17034086)
   328a -> 335a  :     0.036684 (c=  0.19152974)

STATE 46:  E=   0.147703 au      4.019 eV    32417.0 cm**-1
   308a -> 329a  :     0.021626 (c=  0.14705657)
   310a -> 329a  :     0.024045 (c= -0.15506587)
   314a -> 330a  :     0.026626 (c=  0.16317455)
   318a -> 330a  :     0.024921 (c= -0.15786486)
   327a -> 331a  :     0.013797 (c= -0.11746009)
   327a -> 333a  :     0.536844 (c= -0.73269627)
   328a -> 334a  :     0.012059 (c=  0.10981402)
   328a -> 337a  :     0.210555 (c=  0.45886241)

STATE 47:  E=   0.149326 au      4.063 eV    32773.3 cm**-1
   309a -> 329a  :     0.012501 (c= -0.11180625)
   311a -> 329a  :     0.060284 (c= -0.24552883)
   312a -> 330a  :     0.012787 (c=  0.11308011)
   313a -> 329a  :     0.015159 (c= -0.12312340)
   313a -> 330a  :     0.418679 (c= -0.64705409)
   318a -> 329a  :     0.027013 (c=  0.16435776)
   325a -> 331a  :     0.043646 (c=  0.20891723)
   326a -> 331a  :     0.109842 (c= -0.33142357)
   327a -> 333a  :     0.014974 (c= -0.12236676)
   327a -> 337a  :     0.014544 (c=  0.12059965)
   328a -> 337a  :     0.031232 (c= -0.17672540)
   328a -> 338a  :     0.025684 (c= -0.16026207)
   328a -> 339a  :     0.038024 (c=  0.19499696)

STATE 48:  E=   0.149748 au      4.075 eV    32866.0 cm**-1
   308a -> 329a  :     0.162212 (c=  0.40275543)
   309a -> 330a  :     0.086675 (c= -0.29440611)
   310a -> 329a  :     0.136416 (c=  0.36934599)
   313a -> 329a  :     0.010238 (c= -0.10118506)
   313a -> 330a  :     0.055294 (c=  0.23514621)
   318a -> 330a  :     0.017028 (c= -0.13049256)
   321a -> 331a  :     0.014924 (c=  0.12216467)
   323a -> 331a  :     0.016098 (c=  0.12687600)
   326a -> 331a  :     0.012625 (c=  0.11236244)
   326a -> 332a  :     0.017706 (c= -0.13306211)
   327a -> 331a  :     0.016342 (c=  0.12783423)
   327a -> 333a  :     0.020265 (c= -0.14235393)
   327a -> 335a  :     0.010912 (c= -0.10446007)
   328a -> 334a  :     0.015099 (c=  0.12287850)
   328a -> 335a  :     0.023253 (c= -0.15248819)
   328a -> 337a  :     0.121183 (c= -0.34811281)
   328a -> 339a  :     0.051044 (c=  0.22592927)
   328a -> 340a  :     0.042536 (c= -0.20624218)

STATE 49:  E=   0.150470 au      4.094 eV    33024.3 cm**-1
   308a -> 329a  :     0.010244 (c=  0.10121157)
   309a -> 329a  :     0.017271 (c= -0.13141947)
   310a -> 329a  :     0.012050 (c= -0.10977034)
   310a -> 330a  :     0.016021 (c=  0.12657576)
   311a -> 330a  :     0.017042 (c=  0.13054427)
   312a -> 330a  :     0.786839 (c= -0.88703925)
   314a -> 329a  :     0.024644 (c=  0.15698343)
   326a -> 331a  :     0.010031 (c= -0.10015351)
   328a -> 340a  :     0.017017 (c=  0.13045081)

STATE 50:  E=   0.151028 au      4.110 eV    33146.8 cm**-1
   308a -> 329a  :     0.059795 (c= -0.24453028)
   309a -> 329a  :     0.014507 (c= -0.12044459)
   309a -> 330a  :     0.028294 (c=  0.16820751)
   310a -> 329a  :     0.017182 (c=  0.13107903)
   311a -> 329a  :     0.021961 (c=  0.14819288)
   313a -> 330a  :     0.045987 (c=  0.21444689)
   327a -> 339a  :     0.051353 (c= -0.22661161)
   328a -> 338a  :     0.158240 (c= -0.39779436)
   328a -> 339a  :     0.412414 (c=  0.64219501)
   328a -> 340a  :     0.065424 (c=  0.25578169)


-----------------------------
TD-DFT/TDA-EXCITATION SPECTRA
-----------------------------

Center of mass = (  0.7733, -6.4531,  2.2502)
Calculating the Dipole integrals                  ... done
Transforming integrals                            ... done
Calculating the Linear Momentum integrals         ... done
Transforming integrals                            ... done
Calculating angular momentum integrals            ... done
Transforming integrals                            ... done

-----------------------------------------------------------------------------
         ABSORPTION SPECTRUM VIA TRANSITION ELECTRIC DIPOLE MOMENTS
-----------------------------------------------------------------------------
State   Energy    Wavelength  fosc         T2        TX        TY        TZ  
        (cm-1)      (nm)                 (au**2)    (au)      (au)      (au) 
-----------------------------------------------------------------------------
   1   14993.7    666.9   2.419432714  53.12279   5.78916  -1.03545   4.30538
   2   16998.3    588.3   0.128547697   2.48963   0.08421  -1.07687   1.15017
   3   21191.7    471.9   0.529730679   8.22935   1.26279   2.09253  -1.50200
   4   21536.1    464.3   0.657137390  10.04536   2.22737  -0.19993   2.24593
   5   22866.0    437.3   0.138884289   1.99958   1.28886  -0.01926   0.58142
   6   23155.5    431.9   0.005084512   0.07229   0.20098  -0.04895   0.17176
   7   23552.8    424.6   0.005725016   0.08002  -0.15286  -0.21603   0.09992
   8   24409.8    409.7   0.096709562   1.30431   0.76867   0.83701   0.11342
   9   24583.0    406.8   0.136585415   1.82913   0.39058   0.53060   1.18112
  10   24943.9    400.9   0.021053462   0.27787   0.22997   0.32004  -0.35007
  11   25276.8    395.6   0.061103044   0.79582  -0.18768  -0.11507   0.86450
  12   25388.1    393.9   0.010050517   0.13033   0.03399  -0.35513  -0.05525
  13   25674.0    389.5   0.092132805   1.18140   0.58608   0.66431  -0.62976
  14   25908.0    386.0   0.128208847   1.62914  -0.09191   1.11052   0.62245
  15   26729.2    374.1   0.026114017   0.32163  -0.36842  -0.14058   0.40760
  16   26952.8    371.0   0.029297645   0.35785  -0.14586  -0.30046  -0.49629
  17   27308.5    366.2   0.011040433   0.13310  -0.16242  -0.31274  -0.09438
  18   27354.9    365.6   0.178751222   2.15124   0.86929  -1.11779  -0.38225
  19   27553.8    362.9   0.021138734   0.25257  -0.36758   0.23539   0.24908
  20   27721.3    360.7   0.005780611   0.06865  -0.12333  -0.16053   0.16635
  21   28518.2    350.7   0.006894807   0.07959  -0.00754   0.28200   0.00381
  22   28793.4    347.3   0.002572624   0.02941  -0.00233  -0.16501  -0.04671
  23   28865.7    346.4   0.005096980   0.05813  -0.04954  -0.07487   0.22376
  24   28955.6    345.4   0.076550445   0.87034   0.30751   0.67317  -0.56799
  25   29016.9    344.6   0.021993872   0.24953  -0.14230   0.15871   0.45177
  26   29215.4    342.3   0.006628773   0.07470  -0.22030  -0.00885  -0.16151
  27   29364.9    340.5   0.008344190   0.09355   0.04187   0.16784  -0.25224
  28   29567.7    338.2   0.003237066   0.03604  -0.17921  -0.00656  -0.06232
  29   29973.8    333.6   0.006918354   0.07599   0.03810  -0.14896  -0.22879
  30   30032.6    333.0   0.008648905   0.09481   0.20427   0.20661   0.10196
  31   30129.9    331.9   0.040540624   0.44296  -0.37195   0.52781   0.16135
  32   30223.5    330.9   0.067954247   0.74020  -0.53301   0.61792   0.27253
  33   30623.3    326.5   0.000958841   0.01031  -0.09867   0.01915   0.01434
  34   30711.1    325.6   0.004681822   0.05019  -0.19107  -0.11288   0.03065
  35   30737.1    325.3   0.005463918   0.05852   0.19416   0.05755  -0.13233
  36   30996.4    322.6   0.087283465   0.92703  -0.47494  -0.06784  -0.83478
  37   31112.0    321.4   0.017408690   0.18421  -0.03769  -0.20181   0.37691
  38   31314.3    319.3   0.002156119   0.02267  -0.01083  -0.03514  -0.14600
  39   31452.4    317.9   0.016223371   0.16981   0.12165   0.39370  -0.00362
  40   31504.5    317.4   0.006425090   0.06714  -0.18167   0.17999  -0.04171
  41   31597.1    316.5   0.061789778   0.64379  -0.36475   0.47536   0.53365
  42   31806.5    314.4   0.003285066   0.03400   0.13996   0.11074   0.04639
  43   31969.3    312.8   0.003309933   0.03408   0.05109  -0.16503  -0.06512
  44   32258.8    310.0   0.044360413   0.45271   0.56560  -0.33725   0.13812
  45   32309.9    309.5   0.041866232   0.42658   0.51542  -0.31798   0.24456
  46   32417.0    308.5   0.002911467   0.02957   0.15010  -0.02837  -0.07895
  47   32773.3    305.1   0.011569997   0.11622  -0.00329   0.29195   0.17599
  48   32866.0    304.3   0.002708134   0.02713   0.14313   0.04481   0.06806
  49   33024.3    302.8   0.001758301   0.01753  -0.08942   0.08915   0.03982
  50   33146.8    301.7   0.022345803   0.22194   0.07315  -0.01925   0.46499

-----------------------------------------------------------------------------
         ABSORPTION SPECTRUM VIA TRANSITION VELOCITY DIPOLE MOMENTS
-----------------------------------------------------------------------------
State   Energy    Wavelength   fosc        P2         PX        PY        PZ  
        (cm-1)      (nm)                 (au**2)     (au)      (au)      (au) 
-----------------------------------------------------------------------------
   1   14993.7    666.9   0.612515198   0.06277  -0.20266   0.03042  -0.14412
   2   16998.3    588.3   0.026940530   0.00313  -0.01217   0.03118  -0.04482
   3   21191.7    471.9   0.089183787   0.01292  -0.04766  -0.08177   0.06292
   4   21536.1    464.3   0.309726345   0.04559  -0.15378   0.01427  -0.14743
   5   22866.0    437.3   0.073150584   0.01143  -0.09977   0.03579  -0.01404
   6   23155.5    431.9   0.009545955   0.00151  -0.01802   0.02456   0.02414
   7   23552.8    424.6   0.001232529   0.00020   0.00895   0.00506  -0.00963
   8   24409.8    409.7   0.024346513   0.00406  -0.04864  -0.02558  -0.03228
   9   24583.0    406.8   0.080967557   0.01360  -0.05783  -0.02369  -0.09848
  10   24943.9    400.9   0.002540149   0.00043  -0.00571  -0.00916   0.01779
  11   25276.8    395.6   0.015819094   0.00273  -0.01529   0.00083  -0.04998
  12   25388.1    393.9   0.004189770   0.00073  -0.00439   0.01900   0.01862
  13   25674.0    389.5   0.014315666   0.00251  -0.02729  -0.02623   0.03285
  14   25908.0    386.0   0.054368514   0.00963  -0.01142  -0.05376  -0.08128
  15   26729.2    374.1   0.000019585   0.00000   0.00182   0.00045   0.00027
  16   26952.8    371.0   0.010181928   0.00188   0.03201  -0.01434   0.02540
  17   27308.5    366.2   0.003032088   0.00057   0.02318   0.00298  -0.00442
  18   27354.9    365.6   0.014550897   0.00272  -0.00032   0.02709   0.04457
  19   27553.8    362.9   0.003671498   0.00069   0.01556  -0.01176  -0.01763
  20   27721.3    360.7   0.001988870   0.00038   0.00546   0.01311  -0.01324
  21   28518.2    350.7   0.011050348   0.00215  -0.03099   0.02821   0.01994
  22   28793.4    347.3   0.001017196   0.00020  -0.00249   0.01151   0.00784
  23   28865.7    346.4   0.001130428   0.00022  -0.00895   0.01067  -0.00539
  24   28955.6    345.4   0.010098021   0.00200   0.00980  -0.04327  -0.00550
  25   29016.9    344.6   0.061817072   0.01226   0.04711  -0.06936  -0.07231
  26   29215.4    342.3   0.010392645   0.00208   0.04217  -0.01720  -0.00102
  27   29364.9    340.5   0.000703677   0.00014   0.00810  -0.00780   0.00385
  28   29567.7    338.2   0.000371699   0.00008   0.00670   0.00262   0.00483
  29   29973.8    333.6   0.008697836   0.00178   0.03231  -0.00370   0.02691
  30   30032.6    333.0   0.033832791   0.00694  -0.06598   0.00170  -0.05087
  31   30129.9    331.9   0.003903763   0.00080   0.01643  -0.00494   0.02257
  32   30223.5    330.9   0.003364592   0.00069   0.01927  -0.01057   0.01456
  33   30623.3    326.5   0.001662843   0.00035   0.00975   0.01434  -0.00688
  34   30711.1    325.6   0.014048553   0.00295   0.01852   0.04320  -0.02719
  35   30737.1    325.3   0.008782478   0.00184  -0.01732  -0.03147   0.02355
  36   30996.4    322.6   0.044036362   0.00933   0.03514   0.01953   0.08782
  37   31112.0    321.4   0.008571477   0.00182  -0.00266   0.01880  -0.03824
  38   31314.3    319.3   0.001833740   0.00039  -0.01584  -0.00579  -0.01039
  39   31452.4    317.9   0.002648058   0.00057  -0.00985   0.00220   0.02162
  40   31504.5    317.4   0.001093255   0.00024   0.01047  -0.00823   0.00762
  41   31597.1    316.5   0.009304160   0.00201   0.01655   0.02278   0.03488
  42   31806.5    314.4   0.029910726   0.00650  -0.06768   0.04187   0.01296
  43   31969.3    312.8   0.001932720   0.00042  -0.01287   0.01556  -0.00380
  44   32258.8    310.0   0.018024172   0.00397  -0.03601  -0.00689  -0.05128
  45   32309.9    309.5   0.014577425   0.00322  -0.02092  -0.01837  -0.04944
  46   32417.0    308.5   0.002262490   0.00050  -0.00335  -0.02214  -0.00001
  47   32773.3    305.1   0.011414678   0.00256   0.01982  -0.03715  -0.02799
  48   32866.0    304.3   0.005726290   0.00129  -0.03169   0.00492   0.01606
  49   33024.3    302.8   0.001010418   0.00023   0.00780  -0.01071  -0.00724
  50   33146.8    301.7   0.022396098   0.00507  -0.03976   0.02663  -0.05276

-------------------------------------------------------------------
                             CD SPECTRUM
-------------------------------------------------------------------
State  Energy     Wavelength     R         MX        MY        MZ   
       (cm-1)       (nm)     (1e40*cgs)   (au)      (au)      (au)  
-------------------------------------------------------------------
   1   14993.7    666.9    -709.84152   0.28615  -0.89846  -0.95056
   2   16998.3    588.3    266.43868  -0.20565  -0.40854   0.12391
   3   21191.7    471.9    1473.59433   0.60452   0.68488  -0.61861
   4   21536.1    464.3    -425.54697   0.17081  -0.67611  -0.63148
   5   22866.0    437.3     19.90687   0.14259  -0.04442  -0.24492
   6   23155.5    431.9     -1.53691   0.01605   0.05198  -0.02295
   7   23552.8    424.6      4.28325  -0.02954  -0.00299   0.03926
   8   24409.8    409.7    -70.89985   0.06556  -0.20362  -0.26757
   9   24583.0    406.8    -349.79127   0.09035  -0.35578  -0.49822
  10   24943.9    400.9     72.98453   0.15863   0.21754  -0.13913
  11   25276.8    395.6     13.54164  -0.11619  -0.30913  -0.03315
  12   25388.1    393.9     -3.11804  -0.06520   0.00037   0.07721
  13   25674.0    389.5    282.58361   0.30247   0.32549  -0.32694
  14   25908.0    386.0    -218.81766   0.15121  -0.22487  -0.32213
  15   26729.2    374.1    -12.97233   0.01044   0.05803  -0.03805
  16   26952.8    371.0    -67.46980   0.07326   0.26437   0.10678
  17   27308.5    366.2     10.47768  -0.08859  -0.06933   0.14672
  18   27354.9    365.6     -4.74706   0.01013   0.01615   0.00214
  19   27553.8    362.9     14.78469  -0.05557  -0.04541   0.08681
  20   27721.3    360.7     39.09255  -0.17636  -0.20672   0.16824
  21   28518.2    350.7     17.93634   0.04975   0.13560   0.04751
  22   28793.4    347.3     -4.01126  -0.02204   0.03128   0.07275
  23   28865.7    346.4     -2.51045  -0.02849  -0.07949  -0.05670
  24   28955.6    345.4    253.35955   0.35570   0.30609  -0.39080
  25   29016.9    344.6    -56.30724  -0.02830  -0.36965  -0.14342
  26   29215.4    342.3    -15.04828   0.02752   0.08821   0.15526
  27   29364.9    340.5      6.17045   0.05173   0.06019  -0.00325
  28   29567.7    338.2     -1.58575   0.00616   0.04203   0.03183
  29   29973.8    333.6    -33.66996  -0.18253  -0.06372   0.32325
  30   30032.6    333.0    -42.48784  -0.01267  -0.31859  -0.21294
  31   30129.9    331.9    -20.69925  -0.06570  -0.12745  -0.00664
  32   30223.5    330.9     -2.99570  -0.01959   0.00002  -0.06168
  33   30623.3    326.5      4.05086  -0.08560  -0.06679   0.09940
  34   30711.1    325.6     43.82324  -0.27036  -0.29868   0.24746
  35   30737.1    325.3     42.89107   0.23476   0.23481  -0.24093
  36   30996.4    322.6    -144.76355  -0.04328   0.50990   0.35102
  37   31112.0    321.4     34.10178  -0.14324  -0.27432   0.03071
  38   31314.3    319.3      5.25936  -0.05220  -0.12991  -0.04127
  39   31452.4    317.9    -23.47179  -0.01740  -0.12071   0.04014
  40   31504.5    317.4      4.33970   0.01207   0.06605   0.01174
  41   31597.1    316.5     22.61197   0.01232   0.06428   0.04104
  42   31806.5    314.4     -6.84084  -0.02120  -0.08595  -0.04365
  43   31969.3    312.8      0.17936   0.02090   0.03145  -0.06916
  44   32258.8    310.0     29.68281   0.02720  -0.22097  -0.19509
  45   32309.9    309.5     19.29920   0.03604  -0.20035  -0.16906
  46   32417.0    308.5      3.02880   0.02433  -0.02717  -0.02536
  47   32773.3    305.1    -43.74641   0.20081  -0.12641  -0.31378
  48   32866.0    304.3     16.51519   0.24786   0.32644  -0.22145
  49   33024.3    302.8     -5.33091   0.02623  -0.09133  -0.02061
  50   33146.8    301.7      1.34312   0.03692  -0.26166  -0.01051

Total run time:   156580.254 sec

           *** ORCA-CIS/TD-DFT FINISHED WITHOUT ERROR ***

-----------------------
CIS/TD-DFT TOTAL ENERGY
-----------------------

    E(SCF)  =  -5249.106569985 Eh
    DE(CIS) =      0.068316241 Eh (Root  1)
    ----------------------------- ---------
    E(tot)  =  -5249.038253744 Eh


-------------------------   --------------------
FINAL SINGLE POINT ENERGY     -5249.038253744115
-------------------------   --------------------


                            ***************************************
                            *     ORCA property calculations      *
                            ***************************************

                                    ---------------------
                                    Active property flags
                                    ---------------------
   (+) Dipole Moment


------------------------------------------------------------------------------
                       ORCA ELECTRIC PROPERTIES CALCULATION
------------------------------------------------------------------------------

Dipole Moment Calculation                       ... on
Quadrupole Moment Calculation                   ... off
Polarizability Calculation                      ... off
GBWName                                         ... BTA3.gbw
Electron density file                           ... BTA3.scfp
The origin for moment calculation is the CENTER OF MASS  = ( 0.773257, -6.453054  2.250234)

-------------
DIPOLE MOMENT
-------------
                                X             Y             Z
Electronic contribution:    -18.06116     -28.33745      22.00268
Nuclear contribution   :     19.91714      31.63870     -24.98875
                        -----------------------------------------
Total Dipole Moment    :      1.85598       3.30125      -2.98608
                        -----------------------------------------
Magnitude (a.u.)       :      4.82282
Magnitude (Debye)      :     12.25863



--------------------
Rotational spectrum 
--------------------
 
Rotational constants in cm-1:     0.000770     0.000191     0.000189 
Rotational constants in MHz :    23.075121     5.714395     5.678043 

 Dipole components along the rotational axes: 
x,y,z [a.u.] :     0.786734    -4.191629    -2.251860 
x,y,z [Debye]:     1.999720   -10.654274    -5.723772 

 

Timings for individual modules:

Sum of individual times         ...   165221.516 sec (=2753.692 min)
GTO integral calculation        ...       25.914 sec (=   0.432 min)   0.0 %
SCF iterations                  ...     8614.074 sec (= 143.568 min)   5.2 %
CIS module                      ...   156581.528 sec (=2609.692 min)  94.8 %
                             ****ORCA TERMINATED NORMALLY****
TOTAL RUN TIME: 1 days 21 hours 53 minutes 45 seconds 946 msec
