
                                 *****************
                                 * O   R   C   A *
                                 *****************

           --- An Ab Initio, DFT and Semiempirical electronic structure package ---

                  #######################################################
                  #                        -***-                        #
                  #          Department of theory and spectroscopy      #
                  #               Directorship: Frank Neese             #
                  #        Max Planck Institute fuer Kohlenforschung    #
                  #                Kaiser Wilhelm Platz 1               #
                  #                 D-45470 Muelheim/Ruhr               #
                  #                      Germany                        #
                  #                                                     #
                  #                  All rights reserved                #
                  #                        -***-                        #
                  #######################################################


                         Program Version 4.2.0 -  RELEASE  -


 With contributions from (in alphabetic order):
   Daniel Aravena         : Magnetic Suceptibility
   Michael Atanasov       : Ab Initio Ligand Field Theory (pilot matlab implementation)
   Alexander A. Auer      : GIAO ZORA, VPT2
   Ute Becker             : Parallelization
   Giovanni Bistoni       : ED, misc. LED, open-shell LED, HFLED
   Martin Brehm           : Molecular dynamics
   Dmytro Bykov           : SCF Hessian
   Vijay G. Chilkuri      : MRCI spin determinant printing, contributions to CSF-ICE
   Dipayan Datta          : RHF DLPNO-CCSD density
   Achintya Kumar Dutta   : EOM-CC, STEOM-CC
   Dmitry Ganyushin       : Spin-Orbit,Spin-Spin,Magnetic field MRCI
   Miquel Garcia          : C-PCM Hessian, Gaussian charge scheme
   Yang Guo               : DLPNO-NEVPT2, CIM, IAO-localization
   Andreas Hansen         : Spin unrestricted coupled pair/coupled cluster methods
   Benjamin Helmich-Paris : CASSCF linear response (MC-RPA)
   Lee Huntington         : MR-EOM, pCC
   Robert Izsak           : Overlap fitted RIJCOSX, COSX-SCS-MP3, EOM
   Christian Kollmar      : KDIIS, OOCD, Brueckner-CCSD(T), CCSD density
   Simone Kossmann        : Meta GGA functionals, TD-DFT gradient, OOMP2, MP2 Hessian
   Martin Krupicka        : AUTO-CI
   Lucas Lang             : DCDCAS
   Dagmar Lenk            : GEPOL surface, SMD
   Dimitrios Liakos       : Extrapolation schemes; Compound Job, initial MDCI parallelization
   Dimitrios Manganas     : Further ROCIS development; embedding schemes
   Dimitrios Pantazis     : SARC Basis sets
   Taras Petrenko         : DFT Hessian,TD-DFT gradient, ASA, ECA, R-Raman, ABS, FL, XAS/XES, NRVS
   Peter Pinski           : DLPNO-MP2, DLPNO-MP2 Gradient
   Christoph Reimann      : Effective Core Potentials
   Marius Retegan         : Local ZFS, SOC
   Christoph Riplinger    : Optimizer, TS searches, QM/MM, DLPNO-CCSD(T), (RO)-DLPNO pert. Triples
   Tobias Risthaus        : Range-separated hybrids, TD-DFT gradient, RPA, STAB
   Michael Roemelt        : Original ROCIS implementation
   Masaaki Saitow         : Open-shell DLPNO-CCSD energy and density
   Barbara Sandhoefer     : DKH picture change effects
   Avijit Sen             : IP-ROCIS
   Kantharuban Sivalingam : CASSCF convergence, NEVPT2, FIC-MRCI
   Bernardo de Souza      : ESD, SOC TD-DFT
   Georgi Stoychev        : AutoAux, RI-MP2 NMR
   Willem Van den Heuvel  : Paramagnetic NMR
   Boris Wezisla          : Elementary symmetry handling
   Frank Wennmohs         : Technical directorship


 We gratefully acknowledge several colleagues who have allowed us to
 interface, adapt or use parts of their codes:
   Stefan Grimme, W. Hujo, H. Kruse,             : VdW corrections, initial TS optimization,
                  C. Bannwarth                     DFT functionals, gCP, sTDA/sTD-DF
   Ed Valeev, F. Pavosevic, A. Kumar             : LibInt (2-el integral package), F12 methods
   Garnet Chan, S. Sharma, J. Yang, R. Olivares  : DMRG
   Ulf Ekstrom                                   : XCFun DFT Library
   Mihaly Kallay                                 : mrcc  (arbitrary order and MRCC methods)
   Andreas Klamt, Michael Diedenhofen            : otool_cosmo (COSMO solvation model)
   Jiri Pittner, Ondrej Demel                    : Mk-CCSD
   Frank Weinhold                                : gennbo (NPA and NBO analysis)
   Christopher J. Cramer and Donald G. Truhlar   : smd solvation model
   Lars Goerigk                                  : TD-DFT with DH, B97 family of functionals
   V. Asgeirsson, H. Jonsson                     : NEB implementation
   FAccTs GmbH                                   : IRC, NEB, NEB-TS, Multilevel, MM, QM/MM, CI optimization
   S Lehtola, MJT Oliveira, MAL Marques          : LibXC Library


 Your calculation uses the libint2 library for the computation of 2-el integrals
 For citations please refer to: http://libint.valeyev.net

 Your ORCA version has been built with support for libXC version: 4.2.3
 For citations please refer to: https://tddft.org/programs/libxc/

 This ORCA versions uses:
   CBLAS   interface :  Fast vector & matrix operations
   LAPACKE interface :  Fast linear algebra routines
   SCALAPACK package :  Parallel linear algebra routines


----- Orbital basis set information -----
Your calculation utilizes the basis: def2-TZVP
   F. Weigend and R. Ahlrichs, Phys. Chem. Chem. Phys. 7, 3297 (2005).

----- AuxJ basis set information -----
Your calculation utilizes the auxiliary basis: def2/J
   F. Weigend, Phys. Chem. Chem. Phys. 8, 1057 (2006).

================================================================================
                                        WARNINGS
                       Please study these warnings very carefully!
================================================================================

INFO   : Checking CIS options ...

WARNING: CIS/ROCIS methods need fully converged wavefunctions
  ===> : Setting SCFConvForced true
         You can overwrite this default with %scf ConvForced false 


INFO   : the flag for use of LIBINT has been found!

================================================================================
                                       INPUT FILE
================================================================================
NAME = BTA3.inp
|  1> # ORCA input file
|  2> # BTA3.out
|  3> ! B3LYP def2-TZVP def2/J RIJCOSX Grid4 TightSCF
|  4> 
|  5> %maxcore 6000
|  6> %tddft
|  7>   maxdim 5
|  8>   nroots 50
|  9>   end
| 10> %pal
| 11>   nprocs 6
| 12>   end
| 13> 
| 14> 
| 15> * xyz 0 1
| 16>    C        2.34256        -2.72292        -0.19898
| 17>    C        2.40831        -2.11529         1.07774
| 18>    C        1.43698        -1.21851         1.51602
| 19>    C        0.35885        -1.00929         0.68900
| 20>    C        0.23140        -1.71904        -0.52895
| 21>    C        1.24232        -2.55028        -1.00497
| 22>    C        3.55864        -3.60240        -0.44260
| 23>    C        4.20244        -3.57838         0.92119
| 24>    C        3.54445        -2.67255         1.74004
| 25>    C        5.24191        -4.24255         1.56196
| 26>    C        5.35322        -3.87461         2.89182
| 27>    S        4.18874        -2.63387         3.32733
| 28>    C       -0.85881        -0.13194         0.93345
| 29>    C       -1.76560        -0.58962        -0.18177
| 30>    C       -1.08208        -1.45456        -1.02346
| 31>    C       -3.09172        -0.39766        -0.55220
| 32>    C       -3.43778        -1.15480        -1.65817
| 33>    S       -2.07090        -2.06351        -2.28326
| 34>    C        6.18560        -4.47414         3.88238
| 35>    C       -4.74399        -1.33888        -2.20012
| 36>    C       -1.39976        -0.37910         2.32556
| 37>    C       -0.57541         1.34355         0.69871
| 38>    C        3.11791        -4.97383        -0.90789
| 39>    C        4.54941        -2.97840        -1.41311
| 40>    C        6.06420        -4.18896         5.24161
| 41>    C        6.75842        -4.87205         6.23003
| 42>    C        7.66179        -5.89619         5.94916
| 43>    C        7.87110        -6.15052         4.57085
| 44>    C        7.13965        -5.46842         3.55500
| 45>    C       -5.02983        -2.30662        -3.16197
| 46>    C       -6.31682        -2.60279        -3.58786
| 47>    C       -7.44411        -1.93860        -3.10662
| 48>    C       -7.17778        -0.88913        -2.19244
| 49>    C       -5.85935        -0.60230        -1.73197
| 50>    N        8.67909        -7.02777         3.96159
| 51>    N        8.43724        -6.86161         2.69023
| 52>    N        7.54191        -5.96650         2.37563
| 53>    N       -8.01085        -0.04315        -1.57284
| 54>    N       -7.23277         0.68126        -0.81629
| 55>    N       -5.95784         0.40744        -0.85365
| 56>    C        8.33223        -6.70920         6.90624
| 57>    C        8.09473        -6.84335         8.23369
| 58>    C       -8.79752        -2.25252        -3.41767
| 59>    C       -9.30324        -3.35907        -4.01445
| 60>    C       -7.75728         1.72363         0.01134
| 61>    C        9.12291        -7.62618         1.69431
| 62>    C      -10.74200        -3.55011        -4.17712
| 63>    N      -11.01202        -4.80887        -4.70621
| 64>    C       -9.93469        -5.59027        -4.97157
| 65>    S       -8.43577        -4.76829        -4.59555
| 66>    C        8.83651        -7.80162         9.04880
| 67>    N        8.33436        -7.83266        10.34658
| 68>    C        7.29963        -6.99438        10.60820
| 69>    S        6.87221        -6.04227         9.20296
| 70>    C        8.91000        -8.73567        11.31332
| 71>    O        9.75440        -8.49943         8.68239
| 72>    C        6.61648        -6.84310        11.78777
| 73>    C        5.55713        -5.91499        11.86109
| 74>    C        6.85875        -7.54706        12.97987
| 75>    C        2.85447        -5.99135        -0.00281
| 76>    C        2.41458        -7.22695        -0.44340
| 77>    C        2.21582        -7.47536        -1.79415
| 78>    C        2.46690        -6.44753        -2.69579
| 79>    C        2.91028        -5.21383        -2.26132
| 80>    C        4.42262        -1.67550        -1.86847
| 81>    C        5.36940        -1.13579        -2.72265
| 82>    C        6.46576        -1.87725        -3.13621
| 83>    C        6.59278        -3.18095        -2.66794
| 84>    C        5.65161        -3.72399        -1.81725
| 85>    C       -2.34825        -1.36251         2.56501
| 86>    C       -2.80306        -1.60213         3.84950
| 87>    C       -2.31635        -0.87631         4.92749
| 88>    C       -1.35468         0.09756         4.68417
| 89>    C       -0.90062         0.34339         3.40320
| 90>    C        0.60984         1.79043         0.13599
| 91>    C        0.81050         3.14041        -0.09711
| 92>    C       -0.16543         4.07391         0.21771
| 93>    C       -1.35673         3.61840         0.77292
| 94>    C       -1.56172         2.27399         1.00762
| 95>    O      -11.60996        -2.75712        -3.89173
| 96>    C      -12.37956        -5.21337        -4.92421
| 97>    C       -9.92373        -6.86781        -5.47031
| 98>    C       -8.69103        -7.52223        -5.67254
| 99>    C      -11.05280        -7.63408        -5.80681
|100>    N        4.69305        -5.16322        11.92442
|101>    N        7.00365        -8.08979        13.98140
|102>    N      -11.93348        -8.31134        -6.09736
|103>    N       -7.69096        -8.05947        -5.83856
|104>    C       -2.79320        -1.14127         6.32256
|105>    C        0.04058         5.53499        -0.04183
|106>    C        7.49952        -1.29661        -4.05205
|107>    C        1.72471        -8.80572        -2.27664
|108>    H        1.51979        -0.73773         2.47864
|109>    H        1.14332        -3.05767        -1.95228
|110>    H        5.87783        -4.99051         1.12670
|111>    H       -3.80723         0.22033        -0.04283
|112>    H        5.36738        -3.41965         5.54118
|113>    H        6.58202        -4.58869         7.25603
|114>    H       -4.20913        -2.87853        -3.57001
|115>    H       -6.43612        -3.38206        -4.32447
|116>    H        9.10573        -7.35718         6.50967
|117>    H       -9.53523        -1.53404        -3.07863
|118>    H       -8.83351         1.75993        -0.13874
|119>    H       -7.30579         2.67736        -0.26348
|120>    H       -7.53021         1.51677         1.05771
|121>    H        9.81732        -8.29076         2.20251
|122>    H        9.66299        -6.95905         1.02184
|123>    H        8.40568        -8.20562         1.11198
|124>    H        9.71608        -9.26468        10.80376
|125>    H        8.16680        -9.45158        11.66592
|126>    H        9.31138        -8.18693        12.16573
|127>    H        2.99634        -5.82245         1.05479
|128>    H        2.22219        -8.00899         0.27743
|129>    H        2.31372        -6.61767        -3.75201
|130>    H        3.10879        -4.43198        -2.98054
|131>    H        3.57917        -1.07398        -1.56303
|132>    H        5.24857        -0.11995        -3.07142
|133>    H        7.44118        -3.77529        -2.97620
|134>    H        5.76293        -4.74027        -1.46872
|135>    H       -2.73987        -1.94539         1.74401
|136>    H       -3.54798        -2.36783         4.01380
|137>    H       -0.95807         0.67099         5.50993
|138>    H       -0.15961         1.11204         3.23562
|139>    H        1.38793         1.08634        -0.11972
|140>    H        1.74435         3.46878        -0.53100
|141>    H       -2.13142         4.32913         1.02348
|142>    H       -2.49084         1.93887         1.44487
|143>    H      -13.00471        -4.37254        -4.62192
|144>    H      -12.62595        -6.08874        -4.32229
|145>    H      -12.55325        -5.44146        -5.97615
|146>    H       -3.71540        -1.71695         6.31702
|147>    H       -2.96255        -0.20775         6.85573
|148>    H       -2.04098        -1.70693         6.87278
|149>    H        1.07504         5.74257        -0.30341
|150>    H       -0.22443         6.12163         0.83609
|151>    H       -0.59443         5.86315        -0.86490
|152>    H        7.17003        -0.34351        -4.45780
|153>    H        7.70651        -1.97669        -4.87658
|154>    H        8.43245        -1.13615        -3.51152
|155>    H        1.83681        -9.56564        -1.50734
|156>    H        2.27021        -9.11880        -3.16478
|157>    H        0.66895        -8.74027        -2.54055
|158> *
|159> 
|160>                          ****END OF INPUT****
================================================================================

                       ****************************
                       * Single Point Calculation *
                       ****************************

---------------------------------
CARTESIAN COORDINATES (ANGSTROEM)
---------------------------------
  C      2.342560   -2.722920   -0.198980
  C      2.408310   -2.115290    1.077740
  C      1.436980   -1.218510    1.516020
  C      0.358850   -1.009290    0.689000
  C      0.231400   -1.719040   -0.528950
  C      1.242320   -2.550280   -1.004970
  C      3.558640   -3.602400   -0.442600
  C      4.202440   -3.578380    0.921190
  C      3.544450   -2.672550    1.740040
  C      5.241910   -4.242550    1.561960
  C      5.353220   -3.874610    2.891820
  S      4.188740   -2.633870    3.327330
  C     -0.858810   -0.131940    0.933450
  C     -1.765600   -0.589620   -0.181770
  C     -1.082080   -1.454560   -1.023460
  C     -3.091720   -0.397660   -0.552200
  C     -3.437780   -1.154800   -1.658170
  S     -2.070900   -2.063510   -2.283260
  C      6.185600   -4.474140    3.882380
  C     -4.743990   -1.338880   -2.200120
  C     -1.399760   -0.379100    2.325560
  C     -0.575410    1.343550    0.698710
  C      3.117910   -4.973830   -0.907890
  C      4.549410   -2.978400   -1.413110
  C      6.064200   -4.188960    5.241610
  C      6.758420   -4.872050    6.230030
  C      7.661790   -5.896190    5.949160
  C      7.871100   -6.150520    4.570850
  C      7.139650   -5.468420    3.555000
  C     -5.029830   -2.306620   -3.161970
  C     -6.316820   -2.602790   -3.587860
  C     -7.444110   -1.938600   -3.106620
  C     -7.177780   -0.889130   -2.192440
  C     -5.859350   -0.602300   -1.731970
  N      8.679090   -7.027770    3.961590
  N      8.437240   -6.861610    2.690230
  N      7.541910   -5.966500    2.375630
  N     -8.010850   -0.043150   -1.572840
  N     -7.232770    0.681260   -0.816290
  N     -5.957840    0.407440   -0.853650
  C      8.332230   -6.709200    6.906240
  C      8.094730   -6.843350    8.233690
  C     -8.797520   -2.252520   -3.417670
  C     -9.303240   -3.359070   -4.014450
  C     -7.757280    1.723630    0.011340
  C      9.122910   -7.626180    1.694310
  C    -10.742000   -3.550110   -4.177120
  N    -11.012020   -4.808870   -4.706210
  C     -9.934690   -5.590270   -4.971570
  S     -8.435770   -4.768290   -4.595550
  C      8.836510   -7.801620    9.048800
  N      8.334360   -7.832660   10.346580
  C      7.299630   -6.994380   10.608200
  S      6.872210   -6.042270    9.202960
  C      8.910000   -8.735670   11.313320
  O      9.754400   -8.499430    8.682390
  C      6.616480   -6.843100   11.787770
  C      5.557130   -5.914990   11.861090
  C      6.858750   -7.547060   12.979870
  C      2.854470   -5.991350   -0.002810
  C      2.414580   -7.226950   -0.443400
  C      2.215820   -7.475360   -1.794150
  C      2.466900   -6.447530   -2.695790
  C      2.910280   -5.213830   -2.261320
  C      4.422620   -1.675500   -1.868470
  C      5.369400   -1.135790   -2.722650
  C      6.465760   -1.877250   -3.136210
  C      6.592780   -3.180950   -2.667940
  C      5.651610   -3.723990   -1.817250
  C     -2.348250   -1.362510    2.565010
  C     -2.803060   -1.602130    3.849500
  C     -2.316350   -0.876310    4.927490
  C     -1.354680    0.097560    4.684170
  C     -0.900620    0.343390    3.403200
  C      0.609840    1.790430    0.135990
  C      0.810500    3.140410   -0.097110
  C     -0.165430    4.073910    0.217710
  C     -1.356730    3.618400    0.772920
  C     -1.561720    2.273990    1.007620
  O    -11.609960   -2.757120   -3.891730
  C    -12.379560   -5.213370   -4.924210
  C     -9.923730   -6.867810   -5.470310
  C     -8.691030   -7.522230   -5.672540
  C    -11.052800   -7.634080   -5.806810
  N      4.693050   -5.163220   11.924420
  N      7.003650   -8.089790   13.981400
  N    -11.933480   -8.311340   -6.097360
  N     -7.690960   -8.059470   -5.838560
  C     -2.793200   -1.141270    6.322560
  C      0.040580    5.534990   -0.041830
  C      7.499520   -1.296610   -4.052050
  C      1.724710   -8.805720   -2.276640
  H      1.519790   -0.737730    2.478640
  H      1.143320   -3.057670   -1.952280
  H      5.877830   -4.990510    1.126700
  H     -3.807230    0.220330   -0.042830
  H      5.367380   -3.419650    5.541180
  H      6.582020   -4.588690    7.256030
  H     -4.209130   -2.878530   -3.570010
  H     -6.436120   -3.382060   -4.324470
  H      9.105730   -7.357180    6.509670
  H     -9.535230   -1.534040   -3.078630
  H     -8.833510    1.759930   -0.138740
  H     -7.305790    2.677360   -0.263480
  H     -7.530210    1.516770    1.057710
  H      9.817320   -8.290760    2.202510
  H      9.662990   -6.959050    1.021840
  H      8.405680   -8.205620    1.111980
  H      9.716080   -9.264680   10.803760
  H      8.166800   -9.451580   11.665920
  H      9.311380   -8.186930   12.165730
  H      2.996340   -5.822450    1.054790
  H      2.222190   -8.008990    0.277430
  H      2.313720   -6.617670   -3.752010
  H      3.108790   -4.431980   -2.980540
  H      3.579170   -1.073980   -1.563030
  H      5.248570   -0.119950   -3.071420
  H      7.441180   -3.775290   -2.976200
  H      5.762930   -4.740270   -1.468720
  H     -2.739870   -1.945390    1.744010
  H     -3.547980   -2.367830    4.013800
  H     -0.958070    0.670990    5.509930
  H     -0.159610    1.112040    3.235620
  H      1.387930    1.086340   -0.119720
  H      1.744350    3.468780   -0.531000
  H     -2.131420    4.329130    1.023480
  H     -2.490840    1.938870    1.444870
  H    -13.004710   -4.372540   -4.621920
  H    -12.625950   -6.088740   -4.322290
  H    -12.553250   -5.441460   -5.976150
  H     -3.715400   -1.716950    6.317020
  H     -2.962550   -0.207750    6.855730
  H     -2.040980   -1.706930    6.872780
  H      1.075040    5.742570   -0.303410
  H     -0.224430    6.121630    0.836090
  H     -0.594430    5.863150   -0.864900
  H      7.170030   -0.343510   -4.457800
  H      7.706510   -1.976690   -4.876580
  H      8.432450   -1.136150   -3.511520
  H      1.836810   -9.565640   -1.507340
  H      2.270210   -9.118800   -3.164780
  H      0.668950   -8.740270   -2.540550

----------------------------
CARTESIAN COORDINATES (A.U.)
----------------------------
  NO LB      ZA    FRAG     MASS         X           Y           Z
   0 C     6.0000    0    12.011    4.426797   -5.145573   -0.376018
   1 C     6.0000    0    12.011    4.551046   -3.997319    2.036633
   2 C     6.0000    0    12.011    2.715499   -2.302650    2.864863
   3 C     6.0000    0    12.011    0.678128   -1.907282    1.302021
   4 C     6.0000    0    12.011    0.437283   -3.248515   -0.999571
   5 C     6.0000    0    12.011    2.347645   -4.819331   -1.899118
   6 C     6.0000    0    12.011    6.724855   -6.807549   -0.836393
   7 C     6.0000    0    12.011    7.941461   -6.762158    1.740797
   8 C     6.0000    0    12.011    6.698040   -5.050388    3.288199
   9 C     6.0000    0    12.011    9.905774   -8.017258    2.951677
  10 C     6.0000    0    12.011   10.116120   -7.321952    5.464748
  11 S    16.0000    0    32.060    7.915571   -4.977293    6.287742
  12 C     6.0000    0    12.011   -1.622916   -0.249330    1.763965
  13 C     6.0000    0    12.011   -3.336500   -1.114220   -0.343496
  14 C     6.0000    0    12.011   -2.044835   -2.748720   -1.934059
  15 C     6.0000    0    12.011   -5.842504   -0.751468   -1.043507
  16 C     6.0000    0    12.011   -6.496463   -2.182256   -3.133487
  17 S    16.0000    0    32.060   -3.913434   -3.899469   -4.314736
  18 C     6.0000    0    12.011   11.689090   -8.454899    7.336635
  19 C     6.0000    0    12.011   -8.964842   -2.530117   -4.157624
  20 C     6.0000    0    12.011   -2.645163   -0.716395    4.394672
  21 C     6.0000    0    12.011   -1.087367    2.538942    1.320371
  22 C     6.0000    0    12.011    5.891996   -9.399177   -1.715663
  23 C     6.0000    0    12.011    8.597139   -5.628360   -2.670391
  24 C     6.0000    0    12.011   11.459677   -7.915987    9.905207
  25 C     6.0000    0    12.011   12.771563   -9.206840   11.773051
  26 C     6.0000    0    12.011   14.478685  -11.142184   11.242283
  27 C     6.0000    0    12.011   14.874223  -11.622798    8.637655
  28 C     6.0000    0    12.011   13.491983  -10.333816    6.717976
  29 C     6.0000    0    12.011   -9.505001   -4.358880   -5.975257
  30 C     6.0000    0    12.011  -11.937060   -4.918560   -6.780073
  31 C     6.0000    0    12.011  -14.067329   -3.663423   -5.870661
  32 C     6.0000    0    12.011  -13.564038   -1.680212   -4.143111
  33 C     6.0000    0    12.011  -11.072567   -1.138182   -3.272949
  34 N     7.0000    0    14.007   16.401103  -13.280561    7.486320
  35 N     7.0000    0    14.007   15.944073  -12.966564    5.083798
  36 N     7.0000    0    14.007   14.252144  -11.275051    4.489290
  37 N     7.0000    0    14.007  -15.138313   -0.081542   -2.972237
  38 N     7.0000    0    14.007  -13.667954    1.287395   -1.542565
  39 N     7.0000    0    14.007  -11.258686    0.769950   -1.613165
  40 C     6.0000    0    12.011   15.745633  -12.678551   13.050902
  41 C     6.0000    0    12.011   15.296823  -12.932057   15.559419
  42 C     6.0000    0    12.011  -16.624903   -4.256646   -6.458460
  43 C     6.0000    0    12.011  -17.580576   -6.347722   -7.586211
  44 C     6.0000    0    12.011  -14.659135    3.257189    0.021429
  45 C     6.0000    0    12.011   17.239801  -14.411392    3.201782
  46 C     6.0000    0    12.011  -20.299438   -6.708736   -7.893613
  47 N     7.0000    0    14.007  -20.809702   -9.087447   -8.893448
  48 C     6.0000    0    12.011  -18.773843  -10.564079   -9.394906
  49 S    16.0000    0    32.060  -15.941295   -9.010762   -8.684331
  50 C     6.0000    0    12.011   16.698584  -14.742925   17.099754
  51 N     7.0000    0    14.007   15.749658  -14.801582   19.552203
  52 C     6.0000    0    12.011   13.794302  -13.217463   20.046593
  53 S    16.0000    0    32.060   12.986595  -11.418236   17.391074
  54 C     6.0000    0    12.011   16.837460  -16.508024   21.379076
  55 O     8.0000    0    15.999   18.433145  -16.061595   16.407339
  56 C     6.0000    0    12.011   12.503335  -12.931585   22.275657
  57 C     6.0000    0    12.011   10.501454  -11.177711   22.414212
  58 C     6.0000    0    12.011   12.961159  -14.261877   24.528400
  59 C     6.0000    0    12.011    5.394167  -11.322011   -0.005310
  60 C     6.0000    0    12.011    4.562895  -13.656956   -0.837905
  61 C     6.0000    0    12.011    4.187293  -14.126383   -3.390452
  62 C     6.0000    0    12.011    4.661765  -12.184066   -5.094305
  63 C     6.0000    0    12.011    5.499632   -9.852711   -4.273276
  64 C     6.0000    0    12.011    8.357541   -3.166236   -3.530897
  65 C     6.0000    0    12.011   10.146696   -2.146332   -5.145063
  66 C     6.0000    0    12.011   12.218516   -3.547488   -5.926578
  67 C     6.0000    0    12.011   12.458549   -6.011124   -5.041676
  68 C     6.0000    0    12.011   10.679995   -7.037321   -3.434105
  69 C     6.0000    0    12.011   -4.437549   -2.574771    4.847166
  70 C     6.0000    0    12.011   -5.297016   -3.027587    7.274501
  71 C     6.0000    0    12.011   -4.377267   -1.655986    9.311607
  72 C     6.0000    0    12.011   -2.559974    0.184362    8.851798
  73 C     6.0000    0    12.011   -1.701925    0.648913    6.431116
  74 C     6.0000    0    12.011    1.152431    3.383422    0.256984
  75 C     6.0000    0    12.011    1.531623    5.934515   -0.183511
  76 C     6.0000    0    12.011   -0.312617    7.698574    0.411412
  77 C     6.0000    0    12.011   -2.563848    6.837785    1.460607
  78 C     6.0000    0    12.011   -2.951223    4.297218    1.904126
  79 O     8.0000    0    15.999  -21.939645   -5.210202   -7.354304
  80 C     6.0000    0    12.011  -23.393978   -9.851842   -9.305408
  81 C     6.0000    0    12.011  -18.753132  -12.978280  -10.337388
  82 C     6.0000    0    12.011  -16.423667  -14.214955  -10.719547
  83 C     6.0000    0    12.011  -20.886765  -14.426320  -10.973281
  84 N     7.0000    0    14.007    8.868579   -9.757072   22.533888
  85 N     7.0000    0    14.007   13.234980  -15.287488   26.421017
  86 N     7.0000    0    14.007  -22.551009  -15.706156  -11.522341
  87 N     7.0000    0    14.007  -14.533808  -15.230191  -11.033279
  88 C     6.0000    0    12.011   -5.278383   -2.156688   11.947907
  89 C     6.0000    0    12.011    0.076685   10.459615   -0.079047
  90 C     6.0000    0    12.011   14.172039   -2.450238   -7.657265
  91 C     6.0000    0    12.011    3.259230  -16.640399   -4.302226
  92 H     1.0000    0     1.008    2.871987   -1.394108    4.683951
  93 H     1.0000    0     1.008    2.160562   -5.778159   -3.689275
  94 H     1.0000    0     1.008   11.107489   -9.430697    2.129154
  95 H     1.0000    0     1.008   -7.194622    0.416363   -0.080937
  96 H     1.0000    0     1.008   10.142878   -6.462202   10.471313
  97 H     1.0000    0     1.008   12.438215   -8.671367   13.711910
  98 H     1.0000    0     1.008   -7.954103   -5.439633   -6.746341
  99 H     1.0000    0     1.008  -12.162504   -6.391167   -8.172064
 100 H     1.0000    0     1.008   17.207336  -13.903055   12.301494
 101 H     1.0000    0     1.008  -18.018973   -2.898915   -5.817768
 102 H     1.0000    0     1.008  -16.692915    3.325786   -0.262181
 103 H     1.0000    0     1.008  -13.805942    5.059477   -0.497905
 104 H     1.0000    0     1.008  -14.230035    2.866280    1.998782
 105 H     1.0000    0     1.008   18.552046  -15.667266    4.162141
 106 H     1.0000    0     1.008   18.260405  -13.150699    1.930998
 107 H     1.0000    0     1.008   15.884433  -15.506375    2.101338
 108 H     1.0000    0     1.008   18.360730  -17.507708   20.416148
 109 H     1.0000    0     1.008   15.433015  -17.860898   22.045394
 110 H     1.0000    0     1.008   17.595958  -15.471056   22.989898
 111 H     1.0000    0     1.008    5.662262  -11.002836    1.993264
 112 H     1.0000    0     1.008    4.199331  -15.134798    0.524267
 113 H     1.0000    0     1.008    4.372297  -12.505584   -7.090271
 114 H     1.0000    0     1.008    5.874762   -8.375228   -5.632404
 115 H     1.0000    0     1.008    6.763651   -2.029528   -2.953699
 116 H     1.0000    0     1.008    9.918360   -0.226673   -5.804143
 117 H     1.0000    0     1.008   14.061792   -7.134264   -5.624203
 118 H     1.0000    0     1.008   10.890359   -8.957812   -2.775479
 119 H     1.0000    0     1.008   -5.177604   -3.676254    3.295701
 120 H     1.0000    0     1.008   -6.704711   -4.474550    7.584983
 121 H     1.0000    0     1.008   -1.810490    1.267987   10.412259
 122 H     1.0000    0     1.008   -0.301619    2.101451    6.114436
 123 H     1.0000    0     1.008    2.622808    2.052885   -0.226238
 124 H     1.0000    0     1.008    3.296344    6.555044   -1.003445
 125 H     1.0000    0     1.008   -4.027800    8.180870    1.934097
 126 H     1.0000    0     1.008   -4.707005    3.663933    2.730409
 127 H     1.0000    0     1.008  -24.575340   -8.262903   -8.734163
 128 H     1.0000    0     1.008  -23.859588  -11.506051   -8.167944
 129 H     1.0000    0     1.008  -23.722205  -10.282869  -11.293287
 130 H     1.0000    0     1.008   -7.021088   -3.244565   11.937438
 131 H     1.0000    0     1.008   -5.598408   -0.392591   12.955452
 132 H     1.0000    0     1.008   -3.856893   -3.225630   12.987672
 133 H     1.0000    0     1.008    2.031531   10.851885   -0.573362
 134 H     1.0000    0     1.008   -0.424111   11.568204    1.579981
 135 H     1.0000    0     1.008   -1.123310   11.079748   -1.634424
 136 H     1.0000    0     1.008   13.549393   -0.649140   -8.424021
 137 H     1.0000    0     1.008   14.563193   -3.735403   -9.215401
 138 H     1.0000    0     1.008   15.935021   -2.147012   -6.635811
 139 H     1.0000    0     1.008    3.471068  -18.076440   -2.848460
 140 H     1.0000    0     1.008    4.290075  -17.232035   -5.980567
 141 H     1.0000    0     1.008    1.264132  -16.516717   -4.800944

--------------------------------
INTERNAL COORDINATES (ANGSTROEM)
--------------------------------
 C      0   0   0     0.000000000000     0.00000000     0.00000000
 C      1   0   0     1.415468557687     0.00000000     0.00000000
 C      2   1   0     1.392761894833   121.86020705     0.00000000
 C      3   2   1     1.374808854241   117.10366694     4.05503499
 C      4   3   2     1.415411872036   120.79273094     2.25864316
 C      1   2   3     1.374755435450   120.80229855   353.48308131
 C      1   2   3     1.520423079672   110.83549139   177.33502074
 C      7   1   2     1.508303207084   100.79559437     8.12798565
 C      8   7   1     1.387081162550   109.98047040   352.73306473
 C      8   7   1     1.390038079586   136.75125124   170.70518416
 C     10   8   7     1.384303933138   112.08454696   184.02973283
 S      9   8   7     1.713503805248   112.53401566   177.93019338
 C      4   3   2     1.520590247437   128.24864037   177.68960856
 C     13   4   3     1.508461048519   100.80495185   192.22424331
 C     14  13   4     1.386997783019   109.97495771   352.86644008
 C     14  13   4     1.390201884943   136.76298067   170.75282038
 C     16  14  13     1.384264477656   112.07597604   184.18274658
 S     15  14  13     1.713382950452   112.54585310   177.79604754
 C     11  10   8     1.426009045869   127.04967535   171.30923584
 C     17  16  14     1.426106522319   127.09940791   171.21227676
 C     13   4   3     1.513831305067   109.86355685   313.47120127
 C     13   4   3     1.520687070932   112.69214113    78.49945765
 C      7   1   2     1.513789272620   109.90314112   129.46712140
 C      7   1   2     1.520819138820   112.70455535   254.39623235
 C     19  11  10     1.394120434288   122.71236105   191.35285605
 C     25  19  11     1.387633760363   123.38181943   172.41451388
 C     26  25  19     1.394212341575   122.83808376     1.10334589
 C     27  26  25     1.417121336054   115.05390040     2.87783637
 C     19  11  10     1.416326863863   121.85520365     7.25942948
 C     20  17  16     1.394051876976   122.65718633   192.04519790
 C     30  20  17     1.387603048822   123.37468183   172.37402301
 C     31  30  20     1.394102950933   122.84330968     1.18798509
 C     32  31  30     1.417054699791   115.05971040     2.87266885
 C     20  17  16     1.416242369265   121.90993636     7.96120716
 N     28  27  26     1.339258432940   130.47612266   178.38179890
 N     35  28  27     1.304782287472   104.36079365   178.01279347
 N     36  35  28     1.304534737368   116.71642277   359.61373347
 N     33  32  31     1.339250516259   130.49476767   178.34833607
 N     38  33  32     1.304816553007   104.36005833   177.96249025
 N     39  38  33     1.304538104810   116.72079088   359.60193862
 C     27  26  25     1.423543880637   126.10304230   185.12565654
 C     41  27  26     1.355184849015   129.23920847    12.51726676
 C     32  31  30     1.423733295600   126.02994472   185.06917099
 C     43  32  31     1.355120654886   129.12530289    13.33344619
 C     39  38  33     1.430600354362   121.42094590   179.58496632
 C     36  35  28     1.430582846325   121.42828719   179.62096183
 C     44  43  32     1.460475315813   121.56778639   175.93182224
 N     47  44  43     1.391877784182   110.59427139   185.32349371
 C     48  47  44     1.357071044014   116.17104732   359.55277294
 S     49  48  47     1.750372339589   111.55642544   358.81248382
 C     42  41  27     1.460453105512   121.50937751   175.84963346
 N     51  42  41     1.391887578973   110.59621699   185.11283994
 C     52  51  42     1.357138370138   116.16948352   359.47151084
 S     53  52  51     1.750400173132   111.55506025   358.99642952
 C     52  51  42     1.442697022004   119.65635231   178.79565725
 O     51  42  41     1.209841781515   126.49579566     4.37467129
 C     53  52  51     1.371482754467   127.85810856   179.03056353
 C     57  53  52     1.410314297240   119.43634658   180.25848161
 C     57  53  52     1.405473886097   126.04257979   359.74798477
 C     23   7   1     1.387053492263   121.28725649   270.63624955
 C     60  23   7     1.383593191729   120.51168620   178.08313161
 C     61  60  23     1.387709850149   121.02118408   359.45404844
 C     62  61  60     1.390118831216   118.23617893   359.82279079
 C     63  62  61     1.381074109271   120.95901808     0.39035629
 C     24   7   1     1.385993089341   122.39618746     8.13860499
 C     65  24   7     1.384667008670   120.43310491   178.17025692
 C     66  65  24     1.386650660693   121.07642718   359.64160219
 C     67  66  65     1.391058792180   118.22474808   359.88145648
 C     68  67  66     1.379988002339   120.93304475     0.16352849
 C     21  13   4     1.387106632779   121.25454366   270.71502840
 C     70  21  13     1.383540545340   120.51983653   178.07608733
 C     71  70  21     1.387718896823   121.01847274   359.45270849
 C     72  71  70     1.390121069619   118.23423927   359.80873318
 C     73  72  71     1.381118030220   120.96224670     0.39941536
 C     22  13   4     1.386063885721   122.33435815     8.80741527
 C     75  22  13     1.384574319421   120.43973440   178.05210913
 C     76  75  22     1.386713109226   121.07365245   359.65856284
 C     77  76  75     1.391022355751   118.22264250   359.86082557
 C     78  77  76     1.380051896923   120.93716086     0.15522381
 O     47  44  43     1.209807899544   126.49515027     4.60181632
 C     48  47  44     1.442674565382   119.66318232   178.83788524
 C     49  48  47     1.371484655693   127.86544391   178.83556759
 C     82  49  48     1.410216933418   119.43284683   180.33688460
 C     82  49  48     1.405418452917   126.05256364   359.77719068
 N     58  57  53     1.147084595050   179.72937012   149.43643773
 N     59  57  53     1.148309280551   176.60665968   183.08275994
 N     84  82  49     1.148345624148   176.61084299   182.36248904
 N     83  82  49     1.147314021051   179.71125267   175.24148087
 C     72  71  70     1.497935255276   121.28514366   180.69723833
 C     77  76  75     1.498184200324   121.35910489   180.49275565
 C     67  66  65     1.498187389081   121.37507741   180.46403654
 C     62  61  60     1.497946381484   121.29609606   180.71173470
 H      3   2   1     1.079186809084   120.93273937   182.14191901
 H      6   1   2     1.079185733875   121.93869799   184.19900303
 H     10   8   7     1.073913253294   126.06913296     1.42500145
 H     16  14  13     1.073929232818   126.05907289     1.56534557
 H     25  19  11     1.080341692892   118.17622319   354.63588201
 H     26  25  19     1.078928102146   117.79325456   181.12111747
 H     30  20  17     1.080336141995   118.18541156   354.61777268
 H     31  30  20     1.078929337353   117.79176887   181.11127810
 H     41  27  26     1.084180840681   115.55794837   188.56441777
 H     43  32  31     1.084148364432   115.61974344   189.32215206
 H     45  39  38     1.087250067510   107.90201237   359.54620373
 H     45  39  38     1.090399085381   109.85752800   239.34020425
 H     45  39  38     1.090523737202   109.90994765   119.71030233
 H     46  36  35     1.087262187561   107.90229476   359.49836040
 H     46  36  35     1.090396599499   109.86158329   239.28805771
 H     46  36  35     1.090540148459   109.90642790   119.65864235
 H     55  52  51     1.090535620739   106.58571591     0.88889464
 H     55  52  51     1.090504529152   110.83321377   241.62290793
 H     55  52  51     1.090332197131   110.83902760   120.22817924
 H     60  23   7     1.080357379250   119.94361471   357.85046635
 H     61  60  23     1.080831329394   119.36552497   179.53206944
 H     63  62  61     1.080746233119   119.46471130   180.31823296
 H     64  63  62     1.080728018976   119.72650548   179.38480122
 H     65  24   7     1.080059168055   120.13705847   357.82770345
 H     66  65  24     1.080819738624   119.27252976   179.59965453
 H     68  67  66     1.080762149226   119.41003551   180.14563024
 H     69  68  67     1.080134409090   119.92521100   179.59591629
 H     70  21  13     1.080350090850   119.94654312   357.84778112
 H     71  70  21     1.080831525447   119.36618467   179.53644791
 H     73  72  71     1.080740965542   119.46199257   180.32325099
 H     74  73  72     1.080741272923   119.72422348   179.39348141
 H     75  22  13     1.080071469996   120.13074524   357.72643222
 H     76  75  22     1.080815993359   119.27685828   179.61680396
 H     78  77  76     1.080769190253   119.41071819   180.14422747
 H     79  78  77     1.080165242590   119.92367094   179.63874610
 H     81  48  47     1.090498443603   106.57902038     1.06160764
 H     81  48  47     1.090544980916   110.84388960   241.79219131
 H     81  48  47     1.090307767468   110.82122003   120.39421738
 H     89  72  71     1.087148101226   111.03619968   343.51201400
 H     89  72  71     1.088305683988   110.73681804   222.34001705
 H     89  72  71     1.090205582631   110.00888875   103.31818981
 H     90  77  76     1.087023939203   111.02510424   349.03857417
 H     90  77  76     1.088632314466   110.63130736   228.09073407
 H     90  77  76     1.090124263834   110.13742834   109.07681525
 H     91  67  66     1.087012572420   111.02927990   349.67211118
 H     91  67  66     1.088670467773   110.61383988   228.74557916
 H     91  67  66     1.090081867293   110.14892656   109.74104898
 H     92  62  61     1.087137206796   111.04302825   343.57289152
 H     92  62  61     1.088293157196   110.73347596   222.39854655
 H     92  62  61     1.090211616247   110.00785607   103.38331944

---------------------------
INTERNAL COORDINATES (A.U.)
---------------------------
 C      0   0   0     0.000000000000     0.00000000     0.00000000
 C      1   0   0     2.674847925205     0.00000000     0.00000000
 C      2   1   0     2.631938550996   121.86020705     0.00000000
 C      3   2   1     2.598012221006   117.10366694     4.05503499
 C      4   3   2     2.674740804849   120.79273094     2.25864316
 C      1   2   3     2.597911274121   120.80229855   353.48308131
 C      1   2   3     2.873183228274   110.83549139   177.33502074
 C      7   1   2     2.850279988304   100.79559437     8.12798565
 C      8   7   1     2.621203522740   109.98047040   352.73306473
 C      8   7   1     2.626791286140   136.75125124   170.70518416
 C     10   8   7     2.615955319740   112.08454696   184.02973283
 S      9   8   7     3.238052921351   112.53401566   177.93019338
 C      4   3   2     2.873499129567   128.24864037   177.68960856
 C     13   4   3     2.850578265389   100.80495185   192.22424331
 C     14  13   4     2.621045958262   109.97495771   352.86644008
 C     14  13   4     2.627100833404   136.76298067   170.75282038
 C     16  14  13     2.615880759685   112.07597604   184.18274658
 S     15  14  13     3.237824538884   112.54585310   177.79604754
 C     11  10   8     2.694766561187   127.04967535   171.30923584
 C     17  16  14     2.694950764981   127.09940791   171.21227676
 C     13   4   3     2.860726579533   109.86355685   313.47120127
 C     13   4   3     2.873682099457   112.69214113    78.49945765
 C      7   1   2     2.860647149720   109.90314112   129.46712140
 C      7   1   2     2.873931671595   112.70455535   254.39623235
 C     19  11  10     2.634505818508   122.71236105   191.35285605
 C     25  19  11     2.622247781270   123.38181943   172.41451388
 C     26  25  19     2.634679498110   122.83808376     1.10334589
 C     27  26  25     2.677971223679   115.05390040     2.87783637
 C     19  11  10     2.676469888817   121.85520365     7.25942948
 C     20  17  16     2.634376263963   122.65718633   192.04519790
 C     30  20  17     2.622189744868   123.37468183   172.37402301
 C     31  30  20     2.634472779755   122.84330968     1.18798509
 C     32  31  30     2.677845299391   115.05971040     2.87266885
 C     20  17  16     2.676310217166   121.90993636     7.96120716
 N     28  27  26     2.530831660801   130.47612266   178.38179890
 N     35  28  27     2.465681187713   104.36079365   178.01279347
 N     36  35  28     2.465213385813   116.71642277   359.61373347
 N     33  32  31     2.530816700442   130.49476767   178.34833607
 N     38  33  32     2.465745940190   104.36005833   177.96249025
 N     39  38  33     2.465219749355   116.72079088   359.60193862
 C     27  26  25     2.690108074024   126.10304230   185.12565654
 C     41  27  26     2.560928225478   129.23920847    12.51726676
 C     32  31  30     2.690466016429   126.02994472   185.06917099
 C     43  32  31     2.560806916155   129.12530289    13.33344619
 C     39  38  33     2.703442876834   121.42094590   179.58496632
 C     36  35  28     2.703409791440   121.42828719   179.62096183
 C     44  43  32     2.759898372239   121.56778639   175.93182224
 N     47  44  43     2.630267823994   110.59427139   185.32349371
 C     48  47  44     2.564492617460   116.17104732   359.55277294
 S     49  48  47     3.307724354215   111.55642544   358.81248382
 C     42  41  27     2.759856400853   121.50937751   175.84963346
 N     51  42  41     2.630286333466   110.59621699   185.11283994
 C     52  51  42     2.564619845396   116.16948352   359.47151084
 S     53  52  51     3.307776951988   111.55506025   358.99642952
 C     52  51  42     2.726302265812   119.65635231   178.79565725
 O     51  42  41     2.286269632439   126.49579566     4.37467129
 C     53  52  51     2.591726803338   127.85810856   179.03056353
 C     57  53  52     2.665107784538   119.43634658   180.25848161
 C     57  53  52     2.655960733101   126.04257979   359.74798477
 C     23   7   1     2.621151233477   121.28725649   270.63624955
 C     60  23   7     2.614612213127   120.51168620   178.08313161
 C     61  60  23     2.622391570126   121.02118408   359.45404844
 C     62  61  60     2.626943884604   118.23617893   359.82279079
 C     63  62  61     2.609851837172   120.95901808     0.39035629
 C     24   7   1     2.619147362361   122.39618746     8.13860499
 C     65  24   7     2.616641433063   120.43310491   178.17025692
 C     66  65  24     2.620389992131   121.07642718   359.64160219
 C     67  66  65     2.628720153403   118.22474808   359.88145648
 C     68  67  66     2.607799392518   120.93304475     0.16352849
 C     21  13   4     2.621251654498   121.25454366   270.71502840
 C     70  21  13     2.614512725869   120.51983653   178.07608733
 C     71  70  21     2.622408665863   121.01847274   359.45270849
 C     72  71  70     2.626948114574   118.23423927   359.80873318
 C     73  72  71     2.609934835737   120.96224670     0.39941536
 C     22  13   4     2.619281148131   122.33435815     8.80741527
 C     75  22  13     2.616466275766   120.43973440   178.05210913
 C     76  75  22     2.620508002756   121.07365245   359.65856284
 C     77  76  75     2.628651298532   118.22264250   359.86082557
 C     78  77  76     2.607920135782   120.93716086     0.15522381
 O     47  44  43     2.286205604793   126.49515027     4.60181632
 C     48  47  44     2.726259828946   119.66318232   178.83788524
 C     49  48  47     2.591730396134   127.86544391   178.83556759
 C     82  49  48     2.664923793579   119.43284683   180.33688460
 C     82  49  48     2.655855979573   126.05256364   359.77719068
 N     58  57  53     2.167675737084   179.72937012   149.43643773
 N     59  57  53     2.169990057282   176.60665968   183.08275994
 N     84  82  49     2.170058736727   176.61084299   182.36248904
 N     83  82  49     2.168109289394   179.71125267   175.24148087
 C     72  71  70     2.830687398818   121.28514366   180.69723833
 C     77  76  75     2.831157836780   121.35910489   180.49275565
 C     67  66  65     2.831163862657   121.37507741   180.46403654
 C     62  61  60     2.830708424302   121.29609606   180.71173470
 H      3   2   1     2.039367516508   120.93273937   182.14191901
 H      6   1   2     2.039365484659   121.93869799   184.19900303
 H     10   8   7     2.029401940314   126.06913296     1.42500145
 H     16  14  13     2.029432137237   126.05907289     1.56534557
 H     25  19  11     2.041549930622   118.17622319   354.63588201
 H     26  25  19     2.038878631247   117.79325456   181.12111747
 H     30  20  17     2.041539440947   118.18541156   354.61777268
 H     31  30  20     2.038880965449   117.79176887   181.11127810
 H     41  27  26     2.048804868532   115.55794837   188.56441777
 H     43  32  31     2.048743497315   115.61974344   189.32215206
 H     45  39  38     2.054604866681   107.90201237   359.54620373
 H     45  39  38     2.060555648049   109.85752800   239.34020425
 H     45  39  38     2.060791205851   109.90994765   119.71030233
 H     46  36  35     2.054627770258   107.90229476   359.49836040
 H     46  36  35     2.060550950413   109.86158329   239.28805771
 H     46  36  35     2.060822218632   109.90642790   119.65864235
 H     55  52  51     2.060813662482   106.58571591     0.88889464
 H     55  52  51     2.060754907897   110.83321377   241.62290793
 H     55  52  51     2.060429247574   110.83902760   120.22817924
 H     60  23   7     2.041579573543   119.94361471   357.85046635
 H     61  60  23     2.042475209517   119.36552497   179.53206944
 H     63  62  61     2.042314400861   119.46471130   180.31823296
 H     64  63  62     2.042279981120   119.72650548   179.38480122
 H     65  24   7     2.041016036055   120.13705847   357.82770345
 H     66  65  24     2.042453306136   119.27252976   179.59965453
 H     68  67  66     2.042344477946   119.41003551   180.14563024
 H     69  68  67     2.041158221005   119.92521100   179.59591629
 H     70  21  13     2.041565800464   119.94654312   357.84778112
 H     71  70  21     2.042475580003   119.36618467   179.53644791
 H     73  72  71     2.042304446583   119.46199257   180.32325099
 H     74  73  72     2.042305027451   119.72422348   179.39348141
 H     75  22  13     2.041039283355   120.13074524   357.72643222
 H     76  75  22     2.042446228610   119.27685828   179.61680396
 H     78  77  76     2.042357783558   119.41071819   180.14422747
 H     79  78  77     2.041216487876   119.92367094   179.63874610
 H     81  48  47     2.060743407877   106.57902038     1.06160764
 H     81  48  47     2.060831350653   110.84388960   241.79219131
 H     81  48  47     2.060383082201   110.82122003   120.39421738
 H     89  72  71     2.054412178330   111.03619968   343.51201400
 H     89  72  71     2.056599692727   110.73681804   222.34001705
 H     89  72  71     2.060189980845   110.00888875   103.31818981
 H     90  77  76     2.054177546110   111.02510424   349.03857417
 H     90  77  76     2.057216934878   110.63130736   228.09073407
 H     90  77  76     2.060036310589   110.13742834   109.07681525
 H     91  67  66     2.054156066004   111.02927990   349.67211118
 H     91  67  66     2.057289034178   110.61383988   228.74557916
 H     91  67  66     2.059956192736   110.14892656   109.74104898
 H     92  62  61     2.054391590840   111.04302825   343.57289152
 H     92  62  61     2.056576020521   110.73347596   222.39854655
 H     92  62  61     2.060201382727   110.00785607   103.38331944

---------------------
BASIS SET INFORMATION
---------------------
There are 5 groups of distinct atoms

 Group   1 Type C   : 11s6p2d1f contracted to 5s3p2d1f pattern {62111/411/11/1}
 Group   2 Type S   : 14s9p3d1f contracted to 5s5p2d1f pattern {73211/51111/21/1}
 Group   3 Type N   : 11s6p2d1f contracted to 5s3p2d1f pattern {62111/411/11/1}
 Group   4 Type O   : 11s6p2d1f contracted to 5s3p2d1f pattern {62111/411/11/1}
 Group   5 Type H   : 5s1p contracted to 3s1p pattern {311/1}

Atom   0C    basis set group =>   1
Atom   1C    basis set group =>   1
Atom   2C    basis set group =>   1
Atom   3C    basis set group =>   1
Atom   4C    basis set group =>   1
Atom   5C    basis set group =>   1
Atom   6C    basis set group =>   1
Atom   7C    basis set group =>   1
Atom   8C    basis set group =>   1
Atom   9C    basis set group =>   1
Atom  10C    basis set group =>   1
Atom  11S    basis set group =>   2
Atom  12C    basis set group =>   1
Atom  13C    basis set group =>   1
Atom  14C    basis set group =>   1
Atom  15C    basis set group =>   1
Atom  16C    basis set group =>   1
Atom  17S    basis set group =>   2
Atom  18C    basis set group =>   1
Atom  19C    basis set group =>   1
Atom  20C    basis set group =>   1
Atom  21C    basis set group =>   1
Atom  22C    basis set group =>   1
Atom  23C    basis set group =>   1
Atom  24C    basis set group =>   1
Atom  25C    basis set group =>   1
Atom  26C    basis set group =>   1
Atom  27C    basis set group =>   1
Atom  28C    basis set group =>   1
Atom  29C    basis set group =>   1
Atom  30C    basis set group =>   1
Atom  31C    basis set group =>   1
Atom  32C    basis set group =>   1
Atom  33C    basis set group =>   1
Atom  34N    basis set group =>   3
Atom  35N    basis set group =>   3
Atom  36N    basis set group =>   3
Atom  37N    basis set group =>   3
Atom  38N    basis set group =>   3
Atom  39N    basis set group =>   3
Atom  40C    basis set group =>   1
Atom  41C    basis set group =>   1
Atom  42C    basis set group =>   1
Atom  43C    basis set group =>   1
Atom  44C    basis set group =>   1
Atom  45C    basis set group =>   1
Atom  46C    basis set group =>   1
Atom  47N    basis set group =>   3
Atom  48C    basis set group =>   1
Atom  49S    basis set group =>   2
Atom  50C    basis set group =>   1
Atom  51N    basis set group =>   3
Atom  52C    basis set group =>   1
Atom  53S    basis set group =>   2
Atom  54C    basis set group =>   1
Atom  55O    basis set group =>   4
Atom  56C    basis set group =>   1
Atom  57C    basis set group =>   1
Atom  58C    basis set group =>   1
Atom  59C    basis set group =>   1
Atom  60C    basis set group =>   1
Atom  61C    basis set group =>   1
Atom  62C    basis set group =>   1
Atom  63C    basis set group =>   1
Atom  64C    basis set group =>   1
Atom  65C    basis set group =>   1
Atom  66C    basis set group =>   1
Atom  67C    basis set group =>   1
Atom  68C    basis set group =>   1
Atom  69C    basis set group =>   1
Atom  70C    basis set group =>   1
Atom  71C    basis set group =>   1
Atom  72C    basis set group =>   1
Atom  73C    basis set group =>   1
Atom  74C    basis set group =>   1
Atom  75C    basis set group =>   1
Atom  76C    basis set group =>   1
Atom  77C    basis set group =>   1
Atom  78C    basis set group =>   1
Atom  79O    basis set group =>   4
Atom  80C    basis set group =>   1
Atom  81C    basis set group =>   1
Atom  82C    basis set group =>   1
Atom  83C    basis set group =>   1
Atom  84N    basis set group =>   3
Atom  85N    basis set group =>   3
Atom  86N    basis set group =>   3
Atom  87N    basis set group =>   3
Atom  88C    basis set group =>   1
Atom  89C    basis set group =>   1
Atom  90C    basis set group =>   1
Atom  91C    basis set group =>   1
Atom  92H    basis set group =>   5
Atom  93H    basis set group =>   5
Atom  94H    basis set group =>   5
Atom  95H    basis set group =>   5
Atom  96H    basis set group =>   5
Atom  97H    basis set group =>   5
Atom  98H    basis set group =>   5
Atom  99H    basis set group =>   5
Atom 100H    basis set group =>   5
Atom 101H    basis set group =>   5
Atom 102H    basis set group =>   5
Atom 103H    basis set group =>   5
Atom 104H    basis set group =>   5
Atom 105H    basis set group =>   5
Atom 106H    basis set group =>   5
Atom 107H    basis set group =>   5
Atom 108H    basis set group =>   5
Atom 109H    basis set group =>   5
Atom 110H    basis set group =>   5
Atom 111H    basis set group =>   5
Atom 112H    basis set group =>   5
Atom 113H    basis set group =>   5
Atom 114H    basis set group =>   5
Atom 115H    basis set group =>   5
Atom 116H    basis set group =>   5
Atom 117H    basis set group =>   5
Atom 118H    basis set group =>   5
Atom 119H    basis set group =>   5
Atom 120H    basis set group =>   5
Atom 121H    basis set group =>   5
Atom 122H    basis set group =>   5
Atom 123H    basis set group =>   5
Atom 124H    basis set group =>   5
Atom 125H    basis set group =>   5
Atom 126H    basis set group =>   5
Atom 127H    basis set group =>   5
Atom 128H    basis set group =>   5
Atom 129H    basis set group =>   5
Atom 130H    basis set group =>   5
Atom 131H    basis set group =>   5
Atom 132H    basis set group =>   5
Atom 133H    basis set group =>   5
Atom 134H    basis set group =>   5
Atom 135H    basis set group =>   5
Atom 136H    basis set group =>   5
Atom 137H    basis set group =>   5
Atom 138H    basis set group =>   5
Atom 139H    basis set group =>   5
Atom 140H    basis set group =>   5
Atom 141H    basis set group =>   5
---------------------------------
AUXILIARY/J BASIS SET INFORMATION
---------------------------------
There are 5 groups of distinct atoms

 Group   1 Type C   : 12s5p4d2f1g contracted to 6s4p3d1f1g pattern {711111/2111/211/2/1}
 Group   2 Type S   : 14s5p5d2f1g contracted to 8s4p3d1f1g pattern {71111111/2111/311/2/1}
 Group   3 Type N   : 12s5p4d2f1g contracted to 6s4p3d1f1g pattern {711111/2111/211/2/1}
 Group   4 Type O   : 12s5p4d2f1g contracted to 6s4p3d1f1g pattern {711111/2111/211/2/1}
 Group   5 Type H   : 5s2p1d contracted to 3s1p1d pattern {311/2/1}

Atom   0C    basis set group =>   1
Atom   1C    basis set group =>   1
Atom   2C    basis set group =>   1
Atom   3C    basis set group =>   1
Atom   4C    basis set group =>   1
Atom   5C    basis set group =>   1
Atom   6C    basis set group =>   1
Atom   7C    basis set group =>   1
Atom   8C    basis set group =>   1
Atom   9C    basis set group =>   1
Atom  10C    basis set group =>   1
Atom  11S    basis set group =>   2
Atom  12C    basis set group =>   1
Atom  13C    basis set group =>   1
Atom  14C    basis set group =>   1
Atom  15C    basis set group =>   1
Atom  16C    basis set group =>   1
Atom  17S    basis set group =>   2
Atom  18C    basis set group =>   1
Atom  19C    basis set group =>   1
Atom  20C    basis set group =>   1
Atom  21C    basis set group =>   1
Atom  22C    basis set group =>   1
Atom  23C    basis set group =>   1
Atom  24C    basis set group =>   1
Atom  25C    basis set group =>   1
Atom  26C    basis set group =>   1
Atom  27C    basis set group =>   1
Atom  28C    basis set group =>   1
Atom  29C    basis set group =>   1
Atom  30C    basis set group =>   1
Atom  31C    basis set group =>   1
Atom  32C    basis set group =>   1
Atom  33C    basis set group =>   1
Atom  34N    basis set group =>   3
Atom  35N    basis set group =>   3
Atom  36N    basis set group =>   3
Atom  37N    basis set group =>   3
Atom  38N    basis set group =>   3
Atom  39N    basis set group =>   3
Atom  40C    basis set group =>   1
Atom  41C    basis set group =>   1
Atom  42C    basis set group =>   1
Atom  43C    basis set group =>   1
Atom  44C    basis set group =>   1
Atom  45C    basis set group =>   1
Atom  46C    basis set group =>   1
Atom  47N    basis set group =>   3
Atom  48C    basis set group =>   1
Atom  49S    basis set group =>   2
Atom  50C    basis set group =>   1
Atom  51N    basis set group =>   3
Atom  52C    basis set group =>   1
Atom  53S    basis set group =>   2
Atom  54C    basis set group =>   1
Atom  55O    basis set group =>   4
Atom  56C    basis set group =>   1
Atom  57C    basis set group =>   1
Atom  58C    basis set group =>   1
Atom  59C    basis set group =>   1
Atom  60C    basis set group =>   1
Atom  61C    basis set group =>   1
Atom  62C    basis set group =>   1
Atom  63C    basis set group =>   1
Atom  64C    basis set group =>   1
Atom  65C    basis set group =>   1
Atom  66C    basis set group =>   1
Atom  67C    basis set group =>   1
Atom  68C    basis set group =>   1
Atom  69C    basis set group =>   1
Atom  70C    basis set group =>   1
Atom  71C    basis set group =>   1
Atom  72C    basis set group =>   1
Atom  73C    basis set group =>   1
Atom  74C    basis set group =>   1
Atom  75C    basis set group =>   1
Atom  76C    basis set group =>   1
Atom  77C    basis set group =>   1
Atom  78C    basis set group =>   1
Atom  79O    basis set group =>   4
Atom  80C    basis set group =>   1
Atom  81C    basis set group =>   1
Atom  82C    basis set group =>   1
Atom  83C    basis set group =>   1
Atom  84N    basis set group =>   3
Atom  85N    basis set group =>   3
Atom  86N    basis set group =>   3
Atom  87N    basis set group =>   3
Atom  88C    basis set group =>   1
Atom  89C    basis set group =>   1
Atom  90C    basis set group =>   1
Atom  91C    basis set group =>   1
Atom  92H    basis set group =>   5
Atom  93H    basis set group =>   5
Atom  94H    basis set group =>   5
Atom  95H    basis set group =>   5
Atom  96H    basis set group =>   5
Atom  97H    basis set group =>   5
Atom  98H    basis set group =>   5
Atom  99H    basis set group =>   5
Atom 100H    basis set group =>   5
Atom 101H    basis set group =>   5
Atom 102H    basis set group =>   5
Atom 103H    basis set group =>   5
Atom 104H    basis set group =>   5
Atom 105H    basis set group =>   5
Atom 106H    basis set group =>   5
Atom 107H    basis set group =>   5
Atom 108H    basis set group =>   5
Atom 109H    basis set group =>   5
Atom 110H    basis set group =>   5
Atom 111H    basis set group =>   5
Atom 112H    basis set group =>   5
Atom 113H    basis set group =>   5
Atom 114H    basis set group =>   5
Atom 115H    basis set group =>   5
Atom 116H    basis set group =>   5
Atom 117H    basis set group =>   5
Atom 118H    basis set group =>   5
Atom 119H    basis set group =>   5
Atom 120H    basis set group =>   5
Atom 121H    basis set group =>   5
Atom 122H    basis set group =>   5
Atom 123H    basis set group =>   5
Atom 124H    basis set group =>   5
Atom 125H    basis set group =>   5
Atom 126H    basis set group =>   5
Atom 127H    basis set group =>   5
Atom 128H    basis set group =>   5
Atom 129H    basis set group =>   5
Atom 130H    basis set group =>   5
Atom 131H    basis set group =>   5
Atom 132H    basis set group =>   5
Atom 133H    basis set group =>   5
Atom 134H    basis set group =>   5
Atom 135H    basis set group =>   5
Atom 136H    basis set group =>   5
Atom 137H    basis set group =>   5
Atom 138H    basis set group =>   5
Atom 139H    basis set group =>   5
Atom 140H    basis set group =>   5
Atom 141H    basis set group =>   5


           ************************************************************
           *        Program running with 6 parallel MPI-processes     *
           *              working on a common directory               *
           ************************************************************
------------------------------------------------------------------------------
                           ORCA GTO INTEGRAL CALCULATION
                           -- RI-GTO INTEGRALS CHOSEN --
------------------------------------------------------------------------------

                         BASIS SET STATISTICS AND STARTUP INFO

Gaussian basis set:
 # of primitive gaussian shells          ... 2168
 # of primitive gaussian functions       ... 4700
 # of contracted shells                  ... 1220
 # of contracted basis functions         ... 3176
 Highest angular momentum                ...    3
 Maximum contraction depth               ...    7
Auxiliary gaussian basis set:
 # of primitive gaussian shells          ... 2620
 # of primitive gaussian functions       ... 7268
 # of contracted shells                  ... 1638
 # of contracted aux-basis functions     ... 5066
 Highest angular momentum                ...    4
 Maximum contraction depth               ...    7
Ratio of auxiliary to basis functions    ...  1.60
Integral package used                  ... LIBINT
 One Electron integrals                  ... done
 Ordering auxiliary basis shells         ... done
 Integral threshhold             Thresh  ...  2.500e-11
 Primitive cut-off               TCut    ...  2.500e-12
 Pre-screening matrix                    ... done
 Shell pair data                         ... 
 Ordering of the shell pairs             ... done (   0.048 sec) 209789 of 744810 pairs
 Determination of significant pairs      ... done (   0.001 sec)
 Creation of shell pair data             ... done (   0.022 sec)
 Storage of shell pair data              ... done (   8.289 sec)
 Shell pair data done in (   8.361 sec)
 Computing two index integrals           ... done
 Cholesky decomposition of the V-matrix  ... done


Timings:
 Total evaluation time                   ...  29.715 sec (  0.495 min)
 One electron matrix time                ...   9.523 sec (  0.159 min) = 32.0%
 Schwartz matrix evaluation time         ...   5.422 sec (  0.090 min) = 18.2%
 Two index repulsion integral time       ...   1.603 sec (  0.027 min) =  5.4%
 Cholesky decomposition of V             ...   4.788 sec (  0.080 min) = 16.1%
 Three index repulsion integral time     ...   0.000 sec (  0.000 min) =  0.0%



           ************************************************************
           *        Program running with 6 parallel MPI-processes     *
           *              working on a common directory               *
           ************************************************************
-------------------------------------------------------------------------------
                                 ORCA SCF
-------------------------------------------------------------------------------

------------
SCF SETTINGS
------------
Hamiltonian:
 Density Functional     Method          .... DFT(GTOs)
 Exchange Functional    Exchange        .... B88
   X-Alpha parameter    XAlpha          ....  0.666667
   Becke's b parameter  XBeta           ....  0.004200
 Correlation Functional Correlation     .... LYP
 LDA part of GGA corr.  LDAOpt          .... VWN-5
 Gradients option       PostSCFGGA      .... off
 Hybrid DFT is turned on
   Fraction HF Exchange ScalHFX         ....  0.200000
   Scaling of DF-GGA-X  ScalDFX         ....  0.720000
   Scaling of DF-GGA-C  ScalDFC         ....  0.810000
   Scaling of DF-LDA-C  ScalLDAC        ....  1.000000
   Perturbative correction              ....  0.000000
   Density functional embedding theory  .... OFF
   NL short-range parameter             ....  4.800000
 RI-approximation to the Coulomb term is turned on
   Number of auxiliary basis functions  .... 5066
   RIJ-COSX (HFX calculated with COS-X)).... on


General Settings:
 Integral files         IntName         .... BTA3
 Hartree-Fock type      HFTyp           .... RHF
 Total Charge           Charge          ....    0
 Multiplicity           Mult            ....    1
 Number of Electrons    NEL             ....  658
 Basis Dimension        Dim             .... 3176
 Nuclear Repulsion      ENuc            ....  15509.3461313250 Eh

Convergence Acceleration:
 DIIS                   CNVDIIS         .... on
   Start iteration      DIISMaxIt       ....    12
   Startup error        DIISStart       ....  0.200000
   # of expansion vecs  DIISMaxEq       ....     5
   Bias factor          DIISBfac        ....   1.050
   Max. coefficient     DIISMaxC        ....  10.000
 Newton-Raphson         CNVNR           .... off
 SOSCF                  CNVSOSCF        .... on
   Start iteration      SOSCFMaxIt      ....   150
   Startup grad/error   SOSCFStart      ....  0.003300
 Level Shifting         CNVShift        .... on
   Level shift para.    LevelShift      ....    0.2500
   Turn off err/grad.   ShiftErr        ....    0.0010
 Zerner damping         CNVZerner       .... off
 Static damping         CNVDamp         .... on
   Fraction old density DampFac         ....    0.7000
   Max. Damping (<1)    DampMax         ....    0.9800
   Min. Damping (>=0)   DampMin         ....    0.0000
   Turn off err/grad.   DampErr         ....    0.1000
 Fernandez-Rico         CNVRico         .... off

SCF Procedure:
 Maximum # iterations   MaxIter         ....   125
 SCF integral mode      SCFMode         .... Direct
   Integral package                     .... LIBINT
 Reset frequency        DirectResetFreq ....    20
 Integral Threshold     Thresh          ....  2.500e-11 Eh
 Primitive CutOff       TCut            ....  2.500e-12 Eh

Convergence Tolerance:
 Convergence Check Mode ConvCheckMode   .... Total+1el-Energy
 Convergence forced     ConvForced      .... 1
 Energy Change          TolE            ....  1.000e-08 Eh
 1-El. energy change                    ....  1.000e-05 Eh
 Orbital Gradient       TolG            ....  1.000e-05
 Orbital Rotation angle TolX            ....  1.000e-05
 DIIS Error             TolErr          ....  5.000e-07


Diagonalization of the overlap matrix:
Smallest eigenvalue                        ... 2.021e-06
Time for diagonalization                   ...   13.368 sec
Threshold for overlap eigenvalues          ... 1.000e-08
Number of eigenvalues below threshold      ... 0
Time for construction of square roots      ...    5.666 sec
Total time needed                          ...   19.055 sec

-------------------
DFT GRID GENERATION
-------------------

General Integration Accuracy     IntAcc      ...  4.670
Radial Grid Type                 RadialGrid  ... Gauss-Chebyshev
Angular Grid (max. acc.)         AngularGrid ... Lebedev-302
Angular grid pruning method      GridPruning ... 3 (G Style)
Weight generation scheme         WeightScheme... Becke
Basis function cutoff            BFCut       ...    1.0000e-11
Integration weight cutoff        WCut        ...    1.0000e-14
Grids for H and He will be reduced by one unit

# of grid points (after initial pruning)     ... 743740 (   0.1 sec)
# of grid points (after weights+screening)   ... 629032 (  16.3 sec)
nearest neighbour list constructed           ...    0.0 sec
Grid point re-assignment to atoms done       ...    0.1 sec
Grid point division into batches done        ...    2.1 sec
Reduced shell lists constructed in    6.0 sec

Total number of grid points                  ...   629032
Total number of batches                      ...     9902
Average number of points per batch           ...       63
Average number of grid points per atom       ...     4430
Average number of shells per batch           ...   276.28 (22.65%)
Average number of basis functions per batch  ...   681.67 (21.46%)
Average number of large shells per batch     ...   156.86 (56.77%)
Average number of large basis fcns per batch ...   401.76 (58.94%)
Maximum spatial batch extension              ...  16.06, 18.36, 20.09 au
Average spatial batch extension              ...   0.24,  0.25,  0.24 au

Time for grid setup =   32.261 sec

------------------------------
INITIAL GUESS: MODEL POTENTIAL
------------------------------
Loading Hartree-Fock densities                     ... done
Calculating cut-offs                               ... done
Setting up the integral package                    ... done
Initializing the effective Hamiltonian             ... done
Starting the Coulomb interaction                   ... done (   8.5 sec)
Reading the grid                                   ... done
Mapping shells                                     ... done
Starting the XC term evaluation                    ... done (  23.9 sec)
  promolecular density results
     # of electrons  =    657.976345117
     EX              =   -591.267350351
     EC              =    -23.025355629
     EX+EC           =   -614.292705980
Transforming the Hamiltonian                       ... done (   4.4 sec)
Diagonalizing the Hamiltonian                      ... done (  12.0 sec)
Back transforming the eigenvectors                 ... done (   3.1 sec)
Now organizing SCF variables                       ... done
                      ------------------
                      INITIAL GUESS DONE (  85.7 sec)
                      ------------------
--------------------
COSX GRID GENERATION
--------------------

General Integration Accuracy     IntAcc      ...  3.340
Radial Grid Type                 RadialGrid  ... Gauss-Chebyshev
Angular Grid (max. acc.)         AngularGrid ... Lebedev-50
Angular grid pruning method      GridPruning ... 3 (G Style)
Weight generation scheme         WeightScheme... Becke
Basis function cutoff            BFCut       ...    1.0000e-11
Integration weight cutoff        WCut        ...    1.0000e-14
Grids for H and He will be reduced by one unit

# of grid points (after initial pruning)     ...  69696 (   0.0 sec)
# of grid points (after weights+screening)   ...  61766 (   1.6 sec)
nearest neighbour list constructed           ...    0.0 sec
Grid point re-assignment to atoms done       ...    0.0 sec
Grid point division into batches done        ...    0.0 sec
Reduced shell lists constructed in    0.5 sec

Total number of grid points                  ...    61766
Total number of batches                      ...     1039
Average number of points per batch           ...       59
Average number of grid points per atom       ...      435
Average number of shells per batch           ...   324.41 (26.59%)
Average number of basis functions per batch  ...   807.03 (25.41%)
Average number of large shells per batch     ...   181.98 (56.10%)
Average number of large basis fcns per batch ...   470.02 (58.24%)
Maximum spatial batch extension              ...  13.90, 13.81, 13.80 au
Average spatial batch extension              ...   0.48,  0.55,  0.50 au

Overlap Fitting                  UseSFitting ... on
Constructing numerical overlap ... done (      2.0 sec)
Inverting numerical overlap    ... done (      2.2 sec)
Obtaining analytic overlap     ... done (      0.2 sec)
Final contraction and storage  ... done (      2.5 sec)


General Integration Accuracy     IntAcc      ...  3.670
Radial Grid Type                 RadialGrid  ... Gauss-Chebyshev
Angular Grid (max. acc.)         AngularGrid ... Lebedev-50
Angular grid pruning method      GridPruning ... 3 (G Style)
Weight generation scheme         WeightScheme... Becke
Basis function cutoff            BFCut       ...    1.0000e-11
Integration weight cutoff        WCut        ...    1.0000e-14
Grids for H and He will be reduced by one unit

# of grid points (after initial pruning)     ...  87456 (   0.1 sec)
# of grid points (after weights+screening)   ...  77188 (   1.8 sec)
nearest neighbour list constructed           ...    0.0 sec
Grid point re-assignment to atoms done       ...    0.0 sec
Grid point division into batches done        ...    0.0 sec
Reduced shell lists constructed in    0.6 sec

Total number of grid points                  ...    77188
Total number of batches                      ...     1271
Average number of points per batch           ...       60
Average number of grid points per atom       ...      544
Average number of shells per batch           ...   319.07 (26.15%)
Average number of basis functions per batch  ...   792.23 (24.94%)
Average number of large shells per batch     ...   179.18 (56.16%)
Average number of large basis fcns per batch ...   462.79 (58.42%)
Maximum spatial batch extension              ...  13.79, 15.18, 16.83 au
Average spatial batch extension              ...   0.46,  0.50,  0.47 au

Overlap Fitting                  UseSFitting ... on
Constructing numerical overlap ... done (      1.9 sec)
Inverting numerical overlap    ... done (      2.2 sec)
Obtaining analytic overlap     ... done (      0.2 sec)
Final contraction and storage  ... done (      2.2 sec)


General Integration Accuracy     IntAcc      ...  4.010
Radial Grid Type                 RadialGrid  ... Gauss-Chebyshev
Angular Grid (max. acc.)         AngularGrid ... Lebedev-110
Angular grid pruning method      GridPruning ... 3 (G Style)
Weight generation scheme         WeightScheme... Becke
Basis function cutoff            BFCut       ...    1.0000e-11
Integration weight cutoff        WCut        ...    1.0000e-14
Grids for H and He will be reduced by one unit

# of grid points (after initial pruning)     ... 169020 (   0.1 sec)
# of grid points (after weights+screening)   ... 147648 (   3.8 sec)
nearest neighbour list constructed           ...    0.0 sec
Grid point re-assignment to atoms done       ...    0.0 sec
Grid point division into batches done        ...    0.1 sec
Reduced shell lists constructed in    1.2 sec

Total number of grid points                  ...   147648
Total number of batches                      ...     2380
Average number of points per batch           ...       62
Average number of grid points per atom       ...     1040
Average number of shells per batch           ...   303.55 (24.88%)
Average number of basis functions per batch  ...   752.43 (23.69%)
Average number of large shells per batch     ...   172.16 (56.72%)
Average number of large basis fcns per batch ...   443.81 (58.98%)
Maximum spatial batch extension              ...  14.29, 15.43, 17.53 au
Average spatial batch extension              ...   0.38,  0.42,  0.39 au

Overlap Fitting                  UseSFitting ... on
Constructing numerical overlap ... done (      3.4 sec)
Inverting numerical overlap    ... done (      2.6 sec)
Obtaining analytic overlap     ... done (      0.2 sec)
Final contraction and storage  ... done (      2.5 sec)

Time for X-Grid setup             =   38.085 sec
--------------
SCF ITERATIONS
--------------
ITER       Energy         Delta-E        Max-DP      RMS-DP      [F,P]     Damp
               ***  Starting incremental Fock matrix formation  ***
  0  -5246.6805143151   0.000000000000 0.26187413  0.00069863  0.3189712 0.7000
  1  -5247.8256888780  -1.145174562875 0.20239459  0.00058766  0.1040869 0.7000
                               ***Turning on DIIS***
  2  -5248.2452591916  -0.419570313596 0.23140196  0.00099104  0.0448736 0.0000
  3  -5248.9343884034  -0.689129211816 0.16734676  0.00051265  0.0557545 0.0000
  4  -5249.0826805596  -0.148292156171 0.03782863  0.00017056  0.0399823 0.0000
  5  -5249.0998282771  -0.017147717532 0.01976803  0.00007459  0.0111149 0.0000
                      *** Initiating the SOSCF procedure ***
                           *** Shutting down DIIS ***
                      *** Re-Reading the Fockian *** 
                      *** Removing any level shift *** 
ITER      Energy       Delta-E        Grad      Rot      Max-DP    RMS-DP
  6  -5249.10108811  -0.0012598356  0.000827  0.000827  0.019981  0.000033
               *** Restarting incremental Fock matrix formation ***
  7  -5249.10120697  -0.0001188616  0.000378  0.004660  0.021687  0.000075
  8  -5249.10119111   0.0000158634  0.000607  0.002618  0.012911  0.000024
  9  -5249.10124024  -0.0000491277  0.000173  0.002100  0.008367  0.000025
 10  -5249.10123683   0.0000034097  0.000190  0.000525  0.000900  0.000003
 11  -5249.10124391  -0.0000070842  0.000044  0.000578  0.004129  0.000008
 12  -5249.10124309   0.0000008215  0.000069  0.000226  0.001494  0.000003
 13  -5249.10124423  -0.0000011432  0.000013  0.000127  0.001194  0.000003
 14  -5249.10124421   0.0000000253  0.000024  0.000038  0.000570  0.000001
 15  -5249.10124440  -0.0000001917  0.000006  0.000094  0.000874  0.000002
 16  -5249.10124422   0.0000001777  0.000013  0.000056  0.000574  0.000001
                  ***Gradient check signals convergence***
              ***Rediagonalizing the Fockian in SOSCF/NRSCF***

               *****************************************************
               *                     SUCCESS                       *
               *           SCF CONVERGED AFTER  17 CYCLES          *
               *****************************************************

Setting up the final grid:

General Integration Accuracy     IntAcc      ...  5.010
Radial Grid Type                 RadialGrid  ... Gauss-Chebyshev
Angular Grid (max. acc.)         AngularGrid ... Lebedev-434
Angular grid pruning method      GridPruning ... 3 (G Style)
Weight generation scheme         WeightScheme... Becke
Basis function cutoff            BFCut       ...    1.0000e-11
Integration weight cutoff        WCut        ...    1.0000e-14
Grids for H and He will be reduced by one unit

# of grid points (after initial pruning)     ... 1321976 (   0.1 sec)
# of grid points (after weights+screening)   ... 1114478 (  23.5 sec)
nearest neighbour list constructed           ...    0.0 sec
Grid point re-assignment to atoms done       ...    0.3 sec
Grid point division into batches done        ...    6.9 sec
Reduced shell lists constructed in   13.5 sec

Total number of grid points                  ...  1114478
Total number of batches                      ...    17481
Average number of points per batch           ...       63
[...]

STATE 41:  E=   0.146175 au      3.978 eV    32081.7 cm**-1
   313a -> 329a  :     0.120172 (c=  0.34665802)
   315a -> 330a  :     0.787318 (c=  0.88730930)
   317a -> 330a  :     0.017168 (c= -0.13102721)
   327a -> 333a  :     0.025168 (c=  0.15864422)

STATE 42:  E=   0.146802 au      3.995 eV    32219.3 cm**-1
   310a -> 330a  :     0.050460 (c=  0.22463405)
   311a -> 329a  :     0.467062 (c= -0.68341961)
   312a -> 329a  :     0.127044 (c=  0.35643276)
   313a -> 330a  :     0.072241 (c= -0.26877728)
   315a -> 329a  :     0.016330 (c= -0.12778782)
   322a -> 331a  :     0.016093 (c= -0.12685998)
   325a -> 331a  :     0.070442 (c= -0.26540998)
   328a -> 336a  :     0.075633 (c=  0.27501449)
   328a -> 338a  :     0.011669 (c=  0.10802486)

STATE 43:  E=   0.147037 au      4.001 eV    32270.9 cm**-1
   323a -> 331a  :     0.017625 (c= -0.13275817)
   324a -> 331a  :     0.877659 (c= -0.93683452)
   324a -> 333a  :     0.028223 (c= -0.16799625)
   327a -> 333a  :     0.011535 (c=  0.10739902)
   328a -> 337a  :     0.017422 (c=  0.13199248)

STATE 44:  E=   0.147937 au      4.026 eV    32468.5 cm**-1
   306a -> 329a  :     0.025184 (c= -0.15869444)
   306a -> 330a  :     0.018112 (c=  0.13458256)
   307a -> 329a  :     0.028514 (c= -0.16885952)
   307a -> 330a  :     0.018026 (c= -0.13425915)
   308a -> 330a  :     0.028351 (c= -0.16837757)
   309a -> 329a  :     0.211078 (c= -0.45943234)
   310a -> 330a  :     0.013654 (c=  0.11684991)
   313a -> 330a  :     0.011479 (c=  0.10714070)
   314a -> 330a  :     0.045635 (c=  0.21362353)
   321a -> 330a  :     0.024231 (c=  0.15566337)
   322a -> 331a  :     0.045241 (c= -0.21270040)
   325a -> 331a  :     0.102220 (c= -0.31971866)
   326a -> 331a  :     0.235488 (c=  0.48527064)
   328a -> 335a  :     0.061262 (c= -0.24751133)

STATE 45:  E=   0.148190 au      4.032 eV    32523.9 cm**-1
   308a -> 329a  :     0.015991 (c= -0.12645611)
   310a -> 329a  :     0.054773 (c= -0.23403710)
   311a -> 330a  :     0.012698 (c=  0.11268501)
   315a -> 330a  :     0.024233 (c= -0.15567012)
   318a -> 330a  :     0.031829 (c=  0.17840597)
   323a -> 331a  :     0.018087 (c=  0.13448761)
   326a -> 332a  :     0.015874 (c= -0.12599032)
   327a -> 331a  :     0.010604 (c= -0.10297654)
   327a -> 333a  :     0.560839 (c=  0.74889189)
   328a -> 337a  :     0.141950 (c=  0.37676286)
   328a -> 340a  :     0.018286 (c= -0.13522704)

STATE 46:  E=   0.148688 au      4.046 eV    32633.3 cm**-1
   306a -> 329a  :     0.125662 (c= -0.35448807)
   306a -> 330a  :     0.073510 (c=  0.27112810)
   307a -> 329a  :     0.406692 (c=  0.63772409)
   307a -> 330a  :     0.269530 (c=  0.51916234)
   307a -> 331a  :     0.026965 (c= -0.16421105)
   307a -> 332a  :     0.010631 (c= -0.10310585)
   310a -> 329a  :     0.016122 (c= -0.12697225)
   328a -> 337a  :     0.012137 (c=  0.11016983)

STATE 47:  E=   0.148790 au      4.049 eV    32655.6 cm**-1
   306a -> 329a  :     0.387527 (c= -0.62251698)
   306a -> 330a  :     0.258338 (c=  0.50826977)
   306a -> 331a  :     0.025867 (c=  0.16083334)
   307a -> 329a  :     0.109042 (c= -0.33021485)
   307a -> 330a  :     0.062212 (c= -0.24942335)
   309a -> 329a  :     0.012532 (c=  0.11194842)
   325a -> 331a  :     0.010854 (c=  0.10418218)
   326a -> 331a  :     0.033237 (c= -0.18230953)

STATE 48:  E=   0.149638 au      4.072 eV    32841.6 cm**-1
   312a -> 329a  :     0.118226 (c= -0.34384024)
   313a -> 330a  :     0.343966 (c= -0.58648601)
   314a -> 330a  :     0.423370 (c=  0.65066883)
   328a -> 338a  :     0.035670 (c=  0.18886447)
   328a -> 339a  :     0.010162 (c=  0.10080471)

STATE 49:  E=   0.150009 au      4.082 eV    32923.1 cm**-1
   312a -> 329a  :     0.018557 (c=  0.13622348)
   313a -> 330a  :     0.044037 (c=  0.20985112)
   328a -> 338a  :     0.518891 (c=  0.72034105)
   328a -> 339a  :     0.383062 (c=  0.61892040)

STATE 50:  E=   0.150745 au      4.102 eV    33084.7 cm**-1
   308a -> 329a  :     0.010284 (c= -0.10140968)
   310a -> 329a  :     0.042021 (c=  0.20499034)
   328a -> 337a  :     0.017030 (c= -0.13050022)
   328a -> 340a  :     0.041373 (c= -0.20340367)
   328a -> 341a  :     0.818120 (c=  0.90449965)


-----------------------------
TD-DFT/TDA-EXCITATION SPECTRA
-----------------------------

Center of mass = (  0.7556, -6.5028,  2.1847)
Calculating the Dipole integrals                  ... done
Transforming integrals                            ... done
Calculating the Linear Momentum integrals         ... done
Transforming integrals                            ... done
Calculating angular momentum integrals            ... done
Transforming integrals                            ... done

-----------------------------------------------------------------------------
         ABSORPTION SPECTRUM VIA TRANSITION ELECTRIC DIPOLE MOMENTS
-----------------------------------------------------------------------------
State   Energy    Wavelength  fosc         T2        TX        TY        TZ  
        (cm-1)      (nm)                 (au**2)    (au)      (au)      (au) 
-----------------------------------------------------------------------------
   1   14601.4    684.9   2.579088390  58.14977  -6.04540   1.04614  -4.52863
   2   16719.7    598.1   0.090674353   1.78539   0.60026   1.02795  -0.60695
   3   21045.8    475.2   0.724697025  11.33616  -1.54852  -2.58249   1.50633
   4   21338.6    468.6   0.530049266   8.17760   2.02384  -0.06219   2.01936
   5   22574.5    443.0   0.085953738   1.25349   0.95336  -0.24263   0.53454
   6   23062.9    433.6   0.000206727   0.00295  -0.02204  -0.01362  -0.04775
   7   23452.2    426.4   0.014042703   0.19713  -0.20678  -0.34025   0.19647
   8   24218.5    412.9   0.046034265   0.62576  -0.36095  -0.59793   0.37141
   9   24551.9    407.3   0.237898674   3.18994   0.48188   0.66206   1.58726
  10   25148.2    397.6   0.053884582   0.70540   0.38326   0.62938  -0.40298
  11   25248.7    396.1   0.003752577   0.04893   0.10441   0.17131  -0.09317
  12   25614.8    390.4   0.041705329   0.53601   0.32217  -0.47129  -0.45837
  13   25870.0    386.5   0.093712060   1.19254   0.50365   0.84054  -0.48206
  14   26018.3    384.3   0.154810634   1.95883   0.46561  -0.86808  -0.99422
  15   26781.3    373.4   0.000017643   0.00022  -0.00658  -0.00111   0.01313
  16   27245.6    367.0   0.023062704   0.27867  -0.46145   0.19057  -0.17151
  17   27378.7    365.2   0.226084881   2.71853   0.84677  -1.06009  -0.93687
  18   27515.1    363.4   0.004707546   0.05632  -0.09509  -0.20489   0.07281
  19   27830.0    359.3   0.006569424   0.07771   0.09757  -0.16559  -0.20192
  20   27973.5    357.5   0.006460759   0.07603   0.12464   0.21488  -0.11970
  21   28799.0    347.2   0.000858869   0.00982  -0.08017   0.00676  -0.05784
  22   29022.7    344.6   0.048829144   0.55388  -0.32887  -0.57522   0.33889
  23   29056.0    344.2   0.023000260   0.26060   0.24585  -0.31788  -0.31482
  24   29180.2    342.7   0.007576930   0.08548  -0.09506  -0.08944  -0.26162
  25   29336.5    340.9   0.003884673   0.04359   0.10037   0.15671  -0.09466
  26   29455.2    339.5   0.010496614   0.11732   0.28730  -0.18587  -0.01518
  27   29966.5    333.7   0.002300874   0.02528   0.05322   0.14392  -0.04163
  28   30028.6    333.0   0.047701541   0.52297  -0.31105   0.45800   0.46524
  29   30158.7    331.6   0.003102850   0.03387   0.11566   0.13571  -0.04556
  30   30210.1    331.0   0.013108557   0.14285   0.17013   0.06869   0.33044
  31   30393.9    329.0   0.095848044   1.03818   0.72634  -0.63393  -0.32975
  32   30528.6    327.6   0.000050748   0.00055   0.01626  -0.00660  -0.01547
  33   30943.5    323.2   0.026236124   0.27913   0.26270   0.41759  -0.18904
  34   31109.2    321.4   0.107340843   1.13593  -0.39071  -0.27512  -0.95267
  35   31225.4    320.3   0.009513227   0.10030  -0.14627  -0.24186   0.14285
  36   31435.5    318.1   0.000088212   0.00092   0.01240   0.02194  -0.01699
  37   31537.9    317.1   0.000716428   0.00748  -0.03630   0.05481   0.05618
  38   31692.7    315.5   0.007895717   0.08202  -0.12375  -0.21007   0.15025
  39   31762.0    314.8   0.001689802   0.01751   0.08949   0.00250   0.09747
  40   31904.7    313.4   0.072812106   0.75132  -0.36704   0.54762   0.56277
  41   32081.7    311.7   0.000102619   0.00105   0.01563   0.01896  -0.02120
  42   32219.3    310.4   0.004292386   0.04386   0.13839   0.00849   0.15696
  43   32270.9    309.9   0.002181711   0.02226  -0.07862  -0.10897   0.06481
  44   32468.5    308.0   0.081698766   0.82838  -0.76206   0.49740   0.01546
  45   32523.9    307.5   0.003880313   0.03928   0.11494   0.13357  -0.09069
  46   32633.3    306.4   0.001876908   0.01893  -0.05436   0.11576  -0.05079
  47   32655.6    306.2   0.012241748   0.12341   0.31820  -0.14472   0.03494
  48   32841.6    304.5   0.006081531   0.06096  -0.21763   0.08209  -0.08284
  49   32923.1    303.7   0.001268133   0.01268  -0.05878  -0.01227  -0.09526
  50   33084.7    302.3   0.000828755   0.00825   0.04311   0.06591  -0.04521

-----------------------------------------------------------------------------
         ABSORPTION SPECTRUM VIA TRANSITION VELOCITY DIPOLE MOMENTS
-----------------------------------------------------------------------------
State   Energy    Wavelength   fosc        P2         PX        PY        PZ  
        (cm-1)      (nm)                 (au**2)     (au)      (au)      (au) 
-----------------------------------------------------------------------------
   1   14601.4    684.9   0.547057222   0.05459   0.18235  -0.02681   0.14360
   2   16719.7    598.1   0.005512850   0.00063  -0.01079  -0.01924   0.01197
   3   21045.8    475.2   0.083608862   0.01203   0.05006   0.08412  -0.04944
   4   21338.6    468.6   0.245098054   0.03574  -0.13651   0.00742  -0.13059
   5   22574.5    443.0   0.049648497   0.00766  -0.07459   0.04574   0.00199
   6   23062.9    433.6   0.008094012   0.00128  -0.00034  -0.01774  -0.03100
   7   23452.2    426.4   0.001828447   0.00029   0.00809   0.01297  -0.00771
   8   24218.5    412.9   0.004085320   0.00068   0.01120   0.01980  -0.01261
   9   24551.9    407.3   0.133774715   0.02245  -0.07932  -0.02498  -0.12463
  10   25148.2    397.6   0.003378348   0.00058  -0.01001  -0.01785   0.01273
  11   25248.7    396.1   0.000322676   0.00006  -0.00374  -0.00566   0.00310
  12   25614.8    390.4   0.017884015   0.00313  -0.00570   0.03041   0.04663
  13   25870.0    386.5   0.011189232   0.00198  -0.02086  -0.03421   0.01931
  14   26018.3    384.3   0.053583193   0.00953   0.00802   0.04478   0.08636
  15   26781.3    373.4   0.000173554   0.00003  -0.00233  -0.00440   0.00264
  16   27245.6    367.0   0.007026127   0.00131   0.02305  -0.02316  -0.01552
  17   27378.7    365.2   0.022674863   0.00424   0.02944   0.01374   0.05646
  18   27515.1    363.4   0.000860743   0.00016   0.00726   0.00937  -0.00461
  19   27830.0    359.3   0.001992514   0.00038  -0.00611   0.01165   0.01435
  20   27973.5    357.5   0.000782102   0.00015  -0.00551  -0.00957   0.00526
  21   28799.0    347.2   0.030353498   0.00597  -0.02986   0.04908   0.05171
  22   29022.7    344.6   0.003952322   0.00078   0.01215   0.02235  -0.01170
  23   29056.0    344.2   0.060115607   0.01194  -0.04783   0.06905   0.06987
  24   29180.2    342.7   0.003149143   0.00063   0.01993  -0.00375   0.01472
  25   29336.5    340.9   0.000391983   0.00008  -0.00453  -0.00650   0.00397
  26   29455.2    339.5   0.007456134   0.00150  -0.03401   0.01792  -0.00485
  27   29966.5    333.7   0.001376778   0.00028  -0.01050  -0.01239   0.00427
  28   30028.6    333.0   0.016290731   0.00334  -0.04222   0.00356  -0.03934
  29   30158.7    331.6   0.003026898   0.00062  -0.01686  -0.01764   0.00531
  30   30210.1    331.0   0.022085768   0.00456  -0.05047   0.00837  -0.04407
  31   30393.9    329.0   0.019268001   0.00400  -0.04485   0.00127  -0.04460
  32   30528.6    327.6   0.000061098   0.00001   0.00038   0.00282  -0.00215
  33   30943.5    323.2   0.020884811   0.00442  -0.03074  -0.05273   0.02630
  34   31109.2    321.4   0.048722566   0.01036   0.02351   0.03494   0.09266
  35   31225.4    320.3   0.004259696   0.00091   0.01349   0.02350  -0.01322
  36   31435.5    318.1   0.000010418   0.00000  -0.00051  -0.00103   0.00096
  37   31537.9    317.1   0.000905115   0.00020   0.00947   0.00016   0.01027
  38   31692.7    315.5   0.002540017   0.00055   0.00920   0.01741  -0.01274
  39   31762.0    314.8   0.004254583   0.00092  -0.00362   0.01683   0.02504
  40   31904.7    313.4   0.008223807   0.00179   0.01862   0.01013   0.03666
  41   32081.7    311.7   0.000040427   0.00001  -0.00010  -0.00287   0.00079
  42   32219.3    310.4   0.029746165   0.00655  -0.07037   0.03957  -0.00572
  43   32270.9    309.9   0.000544665   0.00012   0.00578   0.00809  -0.00460
  44   32468.5    308.0   0.021566717   0.00479   0.02064   0.02211   0.06222
  45   32523.9    307.5   0.002345837   0.00052  -0.01075  -0.01824   0.00856
  46   32633.3    306.4   0.000900022   0.00020   0.00904   0.00713   0.00826
  47   32655.6    306.2   0.007861880   0.00175  -0.01912  -0.00713  -0.03658
  48   32841.6    304.5   0.002888152   0.00065   0.00966   0.00728   0.02241
  49   32923.1    303.7   0.001001602   0.00023   0.00633   0.00329   0.01321
  50   33084.7    302.3   0.000038131   0.00001  -0.00053  -0.00187   0.00220

-------------------------------------------------------------------
                             CD SPECTRUM
-------------------------------------------------------------------
State  Energy     Wavelength     R         MX        MY        MZ   
       (cm-1)       (nm)     (1e40*cgs)   (au)      (au)      (au)  
-------------------------------------------------------------------
   1   14601.4    684.9    -1116.94755  -0.28533   0.80850   1.09082
   2   16719.7    598.1    296.05437   0.22040   0.35901  -0.20862
   3   21045.8    475.2    2138.14475  -0.63296  -1.02358   0.60526
   4   21338.6    468.6    -445.76224   0.19098  -0.51215  -0.67540
   5   22574.5    443.0      1.94819   0.06333  -0.11755  -0.15858
   6   23062.9    433.6      0.22353   0.01619  -0.01971  -0.01178
   7   23452.2    426.4     17.53143  -0.03951  -0.06276   0.03900
   8   24218.5    412.9     -3.52051   0.00569   0.00287  -0.00995
   9   24551.9    407.3    -547.04102   0.04454  -0.36613  -0.59183
  10   25148.2    397.6    152.65314   0.18048   0.29965  -0.16386
  11   25248.7    396.1     18.61611   0.08378   0.13487  -0.08195
  12   25614.8    390.4    -39.69348  -0.03948   0.07172   0.08219
  13   25870.0    386.5    303.19805   0.27703   0.44565  -0.26761
  14   26018.3    384.3    -196.13093  -0.06194   0.17960   0.23262
  15   26781.3    373.4     -1.53555   0.15520   0.24783  -0.14936
  16   27245.6    367.0    -10.29944   0.02679   0.07294   0.13633
  17   27378.7    365.2    -97.60696   0.00653   0.08174   0.13440
  18   27515.1    363.4     18.15926  -0.07757  -0.12325   0.08088
  19   27830.0    359.3      0.04567  -0.00108   0.00762  -0.00726
  20   27973.5    357.5     44.25603   0.16045   0.25819  -0.15368
  21   28799.0    347.2     -5.33779   0.01693   0.09261   0.18312
  22   29022.7    344.6    219.48490  -0.29384  -0.47700   0.27896
  23   29056.0    344.2    -33.82574  -0.04740   0.10184   0.08806
  24   29180.2    342.7    -24.99641   0.01574   0.09087   0.16587
  25   29336.5    340.9      2.43887   0.01141   0.01854  -0.01186
  26   29455.2    339.5     -0.73919  -0.03300  -0.03491  -0.09388
  27   29966.5    333.7     -8.58070  -0.05260  -0.09841   0.02975
  28   30028.6    333.0    -107.23903   0.01501  -0.17477  -0.30683
  29   30158.7    331.6     -9.82040  -0.04852  -0.10618   0.01775
  30   30210.1    331.0    -47.06944   0.03847  -0.16781  -0.28706
  31   30393.9    329.0     81.40769   0.08643  -0.10835  -0.12498
  32   30528.6    327.6     -1.07861  -0.11565  -0.19471   0.10946
  33   30943.5    323.2    204.90349   0.39595   0.61414  -0.39222
  34   31109.2    321.4    -238.19077  -0.08461   0.37703   0.45615
  35   31225.4    320.3     35.19678  -0.11107  -0.17896   0.10589
  36   31435.5    318.1     -0.76502  -0.02527  -0.04001   0.02540
  37   31537.9    317.1      3.70869  -0.00369   0.05331   0.08562
  38   31692.7    315.5      8.67770  -0.02859  -0.05699   0.01928
  39   31762.0    314.8      3.13173   0.03268   0.00521   0.03802
  40   31904.7    313.4      9.20494   0.01333   0.01251   0.03122
  41   32081.7    311.7      1.63381   0.05106   0.08963  -0.04567
  42   32219.3    310.4    -14.63847   0.03524  -0.14902  -0.22083
  43   32270.9    309.9     -4.62245   0.02992   0.05230  -0.02704
  44   32468.5    308.0    117.50402  -0.15844   0.25037   0.25654
  45   32523.9    307.5      4.09620   0.02591   0.02493  -0.02625
  46   32633.3    306.4     -1.62404   0.10676  -0.00249  -0.05211
  47   32655.6    306.2    -46.96157  -0.22868   0.19508   0.03964
  48   32841.6    304.5     -2.25671   0.00690   0.05701   0.09616
  49   32923.1    303.7     -0.69062  -0.02524   0.04755   0.02482
  50   33084.7    302.3     10.99286   0.12007   0.19765  -0.11310

Total run time:   264771.033 sec

           *** ORCA-CIS/TD-DFT FINISHED WITHOUT ERROR ***

-----------------------
CIS/TD-DFT TOTAL ENERGY
-----------------------

    E(SCF)  =  -5249.102525233 Eh
    DE(CIS) =      0.066528773 Eh (Root  1)
    ----------------------------- ---------
    E(tot)  =  -5249.035996460 Eh


-------------------------   --------------------
FINAL SINGLE POINT ENERGY     -5249.035996460153
-------------------------   --------------------


                            ***************************************
                            *     ORCA property calculations      *
                            ***************************************

                                    ---------------------
                                    Active property flags
                                    ---------------------
   (+) Dipole Moment


------------------------------------------------------------------------------
                       ORCA ELECTRIC PROPERTIES CALCULATION
------------------------------------------------------------------------------

Dipole Moment Calculation                       ... on
Quadrupole Moment Calculation                   ... off
Polarizability Calculation                      ... off
GBWName                                         ... BTA3.gbw
Electron density file                           ... BTA3.scfp
The origin for moment calculation is the CENTER OF MASS  = ( 0.755625, -6.502760  2.184717)

-------------
DIPOLE MOMENT
-------------
                                X             Y             Z
Electronic contribution:    -18.75405     -31.11879      18.21998
Nuclear contribution   :     20.79193      34.53270     -20.24886
                        -----------------------------------------
Total Dipole Moment    :      2.03788       3.41391      -2.02888
                        -----------------------------------------
Magnitude (a.u.)       :      4.46364
Magnitude (Debye)      :     11.34567



--------------------
Rotational spectrum 
--------------------
 
Rotational constants in cm-1:     0.000715     0.000204     0.000203 
Rotational constants in MHz :    21.432918     6.105581     6.099601 

 Dipole components along the rotational axes: 
x,y,z [a.u.] :    -0.058206     4.260170    -1.331030 
x,y,z [Debye]:    -0.147947    10.828490    -3.383210 

 

Timings for individual modules:

Sum of individual times         ...   274656.537 sec (=4577.609 min)
GTO integral calculation        ...       31.322 sec (=   0.522 min)   0.0 %
SCF iterations                  ...     9850.587 sec (= 164.176 min)   3.6 %
CIS module                      ...   264774.628 sec (=4412.910 min)  96.4 %
                             ****ORCA TERMINATED NORMALLY****
TOTAL RUN TIME: 3 days 4 hours 17 minutes 42 seconds 34 msec
