
                                 *****************
                                 * O   R   C   A *
                                 *****************

           --- An Ab Initio, DFT and Semiempirical electronic structure package ---

                  #######################################################
                  #                        -***-                        #
                  #          Department of theory and spectroscopy      #
                  #               Directorship: Frank Neese             #
                  #        Max Planck Institute fuer Kohlenforschung    #
                  #                Kaiser Wilhelm Platz 1               #
                  #                 D-45470 Muelheim/Ruhr               #
                  #                      Germany                        #
                  #                                                     #
                  #                  All rights reserved                #
                  #                        -***-                        #
                  #######################################################


                         Program Version 4.2.0 -  RELEASE  -


 With contributions from (in alphabetic order):
   Daniel Aravena         : Magnetic Suceptibility
   Michael Atanasov       : Ab Initio Ligand Field Theory (pilot matlab implementation)
   Alexander A. Auer      : GIAO ZORA, VPT2
   Ute Becker             : Parallelization
   Giovanni Bistoni       : ED, misc. LED, open-shell LED, HFLED
   Martin Brehm           : Molecular dynamics
   Dmytro Bykov           : SCF Hessian
   Vijay G. Chilkuri      : MRCI spin determinant printing, contributions to CSF-ICE
   Dipayan Datta          : RHF DLPNO-CCSD density
   Achintya Kumar Dutta   : EOM-CC, STEOM-CC
   Dmitry Ganyushin       : Spin-Orbit,Spin-Spin,Magnetic field MRCI
   Miquel Garcia          : C-PCM Hessian, Gaussian charge scheme
   Yang Guo               : DLPNO-NEVPT2, CIM, IAO-localization
   Andreas Hansen         : Spin unrestricted coupled pair/coupled cluster methods
   Benjamin Helmich-Paris : CASSCF linear response (MC-RPA)
   Lee Huntington         : MR-EOM, pCC
   Robert Izsak           : Overlap fitted RIJCOSX, COSX-SCS-MP3, EOM
   Christian Kollmar      : KDIIS, OOCD, Brueckner-CCSD(T), CCSD density
   Simone Kossmann        : Meta GGA functionals, TD-DFT gradient, OOMP2, MP2 Hessian
   Martin Krupicka        : AUTO-CI
   Lucas Lang             : DCDCAS
   Dagmar Lenk            : GEPOL surface, SMD
   Dimitrios Liakos       : Extrapolation schemes; Compound Job, initial MDCI parallelization
   Dimitrios Manganas     : Further ROCIS development; embedding schemes
   Dimitrios Pantazis     : SARC Basis sets
   Taras Petrenko         : DFT Hessian,TD-DFT gradient, ASA, ECA, R-Raman, ABS, FL, XAS/XES, NRVS
   Peter Pinski           : DLPNO-MP2, DLPNO-MP2 Gradient
   Christoph Reimann      : Effective Core Potentials
   Marius Retegan         : Local ZFS, SOC
   Christoph Riplinger    : Optimizer, TS searches, QM/MM, DLPNO-CCSD(T), (RO)-DLPNO pert. Triples
   Tobias Risthaus        : Range-separated hybrids, TD-DFT gradient, RPA, STAB
   Michael Roemelt        : Original ROCIS implementation
   Masaaki Saitow         : Open-shell DLPNO-CCSD energy and density
   Barbara Sandhoefer     : DKH picture change effects
   Avijit Sen             : IP-ROCIS
   Kantharuban Sivalingam : CASSCF convergence, NEVPT2, FIC-MRCI
   Bernardo de Souza      : ESD, SOC TD-DFT
   Georgi Stoychev        : AutoAux, RI-MP2 NMR
   Willem Van den Heuvel  : Paramagnetic NMR
   Boris Wezisla          : Elementary symmetry handling
   Frank Wennmohs         : Technical directorship


 We gratefully acknowledge several colleagues who have allowed us to
 interface, adapt or use parts of their codes:
   Stefan Grimme, W. Hujo, H. Kruse,             : VdW corrections, initial TS optimization,
                  C. Bannwarth                     DFT functionals, gCP, sTDA/sTD-DF
   Ed Valeev, F. Pavosevic, A. Kumar             : LibInt (2-el integral package), F12 methods
   Garnet Chan, S. Sharma, J. Yang, R. Olivares  : DMRG
   Ulf Ekstrom                                   : XCFun DFT Library
   Mihaly Kallay                                 : mrcc  (arbitrary order and MRCC methods)
   Andreas Klamt, Michael Diedenhofen            : otool_cosmo (COSMO solvation model)
   Jiri Pittner, Ondrej Demel                    : Mk-CCSD
   Frank Weinhold                                : gennbo (NPA and NBO analysis)
   Christopher J. Cramer and Donald G. Truhlar   : smd solvation model
   Lars Goerigk                                  : TD-DFT with DH, B97 family of functionals
   V. Asgeirsson, H. Jonsson                     : NEB implementation
   FAccTs GmbH                                   : IRC, NEB, NEB-TS, Multilevel, MM, QM/MM, CI optimization
   S Lehtola, MJT Oliveira, MAL Marques          : LibXC Library


 Your calculation uses the libint2 library for the computation of 2-el integrals
 For citations please refer to: http://libint.valeyev.net

 Your ORCA version has been built with support for libXC version: 4.2.3
 For citations please refer to: https://tddft.org/programs/libxc/

 This ORCA versions uses:
   CBLAS   interface :  Fast vector & matrix operations
   LAPACKE interface :  Fast linear algebra routines
   SCALAPACK package :  Parallel linear algebra routines


----- Orbital basis set information -----
Your calculation utilizes the basis: def2-TZVP
   F. Weigend and R. Ahlrichs, Phys. Chem. Chem. Phys. 7, 3297 (2005).

----- AuxJ basis set information -----
Your calculation utilizes the auxiliary basis: def2/J
   F. Weigend, Phys. Chem. Chem. Phys. 8, 1057 (2006).

================================================================================
                                        WARNINGS
                       Please study these warnings very carefully!
================================================================================

INFO   : Checking CIS options ...

WARNING: CIS/ROCIS methods need fully converged wavefunctions
  ===> : Setting SCFConvForced true
         You can overwrite this default with %scf ConvForced false 


INFO   : the flag for use of LIBINT has been found!

================================================================================
                                       INPUT FILE
================================================================================
NAME = BTSe-4F.inp
|  1> # ORCA input file
|  2> # BTSe-4F.out
|  3> ! B3LYP def2-TZVP def2/J RIJCOSX Grid4 TightSCF
|  4> 
|  5> %maxcore 6000
|  6> %tddft
|  7>   maxdim 5
|  8>   nroots 50
|  9>   end
| 10> %pal
| 11>   nprocs 6
| 12>   end
| 13> 
| 14> 
| 15> * xyz 0 1
| 16>    C        0.85050        -0.50188         0.10754
| 17>    C        1.47105         0.76645        -0.00263
| 18>    C        2.96576         0.80370        -0.02309
| 19>    C        3.63020        -0.44233         0.11639
| 20>    C        2.97160        -1.66698         0.22818
| 21>    C        1.55656        -1.69784         0.21199
| 22>    N        3.58935        -2.87051         0.33562
| 23>    S        2.30886        -3.91663         0.40696
| 24>    N        0.98749        -2.92591         0.30996
| 25>    N        3.97037         1.78052        -0.16273
| 26>    C        5.18140         1.12173        -0.09877
| 27>    C        4.98002        -0.20031         0.09296
| 28>    C       -0.51363        -0.31507         0.08715
| 29>    C       -0.75145         0.98675         0.00183
| 30>    N        0.43170         1.69786        -0.06596
| 31>   Se       -1.96741        -1.36379         0.13875
| 32>    C       -3.00423         0.18950         0.10481
| 33>    C       -2.13338         1.32370         0.00026
| 34>    C        6.59103         1.42644        -0.22359
| 35>    C        7.37286         0.30065        -0.06277
| 36>    S        6.41649        -1.09084         0.18447
| 37>    S        7.69512         2.68177        -0.61727
| 38>    C        9.19275         1.78014        -0.53230
| 39>    C        8.76892         0.44467        -0.23686
| 40>    C        0.47770         3.14857        -0.16867
| 41>    C        3.91612         3.22240        -0.35469
| 42>    C       -4.57214         0.25783         0.06024
| 43>    C       -5.50580        -0.77359         0.20630
| 44>    C       10.40784         1.88652        -1.45126
| 45>    C       11.80342         1.77537        -1.32286
| 46>    C       -5.16634        -2.16723         0.60674
| 47>    C       -6.26292        -3.05043         0.35154
| 48>    C       -7.36599        -2.32999        -0.03938
| 49>    C       -7.06264        -0.83203         0.02305
| 50>    C       12.34823         0.78789        -2.32365
| 51>    C       13.32072        -0.04352        -1.59829
| 52>    C       13.66832         0.59144        -0.44073
| 53>    C       13.00877         1.88900        -0.36640
| 54>    C       -6.24999        -4.44765         0.44198
| 55>    C       -7.39679        -5.15668         0.08025
| 56>    C       -8.52265        -4.46522        -0.37478
| 57>    C       -8.51395        -3.06469        -0.43988
| 58>    C       13.80959        -1.32458        -1.87905
| 59>    C       14.63212        -1.95682        -0.92151
| 60>    C       14.96327        -1.29954         0.27983
| 61>    C       14.49271        -0.00539         0.51865
| 62>    O       -4.15875        -2.55479         1.16110
| 63>    C       -8.07607         0.14102        -0.03636
| 64>    C       -7.80643         1.63690        -0.03189
| 65>    C       -9.50634        -0.37340        -0.04702
| 66>    F       -7.40848        -6.51136         0.14038
| 67>    F       -9.62724        -5.15083        -0.76375
| 68>    O       11.82781         0.44327        -3.37525
| 69>    C       13.70330         3.02265         0.06162
| 70>    C       13.07019         4.40452         0.05739
| 71>    C       15.21654         2.88001         0.07322
| 72>    F       15.71682        -1.92237         1.22097
| 73>    F       15.08029        -3.21733        -1.13810
| 74>    N      -10.69286        -0.80014        -0.05585
| 75>    N       -7.58275         2.87786        -0.02818
| 76>    N       16.47191         2.76168         0.08284
| 77>    N       12.54498         5.55089         0.05388
| 78>    C        9.64461        -0.78121        -0.26490
| 79>    H       -2.50412         2.33644        -0.06974
| 80>    H       -0.54285         3.58208        -0.16059
| 81>    H        0.93495         3.43705        -1.13559
| 82>    H        1.01365         3.56572         0.70879
| 83>    H        2.90662         3.60617        -0.37977
| 84>    H        4.44785         3.72350         0.48128
| 85>    H        4.41060         3.48860        -1.31183
| 86>    H       -4.97641         1.23207        -0.18923
| 87>    H       10.02678         1.58556        -2.42376
| 88>    H       -5.36286        -4.97761         0.76326
| 89>    H       -9.40465        -2.62938        -0.83349
| 90>    H       13.52629        -1.84175        -2.78416
| 91>    H       14.71980         0.49992         1.45113
| 92>    H       10.70795        -0.54501        -0.44377
| 93>    H        9.30037        -1.46416        -1.07223
| 94>    H        9.57409        -1.31327         0.70588
| 95> *
| 96> 
| 97>                          ****END OF INPUT****
================================================================================

                       ****************************
                       * Single Point Calculation *
                       ****************************

---------------------------------
CARTESIAN COORDINATES (ANGSTROEM)
---------------------------------
  C      0.850500   -0.501880    0.107540
  C      1.471050    0.766450   -0.002630
  C      2.965760    0.803700   -0.023090
  C      3.630200   -0.442330    0.116390
  C      2.971600   -1.666980    0.228180
  C      1.556560   -1.697840    0.211990
  N      3.589350   -2.870510    0.335620
  S      2.308860   -3.916630    0.406960
  N      0.987490   -2.925910    0.309960
  N      3.970370    1.780520   -0.162730
  C      5.181400    1.121730   -0.098770
  C      4.980020   -0.200310    0.092960
  C     -0.513630   -0.315070    0.087150
  C     -0.751450    0.986750    0.001830
  N      0.431700    1.697860   -0.065960
  Se    -1.967410   -1.363790    0.138750
  C     -3.004230    0.189500    0.104810
  C     -2.133380    1.323700    0.000260
  C      6.591030    1.426440   -0.223590
  C      7.372860    0.300650   -0.062770
  S      6.416490   -1.090840    0.184470
  S      7.695120    2.681770   -0.617270
  C      9.192750    1.780140   -0.532300
  C      8.768920    0.444670   -0.236860
  C      0.477700    3.148570   -0.168670
  C      3.916120    3.222400   -0.354690
  C     -4.572140    0.257830    0.060240
  C     -5.505800   -0.773590    0.206300
  C     10.407840    1.886520   -1.451260
  C     11.803420    1.775370   -1.322860
  C     -5.166340   -2.167230    0.606740
  C     -6.262920   -3.050430    0.351540
  C     -7.365990   -2.329990   -0.039380
  C     -7.062640   -0.832030    0.023050
  C     12.348230    0.787890   -2.323650
  C     13.320720   -0.043520   -1.598290
  C     13.668320    0.591440   -0.440730
  C     13.008770    1.889000   -0.366400
  C     -6.249990   -4.447650    0.441980
  C     -7.396790   -5.156680    0.080250
  C     -8.522650   -4.465220   -0.374780
  C     -8.513950   -3.064690   -0.439880
  C     13.809590   -1.324580   -1.879050
  C     14.632120   -1.956820   -0.921510
  C     14.963270   -1.299540    0.279830
  C     14.492710   -0.005390    0.518650
  O     -4.158750   -2.554790    1.161100
  C     -8.076070    0.141020   -0.036360
  C     -7.806430    1.636900   -0.031890
  C     -9.506340   -0.373400   -0.047020
  F     -7.408480   -6.511360    0.140380
  F     -9.627240   -5.150830   -0.763750
  O     11.827810    0.443270   -3.375250
  C     13.703300    3.022650    0.061620
  C     13.070190    4.404520    0.057390
  C     15.216540    2.880010    0.073220
  F     15.716820   -1.922370    1.220970
  F     15.080290   -3.217330   -1.138100
  N    -10.692860   -0.800140   -0.055850
  N     -7.582750    2.877860   -0.028180
  N     16.471910    2.761680    0.082840
  N     12.544980    5.550890    0.053880
  C      9.644610   -0.781210   -0.264900
  H     -2.504120    2.336440   -0.069740
  H     -0.542850    3.582080   -0.160590
  H      0.934950    3.437050   -1.135590
  H      1.013650    3.565720    0.708790
  H      2.906620    3.606170   -0.379770
  H      4.447850    3.723500    0.481280
  H      4.410600    3.488600   -1.311830
  H     -4.976410    1.232070   -0.189230
  H     10.026780    1.585560   -2.423760
  H     -5.362860   -4.977610    0.763260
  H     -9.404650   -2.629380   -0.833490
  H     13.526290   -1.841750   -2.784160
  H     14.719800    0.499920    1.451130
  H     10.707950   -0.545010   -0.443770
  H      9.300370   -1.464160   -1.072230
  H      9.574090   -1.313270    0.705880

----------------------------
CARTESIAN COORDINATES (A.U.)
----------------------------
  NO LB      ZA    FRAG     MASS         X           Y           Z
   0 C     6.0000    0    12.011    1.607212   -0.948416    0.203221
   1 C     6.0000    0    12.011    2.779882    1.448381   -0.004970
   2 C     6.0000    0    12.011    5.604474    1.518773   -0.043634
   3 C     6.0000    0    12.011    6.860084   -0.835883    0.219945
   4 C     6.0000    0    12.011    5.615510   -3.150136    0.431198
   5 C     6.0000    0    12.011    2.941472   -3.208453    0.400603
   6 N     7.0000    0    14.007    6.782888   -5.424478    0.634230
   7 S    16.0000    0    32.060    4.363113   -7.401358    0.769043
   8 N     7.0000    0    14.007    1.866086   -5.529169    0.585740
   9 N     7.0000    0    14.007    7.502912    3.364695   -0.307515
  10 C     6.0000    0    12.011    9.791427    2.119762   -0.186648
  11 C     6.0000    0    12.011    9.410874   -0.378531    0.175669
  12 C     6.0000    0    12.011   -0.970620   -0.595396    0.164690
  13 C     6.0000    0    12.011   -1.420035    1.864687    0.003458
  14 N     7.0000    0    14.007    0.815795    3.208490   -0.124646
  15 Se   34.0000    0    78.960   -3.717866   -2.577190    0.262200
  16 C     6.0000    0    12.011   -5.677172    0.358103    0.198062
  17 C     6.0000    0    12.011   -4.031504    2.501430    0.000491
  18 C     6.0000    0    12.011   12.455242    2.695581   -0.422524
  19 C     6.0000    0    12.011   13.932686    0.568146   -0.118618
  20 S    16.0000    0    32.060   12.125409   -2.061389    0.348598
  21 S    16.0000    0    32.060   14.541669    5.067811   -1.166471
  22 C     6.0000    0    12.011   17.371780    3.363977   -1.005901
  23 C     6.0000    0    12.011   16.570857    0.840305   -0.447601
  24 C     6.0000    0    12.011    0.902722    5.949935   -0.318740
  25 C     6.0000    0    12.011    7.400394    6.089453   -0.670267
  26 C     6.0000    0    12.011   -8.640092    0.487228    0.113837
  27 C     6.0000    0    12.011  -10.404454   -1.461873    0.389851
  28 C     6.0000    0    12.011   19.667967    3.565006   -2.742484
  29 C     6.0000    0    12.011   22.305231    3.354963   -2.499843
  30 C     6.0000    0    12.011   -9.762968   -4.095471    1.146572
  31 C     6.0000    0    12.011  -11.835204   -5.764477    0.664314
  32 C     6.0000    0    12.011  -13.919704   -4.403043   -0.074417
  33 C     6.0000    0    12.011  -13.346455   -1.572309    0.043558
  34 C     6.0000    0    12.011   23.334773    1.488896   -4.391062
  35 C     6.0000    0    12.011   25.172513   -0.082241   -3.020330
  36 C     6.0000    0    12.011   25.829382    1.117660   -0.832859
  37 C     6.0000    0    12.011   24.583013    3.569693   -0.692396
  38 C     6.0000    0    12.011  -11.810769   -8.404840    0.835221
  39 C     6.0000    0    12.011  -13.977907   -9.744713    0.151651
  40 C     6.0000    0    12.011  -16.105474   -8.438043   -0.708232
  41 C     6.0000    0    12.011  -16.089034   -5.791425   -0.831253
  42 C     6.0000    0    12.011   26.096343   -2.503093   -3.550890
  43 C     6.0000    0    12.011   27.650700   -3.697854   -1.741402
  44 C     6.0000    0    12.011   28.276482   -2.455775    0.528802
  45 C     6.0000    0    12.011   27.387253   -0.010186    0.980106
  46 O     8.0000    0    15.999   -7.858899   -4.827853    2.194161
  47 C     6.0000    0    12.011  -15.261561    0.266489   -0.068710
  48 C     6.0000    0    12.011  -14.752015    3.093293   -0.060263
  49 C     6.0000    0    12.011  -17.964379   -0.705624   -0.088855
  50 F     9.0000    0    18.998  -13.999998  -12.304687    0.265280
  51 F     9.0000    0    18.998  -18.192847   -9.733658   -1.443278
  52 O     8.0000    0    15.999   22.351322    0.837659   -6.378298
  53 C     6.0000    0    12.011   25.895484    5.711981    0.116445
  54 C     6.0000    0    12.011   24.699080    8.323337    0.108451
  55 C     6.0000    0    12.011   28.755093    5.442430    0.138366
  56 F     9.0000    0    18.998   29.700485   -3.632753    2.307299
  57 F     9.0000    0    18.998   28.497618   -6.079873   -2.150697
  58 N     7.0000    0    14.007  -20.206577   -1.512045   -0.105541
  59 N     7.0000    0    14.007  -14.329321    5.438367   -0.053252
  60 N     7.0000    0    14.007   31.127399    5.218819    0.156545
  61 N     7.0000    0    14.007   23.706577   10.489662    0.101818
  62 C     6.0000    0    12.011   18.225672   -1.476273   -0.500588
  63 H     1.0000    0     1.008   -4.732101    4.415232   -0.131790
  64 H     1.0000    0     1.008   -1.025838    6.769150   -0.303471
  65 H     1.0000    0     1.008    1.766799    6.495083   -2.145954
  66 H     1.0000    0     1.008    1.915521    6.738234    1.339419
  67 H     1.0000    0     1.008    5.492716    6.814674   -0.717661
  68 H     1.0000    0     1.008    8.405218    7.036395    0.909487
  69 H     1.0000    0     1.008    8.334826    6.592499   -2.478999
  70 H     1.0000    0     1.008   -9.404052    2.328275   -0.357593
  71 H     1.0000    0     1.008   18.947868    2.996274   -4.580243
  72 H     1.0000    0     1.008  -10.134337   -9.406320    1.442352
  73 H     1.0000    0     1.008  -17.772213   -4.968808   -1.575068
  74 H     1.0000    0     1.008   25.560984   -3.480403   -5.261300
  75 H     1.0000    0     1.008   27.816391    0.944712    2.742238
  76 H     1.0000    0     1.008   20.235093   -1.029920   -0.838604
  77 H     1.0000    0     1.008   17.575152   -2.766861   -2.026221
  78 H     1.0000    0     1.008   18.092408   -2.481721    1.333920

--------------------------------
INTERNAL COORDINATES (ANGSTROEM)
--------------------------------
 C      0   0   0     0.000000000000     0.00000000     0.00000000
 C      1   0   0     1.416291184856     0.00000000     0.00000000
 C      2   1   0     1.495314066743   117.47408934     0.00000000
 C      3   2   1     1.418987647903   116.41312968   357.92765564
 C      4   3   2     1.394997701288   123.89634272     1.93669469
 C      1   2   3     1.392749384383   123.55284452     0.76895586
 N      5   4   3     1.357071434008   124.74985775   178.62909159
 S      7   5   4     1.655026008889   102.22729672   180.90064101
 N      6   1   2     1.357053687479   124.74423633   180.44620491
 N      3   2   1     1.408161174759   137.03489188   177.10427776
 C     10   3   2     1.380104636106   106.87562078   180.45546609
 C     11  10   3     1.350964121988   110.05382551   359.04729450
 C      1   2   3     1.377012848560   108.14422619   180.92271888
 C     13   1   2     1.326112049263   108.16709317   358.62915360
 N     14  13   1     1.382069766220   110.77698134     1.29334872
 Se    13   1   2     1.793307694402   136.32958633   178.30345694
 C     16  13   1     1.867848350402    87.88858893   178.02332687
 C     14  13   1     1.422416356873   114.00705533   181.25863298
 C     11  10   3     1.447578997292   138.59137372   176.21474005
 C     19  11  10     1.380045051946   111.71006157   180.47120840
 S     12  11  10     1.692590860752   113.33053565   180.00806571
 S     19  11  10     1.717513341840   143.09248355   354.16091239
 C     22  19  11     1.750157757089    99.34744216   184.43351725
 C     20  19  11     1.414225092445   117.50516333   176.47169601
 C     15  14  13     1.455068674737   122.92289748   179.87767954
 C     10   3   2     1.455613148642   132.34775621   359.90432775
 C     17  16  13     1.570030968453   126.23126888   177.13430431
 C     27  17  16     1.398885890843   129.15913594     8.98254981
 C     23  22  19     1.527169896934   128.00606812   140.54435946
 C     29  23  22     1.405874965600   136.83251546   145.73680414
 C     28  27  17     1.489233942267   124.46663540     7.79961868
 C     31  28  27     1.430963653067   110.79075367   194.25311782
 C     32  31  28     1.374269138451   110.01494783   352.81500275
 C     33  32  31     1.529641424975   110.03466497   356.32735686
 C     30  29  23     1.507818062831   110.47726341   127.04498447
 C     35  30  29     1.470757124001   106.36660505   223.91226385
 C     36  35  30     1.365263752980   108.88058527   342.64687309
 C     37  36  35     1.457461184732   110.00375061   357.18880113
 C     32  31  28     1.400203666221   126.67645204   171.35378306
 C     39  32  31     1.395966465858   118.84932348   183.67148732
 C     40  39  32     1.397401149313   119.66499837     0.64977991
 C     41  40  39     1.402069178357   120.29121584   358.55111516
 C     36  35  30     1.399619511903   130.49876137   157.85412228
 C     43  36  35     1.411795264938   118.51169166   187.22510026
 C     44  43  36     1.408863058107   120.42133656   359.18755433
 C     45  44  43     1.397600060282   119.90540837   359.01396777
 O     31  28  27     1.213571329300   127.65737398    19.11055248
 C     34  33  32     1.406199209038   122.20788605   194.19588406
 C     48  34  33     1.519994304233   123.57464091   182.48552456
 C     48  34  33     1.520004554237   116.37543975     5.04894085
 F     40  39  32     1.356064222447   120.19779788   179.12595315
 F     41  40  39     1.357010612007   119.94387021   178.13582948
 O     35  30  29     1.222891033903   126.98136820    22.94324927
 C     38  37  36     1.396687282036   120.87844462   223.15114960
 C     54  38  37     1.520003572989   122.00095451   175.66703334
 C     54  38  37     1.519992114190   114.91226707    15.56224269
 F     45  44  43     1.357018537456   120.51581364   177.79374034
 F     44  43  36     1.355231728193   120.05290737   177.45145500
 N     50  48  34     1.260957852944   179.99922664   126.26384429
 N     49  48  34     1.260963214412   179.99957345   193.81707911
 N     56  54  38     1.260971201178   179.99980442   111.41201650
 N     55  54  38     1.260960761126   179.99980541   213.24779679
 C     24  20  19     1.506784985358   119.54710216   188.56536979
 H     18  14  13     1.080736071018   123.73365476   180.41409031
 H     25  15  14     1.108836556486   111.11108622     1.28333830
 H     25  15  14     1.107805289435   109.52913015   243.86660224
 H     25  15  14     1.109591175434   109.52830608   119.24218731
 H     26  10   3     1.080277126158   112.94138010     0.96159821
 H     26  10   3     1.110262961555   109.26462567   120.85685379
 H     26  10   3     1.109725141645   109.55747267   240.36907406
 H     27  17  16     1.083887951497   114.71658680   193.81149510
 H     29  23  22     1.086986612245   103.89532616   297.11776682
 H     39  32  31     1.082163609118   121.02588517     2.22775917
 H     42  41  40     1.066663076234   114.80988389   177.83602921
 H     43  36  35     1.080253586432   120.97519637     4.18254693
 H     46  45  44     1.084632202454   120.51816500   178.38316292
 H     63  24  20     1.103846398961   112.87774725   177.85123662
 H     63  24  20     1.112071764321   109.46591632    57.30291296
 H     63  24  20     1.109267651381   109.69406454   298.07873342

---------------------------
INTERNAL COORDINATES (A.U.)
---------------------------
 C      0   0   0     0.000000000000     0.00000000     0.00000000
 C      1   0   0     2.676402465264     0.00000000     0.00000000
 C      2   1   0     2.825734070345   117.47408934     0.00000000
 C      3   2   1     2.681498041953   116.41312968   357.92765564
 C      4   3   2     2.636163612885   123.89634272     1.93669469
 C      1   2   3     2.631914909672   123.55284452     0.76895586
 N      5   4   3     2.564493354443   124.74985775   178.62909159
 S      7   5   4     3.127545901317   102.22729672   180.90064101
 N      6   1   2     2.564459818363   124.74423633   180.44620491
 N      3   2   1     2.661038972716   137.03489188   177.10427776
 C     10   3   2     2.608019798395   106.87562078   180.45546609
 C     11  10   3     2.552952207312   110.05382551   359.04729450
 C      1   2   3     2.602177166670   108.14422619   180.92271888
 C     13   1   2     2.505988596000   108.16709317   358.62915360
 N     14  13   1     2.611733356129   110.77698134     1.29334872
 Se    13   1   2     3.388860416273   136.32958633   178.30345694
 C     16  13   1     3.529721841957    87.88858893   178.02332687
 C     14  13   1     2.687977362900   114.00705533   181.25863298
 C     11  10   3     2.735527862098   138.59137372   176.21474005
 C     19  11  10     2.607907200651   111.71006157   180.47120840
 S     12  11  10     3.198533183599   113.33053565   180.00806571
 S     19  11  10     3.245629847434   143.09248355   354.16091239
 C     22  19  11     3.307318852057    99.34744216   184.43351725
 C     20  19  11     2.672498116440   117.50516333   176.47169601
 C     15  14  13     2.749681301300   122.92289748   179.87767954
 C     10   3   2     2.750710207869   132.34775621   359.90432775
 C     17  16  13     2.966928552150   126.23126888   177.13430431
 C     27  17  16     2.643511226300   129.15913594     8.98254981
 C     23  22  19     2.885932865173   128.00606812   140.54435946
 C     29  23  22     2.656718663519   136.83251546   145.73680414
 C     28  27  17     2.814244300224   124.46663540     7.79961868
 C     31  28  27     2.704129411893   110.79075367   194.25311782
 C     32  31  28     2.596992305973   110.01494783   352.81500275
 C     33  32  31     2.890603376304   110.03466497   356.32735686
 C     30  29  23     2.849363198531   110.47726341   127.04498447
 C     35  30  29     2.779328173876   106.36660505   223.91226385
 C     36  35  30     2.579974593701   108.88058527   342.64687309
 C     37  36  35     2.754202489964   110.00375061   357.18880113
 C     32  31  28     2.646001460871   126.67645204   171.35378306
 C     39  32  31     2.637994312610   118.84932348   183.67148732
 C     40  39  32     2.640705471427   119.66499837     0.64977991
 C     41  40  39     2.649526767908   120.29121584   358.55111516
 C     36  35  30     2.644897569189   130.49876137   157.85412228
 C     43  36  35     2.667906407899   118.51169166   187.22510026
 C     44  43  36     2.662365340022   120.42133656   359.18755433
 C     45  44  43     2.641081358685   119.90540837   359.01396777
 O     31  28  27     2.293317456357   127.65737398    19.11055248
 C     34  33  32     2.657331394819   122.20788605   194.19588406
 C     48  34  33     2.872372960120   123.57464091   182.48552456
 C     48  34  33     2.872392329820   116.37543975     5.04894085
 F     40  39  32     2.562590000433   120.19779788   179.12595315
 F     41  40  39     2.564378417518   119.94387021   178.13582948
 O     35  30  29     2.310929145704   126.98136820    22.94324927
 C     38  37  36     2.639356457778   120.87844462   223.15114960
 C     54  38  37     2.872390475531   122.00095451   175.66703334
 C     54  38  37     2.872368821539   114.91226707    15.56224269
 F     45  44  43     2.564393394447   120.51581364   177.79374034
 F     44  43  36     2.561016814285   120.05290737   177.45145500
 N     50  48  34     2.382865008481   179.99922664   126.26384429
 N     49  48  34     2.382875140188   179.99957345   193.81707911
 N     56  54  38     2.382890232988   179.99980442   111.41201650
 N     55  54  38     2.382870504149   179.99980541   213.24779679
 C     24  20  19     2.847410965031   119.54710216   188.56536979
 H     18  14  13     2.042295197275   123.73365476   180.41409031
 H     25  15  14     2.095397419039   111.11108622     1.28333830
 H     25  15  14     2.093448606741   109.52913015   243.86660224
 H     25  15  14     2.096823442185   109.52830608   119.24218731
 H     26  10   3     2.041427917178   112.94138010     0.96159821
 H     26  10   3     2.098092933975   109.26462567   120.85685379
 H     26  10   3     2.097076601637   109.55747267   240.36907406
 H     27  17  16     2.048251388186   114.71658680   193.81149510
 H     29  23  22     2.054107008382   103.89532616   297.11776682
 H     39  32  31     2.044992853329   121.02588517     2.22775917
 H     42  41  40     2.015701091247   114.80988389   177.83602921
 H     43  36  35     2.041383433543   120.97519637     4.18254693
 H     46  45  44     2.049657818670   120.51816500   178.38316292
 H     63  24  20     2.085967387952   112.87774725   177.85123662
 H     63  24  20     2.101511075833   109.46591632    57.30291296
 H     63  24  20     2.096212070328   109.69406454   298.07873342

---------------------
BASIS SET INFORMATION
---------------------
There are 7 groups of distinct atoms

 Group   1 Type C   : 11s6p2d1f contracted to 5s3p2d1f pattern {62111/411/11/1}
 Group   2 Type N   : 11s6p2d1f contracted to 5s3p2d1f pattern {62111/411/11/1}
 Group   3 Type S   : 14s9p3d1f contracted to 5s5p2d1f pattern {73211/51111/21/1}
 Group   4 Type Se  : 17s13p8d1f contracted to 6s5p4d1f pattern {842111/64111/5111/1}
 Group   5 Type O   : 11s6p2d1f contracted to 5s3p2d1f pattern {62111/411/11/1}
 Group   6 Type F   : 11s6p2d1f contracted to 5s3p2d1f pattern {62111/411/11/1}
 Group   7 Type H   : 5s1p contracted to 3s1p pattern {311/1}

Atom   0C    basis set group =>   1
Atom   1C    basis set group =>   1
Atom   2C    basis set group =>   1
Atom   3C    basis set group =>   1
Atom   4C    basis set group =>   1
Atom   5C    basis set group =>   1
Atom   6N    basis set group =>   2
Atom   7S    basis set group =>   3
Atom   8N    basis set group =>   2
Atom   9N    basis set group =>   2
Atom  10C    basis set group =>   1
Atom  11C    basis set group =>   1
Atom  12C    basis set group =>   1
Atom  13C    basis set group =>   1
Atom  14N    basis set group =>   2
Atom  15Se   basis set group =>   4
Atom  16C    basis set group =>   1
Atom  17C    basis set group =>   1
Atom  18C    basis set group =>   1
Atom  19C    basis set group =>   1
Atom  20S    basis set group =>   3
Atom  21S    basis set group =>   3
Atom  22C    basis set group =>   1
Atom  23C    basis set group =>   1
Atom  24C    basis set group =>   1
Atom  25C    basis set group =>   1
Atom  26C    basis set group =>   1
Atom  27C    basis set group =>   1
Atom  28C    basis set group =>   1
Atom  29C    basis set group =>   1
Atom  30C    basis set group =>   1
Atom  31C    basis set group =>   1
Atom  32C    basis set group =>   1
Atom  33C    basis set group =>   1
Atom  34C    basis set group =>   1
Atom  35C    basis set group =>   1
Atom  36C    basis set group =>   1
Atom  37C    basis set group =>   1
Atom  38C    basis set group =>   1
Atom  39C    basis set group =>   1
Atom  40C    basis set group =>   1
Atom  41C    basis set group =>   1
Atom  42C    basis set group =>   1
Atom  43C    basis set group =>   1
Atom  44C    basis set group =>   1
Atom  45C    basis set group =>   1
Atom  46O    basis set group =>   5
Atom  47C    basis set group =>   1
Atom  48C    basis set group =>   1
Atom  49C    basis set group =>   1
Atom  50F    basis set group =>   6
Atom  51F    basis set group =>   6
Atom  52O    basis set group =>   5
Atom  53C    basis set group =>   1
Atom  54C    basis set group =>   1
Atom  55C    basis set group =>   1
Atom  56F    basis set group =>   6
Atom  57F    basis set group =>   6
Atom  58N    basis set group =>   2
Atom  59N    basis set group =>   2
Atom  60N    basis set group =>   2
Atom  61N    basis set group =>   2
Atom  62C    basis set group =>   1
Atom  63H    basis set group =>   7
Atom  64H    basis set group =>   7
Atom  65H    basis set group =>   7
Atom  66H    basis set group =>   7
Atom  67H    basis set group =>   7
Atom  68H    basis set group =>   7
Atom  69H    basis set group =>   7
Atom  70H    basis set group =>   7
Atom  71H    basis set group =>   7
Atom  72H    basis set group =>   7
Atom  73H    basis set group =>   7
Atom  74H    basis set group =>   7
Atom  75H    basis set group =>   7
Atom  76H    basis set group =>   7
Atom  77H    basis set group =>   7
Atom  78H    basis set group =>   7
---------------------------------
AUXILIARY/J BASIS SET INFORMATION
---------------------------------
There are 7 groups of distinct atoms

 Group   1 Type C   : 12s5p4d2f1g contracted to 6s4p3d1f1g pattern {711111/2111/211/2/1}
 Group   2 Type N   : 12s5p4d2f1g contracted to 6s4p3d1f1g pattern {711111/2111/211/2/1}
 Group   3 Type S   : 14s5p5d2f1g contracted to 8s4p3d1f1g pattern {71111111/2111/311/2/1}
 Group   4 Type Se  : 19s5p5d3f1g contracted to 8s4p3d2f1g pattern {121111111/2111/311/21/1}
 Group   5 Type O   : 12s5p4d2f1g contracted to 6s4p3d1f1g pattern {711111/2111/211/2/1}
 Group   6 Type F   : 12s5p4d2f1g contracted to 6s4p3d1f1g pattern {711111/2111/211/2/1}
 Group   7 Type H   : 5s2p1d contracted to 3s1p1d pattern {311/2/1}

Atom   0C    basis set group =>   1
Atom   1C    basis set group =>   1
Atom   2C    basis set group =>   1
Atom   3C    basis set group =>   1
Atom   4C    basis set group =>   1
Atom   5C    basis set group =>   1
Atom   6N    basis set group =>   2
Atom   7S    basis set group =>   3
Atom   8N    basis set group =>   2
Atom   9N    basis set group =>   2
Atom  10C    basis set group =>   1
Atom  11C    basis set group =>   1
Atom  12C    basis set group =>   1
Atom  13C    basis set group =>   1
Atom  14N    basis set group =>   2
Atom  15Se   basis set group =>   4
Atom  16C    basis set group =>   1
Atom  17C    basis set group =>   1
Atom  18C    basis set group =>   1
Atom  19C    basis set group =>   1
Atom  20S    basis set group =>   3
Atom  21S    basis set group =>   3
Atom  22C    basis set group =>   1
Atom  23C    basis set group =>   1
Atom  24C    basis set group =>   1
Atom  25C    basis set group =>   1
Atom  26C    basis set group =>   1
Atom  27C    basis set group =>   1
Atom  28C    basis set group =>   1
Atom  29C    basis set group =>   1
Atom  30C    basis set group =>   1
Atom  31C    basis set group =>   1
Atom  32C    basis set group =>   1
Atom  33C    basis set group =>   1
Atom  34C    basis set group =>   1
Atom  35C    basis set group =>   1
Atom  36C    basis set group =>   1
Atom  37C    basis set group =>   1
Atom  38C    basis set group =>   1
Atom  39C    basis set group =>   1
Atom  40C    basis set group =>   1
Atom  41C    basis set group =>   1
Atom  42C    basis set group =>   1
Atom  43C    basis set group =>   1
Atom  44C    basis set group =>   1
Atom  45C    basis set group =>   1
Atom  46O    basis set group =>   5
Atom  47C    basis set group =>   1
Atom  48C    basis set group =>   1
Atom  49C    basis set group =>   1
Atom  50F    basis set group =>   6
Atom  51F    basis set group =>   6
Atom  52O    basis set group =>   5
Atom  53C    basis set group =>   1
Atom  54C    basis set group =>   1
Atom  55C    basis set group =>   1
Atom  56F    basis set group =>   6
Atom  57F    basis set group =>   6
Atom  58N    basis set group =>   2
Atom  59N    basis set group =>   2
Atom  60N    basis set group =>   2
Atom  61N    basis set group =>   2
Atom  62C    basis set group =>   1
Atom  63H    basis set group =>   7
Atom  64H    basis set group =>   7
Atom  65H    basis set group =>   7
Atom  66H    basis set group =>   7
Atom  67H    basis set group =>   7
Atom  68H    basis set group =>   7
Atom  69H    basis set group =>   7
Atom  70H    basis set group =>   7
Atom  71H    basis set group =>   7
Atom  72H    basis set group =>   7
Atom  73H    basis set group =>   7
Atom  74H    basis set group =>   7
Atom  75H    basis set group =>   7
Atom  76H    basis set group =>   7
Atom  77H    basis set group =>   7
Atom  78H    basis set group =>   7


           ************************************************************
           *        Program running with 6 parallel MPI-processes     *
           *              working on a common directory               *
           ************************************************************
------------------------------------------------------------------------------
                           ORCA GTO INTEGRAL CALCULATION
                           -- RI-GTO INTEGRALS CHOSEN --
------------------------------------------------------------------------------

                         BASIS SET STATISTICS AND STARTUP INFO

Gaussian basis set:
 # of primitive gaussian shells          ... 1396
 # of primitive gaussian functions       ... 3134
 # of contracted shells                  ...  768
 # of contracted basis functions         ... 2084
 Highest angular momentum                ...    3
 Maximum contraction depth               ...    8
Auxiliary gaussian basis set:
 # of primitive gaussian shells          ... 1658
 # of primitive gaussian functions       ... 4706
 # of contracted shells                  ... 1034
 # of contracted aux-basis functions     ... 3278
 Highest angular momentum                ...    4
 Maximum contraction depth               ...   12
Ratio of auxiliary to basis functions    ...  1.57
Integral package used                  ... LIBINT
 One Electron integrals                  ... done
 Ordering auxiliary basis shells         ... done
 Integral threshhold             Thresh  ...  2.500e-11
 Primitive cut-off               TCut    ...  2.500e-12
 Pre-screening matrix                    ... done
 Shell pair data                         ... 
 Ordering of the shell pairs             ... done (   0.020 sec) 99856 of 295296 pairs
 Determination of significant pairs      ... done (   0.000 sec)
 Creation of shell pair data             ... done (   0.012 sec)
 Storage of shell pair data              ... done (   1.137 sec)
 Shell pair data done in (   1.169 sec)
 Computing two index integrals           ... done
 Cholesky decomposition of the V-matrix  ... done


Timings:
 Total evaluation time                   ...   6.697 sec (  0.112 min)
 One electron matrix time                ...   1.860 sec (  0.031 min) = 27.8%
 Schwartz matrix evaluation time         ...   2.630 sec (  0.044 min) = 39.3%
 Two index repulsion integral time       ...   0.402 sec (  0.007 min) =  6.0%
 Cholesky decomposition of V             ...   0.619 sec (  0.010 min) =  9.2%
 Three index repulsion integral time     ...   0.000 sec (  0.000 min) =  0.0%



           ************************************************************
           *        Program running with 6 parallel MPI-processes     *
           *              working on a common directory               *
           ************************************************************
-------------------------------------------------------------------------------
                                 ORCA SCF
-------------------------------------------------------------------------------

------------
SCF SETTINGS
------------
Hamiltonian:
 Density Functional     Method          .... DFT(GTOs)
 Exchange Functional    Exchange        .... B88
   X-Alpha parameter    XAlpha          ....  0.666667
   Becke's b parameter  XBeta           ....  0.004200
 Correlation Functional Correlation     .... LYP
 LDA part of GGA corr.  LDAOpt          .... VWN-5
 Gradients option       PostSCFGGA      .... off
 Hybrid DFT is turned on
   Fraction HF Exchange ScalHFX         ....  0.200000
   Scaling of DF-GGA-X  ScalDFX         ....  0.720000
   Scaling of DF-GGA-C  ScalDFC         ....  0.810000
   Scaling of DF-LDA-C  ScalLDAC        ....  1.000000
   Perturbative correction              ....  0.000000
   Density functional embedding theory  .... OFF
   NL short-range parameter             ....  4.800000
 RI-approximation to the Coulomb term is turned on
   Number of auxiliary basis functions  .... 3278
   RIJ-COSX (HFX calculated with COS-X)).... on


General Settings:
 Integral files         IntName         .... BTSe-4F
 Hartree-Fock type      HFTyp           .... RHF
 Total Charge           Charge          ....    0
 Multiplicity           Mult            ....    1
 Number of Electrons    NEL             ....  476
 Basis Dimension        Dim             .... 2084
 Nuclear Repulsion      ENuc            ....   9127.4261157002 Eh

Convergence Acceleration:
 DIIS                   CNVDIIS         .... on
   Start iteration      DIISMaxIt       ....    12
   Startup error        DIISStart       ....  0.200000
   # of expansion vecs  DIISMaxEq       ....     5
   Bias factor          DIISBfac        ....   1.050
   Max. coefficient     DIISMaxC        ....  10.000
 Newton-Raphson         CNVNR           .... off
 SOSCF                  CNVSOSCF        .... on
   Start iteration      SOSCFMaxIt      ....   150
   Startup grad/error   SOSCFStart      ....  0.003300
 Level Shifting         CNVShift        .... on
   Level shift para.    LevelShift      ....    0.2500
   Turn off err/grad.   ShiftErr        ....    0.0010
 Zerner damping         CNVZerner       .... off
 Static damping         CNVDamp         .... on
   Fraction old density DampFac         ....    0.7000
   Max. Damping (<1)    DampMax         ....    0.9800
   Min. Damping (>=0)   DampMin         ....    0.0000
   Turn off err/grad.   DampErr         ....    0.1000
 Fernandez-Rico         CNVRico         .... off

SCF Procedure:
 Maximum # iterations   MaxIter         ....   125
 SCF integral mode      SCFMode         .... Direct
   Integral package                     .... LIBINT
 Reset frequency        DirectResetFreq ....    20
 Integral Threshold     Thresh          ....  2.500e-11 Eh
 Primitive CutOff       TCut            ....  2.500e-12 Eh

Convergence Tolerance:
 Convergence Check Mode ConvCheckMode   .... Total+1el-Energy
 Convergence forced     ConvForced      .... 1
 Energy Change          TolE            ....  1.000e-08 Eh
 1-El. energy change                    ....  1.000e-05 Eh
 Orbital Gradient       TolG            ....  1.000e-05
 Orbital Rotation angle TolX            ....  1.000e-05
 DIIS Error             TolErr          ....  5.000e-07


Diagonalization of the overlap matrix:
Smallest eigenvalue                        ... 2.202e-06
Time for diagonalization                   ...    1.102 sec
Threshold for overlap eigenvalues          ... 1.000e-08
Number of eigenvalues below threshold      ... 0
Time for construction of square roots      ...    0.839 sec
Total time needed                          ...    1.951 sec

-------------------
DFT GRID GENERATION
-------------------

General Integration Accuracy     IntAcc      ...  4.670
Radial Grid Type                 RadialGrid  ... Gauss-Chebyshev
Angular Grid (max. acc.)         AngularGrid ... Lebedev-302
Angular grid pruning method      GridPruning ... 3 (G Style)
Weight generation scheme         WeightScheme... Becke
Basis function cutoff            BFCut       ...    1.0000e-11
Integration weight cutoff        WCut        ...    1.0000e-14
Grids for H and He will be reduced by one unit

# of grid points (after initial pruning)     ... 451230 (   0.0 sec)
# of grid points (after weights+screening)   ... 391453 (   2.2 sec)
nearest neighbour list constructed           ...    0.0 sec
Grid point re-assignment to atoms done       ...    0.1 sec
Grid point division into batches done        ...    1.5 sec
Reduced shell lists constructed in    3.1 sec

Total number of grid points                  ...   391453
Total number of batches                      ...     6152
Average number of points per batch           ...       63
Average number of grid points per atom       ...     4955
Average number of shells per batch           ...   171.59 (22.34%)
Average number of basis functions per batch  ...   457.76 (21.97%)
Average number of large shells per batch     ...   108.39 (63.16%)
Average number of large basis fcns per batch ...   296.38 (64.75%)
Maximum spatial batch extension              ...  17.74, 20.48, 20.68 au
Average spatial batch extension              ...   0.29,  0.31,  0.35 au

Time for grid setup =    5.646 sec

------------------------------
INITIAL GUESS: MODEL POTENTIAL
------------------------------
Loading Hartree-Fock densities                     ... done
Calculating cut-offs                               ... done
Setting up the integral package                    ... done
Initializing the effective Hamiltonian             ... done
Starting the Coulomb interaction                   ... done (   2.7 sec)
Reading the grid                                   ... done
Mapping shells                                     ... done
Starting the XC term evaluation                    ... done (   3.4 sec)
  promolecular density results
     # of electrons  =    475.991720885
     EX              =   -505.715666463
     EC              =    -17.430951181
     EX+EC           =   -523.146617644
Transforming the Hamiltonian                       ... done (   0.4 sec)
Diagonalizing the Hamiltonian                      ... done (   0.8 sec)
Back transforming the eigenvectors                 ... done (   0.3 sec)
Now organizing SCF variables                       ... done
                      ------------------
                      INITIAL GUESS DONE (  13.5 sec)
                      ------------------
--------------------
COSX GRID GENERATION
--------------------

General Integration Accuracy     IntAcc      ...  3.340
Radial Grid Type                 RadialGrid  ... Gauss-Chebyshev
Angular Grid (max. acc.)         AngularGrid ... Lebedev-50
Angular grid pruning method      GridPruning ... 3 (G Style)
Weight generation scheme         WeightScheme... Becke
Basis function cutoff            BFCut       ...    1.0000e-11
Integration weight cutoff        WCut        ...    1.0000e-14
Grids for H and He will be reduced by one unit

# of grid points (after initial pruning)     ...  42388 (   0.0 sec)
# of grid points (after weights+screening)   ...  38392 (   0.2 sec)
nearest neighbour list constructed           ...    0.0 sec
Grid point re-assignment to atoms done       ...    0.0 sec
Grid point division into batches done        ...    0.0 sec
Reduced shell lists constructed in    0.2 sec

Total number of grid points                  ...    38392
Total number of batches                      ...      641
Average number of points per batch           ...       59
Average number of grid points per atom       ...      486
Average number of shells per batch           ...   205.16 (26.71%)
Average number of basis functions per batch  ...   551.84 (26.48%)
Average number of large shells per batch     ...   129.75 (63.24%)
Average number of large basis fcns per batch ...   359.60 (65.16%)
Maximum spatial batch extension              ...  16.13, 17.81, 30.15 au
Average spatial batch extension              ...   0.55,  0.58,  0.91 au

Overlap Fitting                  UseSFitting ... on
Constructing numerical overlap ... done (      0.4 sec)
Inverting numerical overlap    ... done (      0.3 sec)
Obtaining analytic overlap     ... done (      0.0 sec)
Final contraction and storage  ... done (      0.4 sec)


General Integration Accuracy     IntAcc      ...  3.670
Radial Grid Type                 RadialGrid  ... Gauss-Chebyshev
Angular Grid (max. acc.)         AngularGrid ... Lebedev-50
Angular grid pruning method      GridPruning ... 3 (G Style)
Weight generation scheme         WeightScheme... Becke
Basis function cutoff            BFCut       ...    1.0000e-11
Integration weight cutoff        WCut        ...    1.0000e-14
Grids for H and He will be reduced by one unit

# of grid points (after initial pruning)     ...  52518 (   0.0 sec)
# of grid points (after weights+screening)   ...  47366 (   0.3 sec)
nearest neighbour list constructed           ...    0.0 sec
Grid point re-assignment to atoms done       ...    0.0 sec
Grid point division into batches done        ...    0.0 sec
Reduced shell lists constructed in    0.3 sec

Total number of grid points                  ...    47366
Total number of batches                      ...      781
Average number of points per batch           ...       60
Average number of grid points per atom       ...      600
Average number of shells per batch           ...   201.64 (26.25%)
Average number of basis functions per batch  ...   541.67 (25.99%)
Average number of large shells per batch     ...   127.49 (63.23%)
Average number of large basis fcns per batch ...   352.70 (65.11%)
Maximum spatial batch extension              ...  16.46, 19.08, 25.63 au
Average spatial batch extension              ...   0.50,  0.55,  0.86 au

Overlap Fitting                  UseSFitting ... on
Constructing numerical overlap ... done (      0.5 sec)
Inverting numerical overlap    ... done (      0.3 sec)
Obtaining analytic overlap     ... done (      0.0 sec)
Final contraction and storage  ... done (      0.4 sec)


General Integration Accuracy     IntAcc      ...  4.010
Radial Grid Type                 RadialGrid  ... Gauss-Chebyshev
Angular Grid (max. acc.)         AngularGrid ... Lebedev-110
Angular grid pruning method      GridPruning ... 3 (G Style)
Weight generation scheme         WeightScheme... Becke
Basis function cutoff            BFCut       ...    1.0000e-11
Integration weight cutoff        WCut        ...    1.0000e-14
Grids for H and He will be reduced by one unit

# of grid points (after initial pruning)     ... 104634 (   0.0 sec)
# of grid points (after weights+screening)   ...  93373 (   0.7 sec)
nearest neighbour list constructed           ...    0.0 sec
Grid point re-assignment to atoms done       ...    0.0 sec
Grid point division into batches done        ...    0.1 sec
Reduced shell lists constructed in    0.5 sec

Total number of grid points                  ...    93373
Total number of batches                      ...     1503
Average number of points per batch           ...       62
Average number of grid points per atom       ...     1182
Average number of shells per batch           ...   190.31 (24.78%)
Average number of basis functions per batch  ...   510.63 (24.50%)
Average number of large shells per batch     ...   120.83 (63.49%)
Average number of large basis fcns per batch ...   333.33 (65.28%)
Maximum spatial batch extension              ...  19.31, 20.58, 22.73 au
Average spatial batch extension              ...   0.43,  0.48,  0.64 au

Overlap Fitting                  UseSFitting ... on
Constructing numerical overlap ... done (      0.8 sec)
Inverting numerical overlap    ... done (      0.2 sec)
Obtaining analytic overlap     ... done (      0.0 sec)
Final contraction and storage  ... done (      0.4 sec)

Time for X-Grid setup             =    6.614 sec
--------------
SCF ITERATIONS
--------------
ITER       Energy         Delta-E        Max-DP      RMS-DP      [F,P]     Damp
               ***  Starting incremental Fock matrix formation  ***
  0  -6305.7329113365   0.000000000000 0.14349474  0.00082380  0.3231354 0.7000
  1  -6306.5272480611  -0.794336724539 0.12714500  0.00064549  0.1029572 0.7000
                               ***Turning on DIIS***
  2  -6306.7431585337  -0.215910472625 0.26035692  0.00110275  0.0611370 0.0000
  3  -6307.2089309479  -0.465772414269 0.11080323  0.00052764  0.0550414 0.0000
  4  -6307.2775769727  -0.068646024720 0.04883416  0.00017345  0.0481185 0.0000
  5  -6307.2962576448  -0.018680672087 0.02801673  0.00009203  0.0084474 0.0000
  6  -6307.2973104367  -0.001052791988 0.00862657  0.00003082  0.0044542 0.0000
                      *** Initiating the SOSCF procedure ***
                           *** Shutting down DIIS ***
                      *** Re-Reading the Fockian *** 
                      *** Removing any level shift *** 
ITER      Energy       Delta-E        Grad      Rot      Max-DP    RMS-DP
  7  -6307.29746267  -0.0001522381  0.000573  0.000573  0.002893  0.000017
               *** Restarting incremental Fock matrix formation ***
  8  -6307.29751268  -0.0000500046  0.000214  0.001248  0.016415  0.000069
  9  -6307.29747779   0.0000348881  0.000653  0.000869  0.001504  0.000008
 10  -6307.29752128  -0.0000434898  0.000236  0.001804  0.002563  0.000012
 11  -6307.29751198   0.0000093008  0.000617  0.000778  0.000958  0.000005
 12  -6307.29752295  -0.0000109736  0.000089  0.000844  0.000891  0.000005
 13  -6307.29752153   0.0000014190  0.000145  0.000559  0.000465  0.000003
 14  -6307.29752333  -0.0000017987  0.000026  0.000174  0.000335  0.000002
 15  -6307.29752318   0.0000001524  0.000054  0.000103  0.000232  0.000001
 16  -6307.29752337  -0.0000001849  0.000010  0.000042  0.000340  0.000001
 17  -6307.29752341  -0.0000000468  0.000017  0.000038  0.000188  0.000001
 18  -6307.29752341   0.0000000023  0.000005  0.000022  0.000709  0.000002
 19  -6307.29752333   0.0000000831  0.000012  0.000014  0.000136  0.000000
 20  -6307.29752336  -0.0000000352  0.000003  0.000008  0.000275  0.000001
 21  -6307.29752346  -0.0000001010  0.000007  0.000006  0.000207  0.000001
                  ***Gradient check signals convergence***
              ***Rediagonalizing the Fockian in SOSCF/NRSCF***

               *****************************************************
               *                     SUCCESS                       *
               *           SCF CONVERGED AFTER  22 CYCLES          *
               *****************************************************

Setting up the final grid:

General Integration Accuracy     IntAcc      ...  5.010
Radial Grid Type                 RadialGrid  ... Gauss-Chebyshev
Angular Grid (max. acc.)         AngularGrid ... Lebedev-434
Angular grid pruning method      GridPruning ... 3 (G Style)
Weight generation scheme         WeightScheme... Becke
Basis function cutoff            BFCut       ...    1.0000e-11
Integration weight cutoff        WCut        ...    1.0000e-14
Grids for H and He will be reduced by one unit

# of grid points (after initial pruning)     ... 789232 (   0.0 sec)
# of grid points (after weights+screening)   ... 681984 (   3.8 sec)
nearest neighbour list constructed           ...    0.0 sec
Grid point re-assignment to atoms done       ...    0.1 sec
Grid point division into batches done        ...    4.6 sec
Reduced shell lists constructed in    7.3 sec

Total number of grid points                  ...   681984
Total number of batches                      ...    10691
Average number of points per batch           ...       63
Average number of grid points per atom       ...     8633
Average number of shells per batch           ...   166.95 (21.74%)
Average number of basis functions per batch  ...   444.25 (21.32%)
Average number of large shells per batch     ...   105.28 (63.06%)
Average number of large basis fcns per batch ...   287.40 (64.69%)
Maximum spatial batch extension              ...  17.97, 18.54, 23.53 au
Average spatial batch extension              ...   0.24,  0.25,  0.28 au

Final grid set up in   13.0 sec
Final integration                            ... done (   8.4 sec)
Change in XC energy                          ...    -0.000112060
Integrated number of electrons               ...   475.999948679
Previous integrated no of electrons          ...   475.999862826
Old exchange energy                            =   -101.626575946 Eh
New exchange energy                            =   -101.627325658 Eh
Exchange energy change after final integration =     -0.000749711 Eh
Total energy after final integration           =  -6307.298385149 Eh
Final COS-X integration done in                =   193.010 sec

----------------
TOTAL SCF ENERGY
----------------

Total Energy       :        -6307.29838515 Eh         -171630.31458 eV

Components:
Nuclear Repulsion  :         9127.42611570 Eh          248369.89149 eV
Electronic Energy  :       -15434.72450085 Eh         -420000.20607 eV
One Electron Energy:       -26870.84583216 Eh         -731192.88822 eV
Two Electron Energy:        11436.12133131 Eh          311192.68216 eV

Virial components:
Potential Energy   :       -12594.50349134 Eh         -342713.86324 eV
Kinetic Energy     :         6287.20510619 Eh          171083.54866 eV
Virial Ratio       :            2.00319590


DFT components:
N(Alpha)           :      237.999974339719 electrons
N(Beta)            :      237.999974339719 electrons
N(Total)           :      475.999948679437 electrons
E(X)               :     -404.519486241263 Eh       
E(C)               :      -20.438310395449 Eh       
E(XC)              :     -424.957796636712 Eh       
DFET-embed. en.    :        0.000000000000 Eh       

---------------
SCF CONVERGENCE
---------------

  Last Energy change         ...    8.5747e-08  Tolerance :   1.0000e-08
  Last MAX-Density change    ...    7.9936e-15  Tolerance :   1.0000e-07
  Last RMS-Density change    ...    1.3909e-17  Tolerance :   5.0000e-09
  Last Orbital Gradient      ...    5.5491e-07  Tolerance :   1.0000e-05
  Last Orbital Rotation      ...    2.7252e-06  Tolerance :   1.0000e-05

             **** THE GBW FILE WAS UPDATED (BTSe-4F.gbw) ****
             **** DENSITY FILE WAS UPDATED (BTSe-4F.scfp) ****
             **** ENERGY FILE WAS UPDATED (BTSe-4F.en.tmp) ****
             **** THE GBW FILE WAS UPDATED (BTSe-4F.gbw) ****
             **** DENSITY FILE WAS UPDATED (BTSe-4F.scfp) ****
----------------
ORBITAL ENERGIES
----------------

  NO   OCC          E(Eh)            E(eV) 
   0   2.0000    -453.923660    -12351.8908 
   1   2.0000     -88.943236     -2420.2685 
   2   2.0000     -88.911478     -2419.4043 
   3   2.0000     -88.898667     -2419.0557 
   4   2.0000     -58.106530     -1581.1591 
   5   2.0000     -52.158830     -1419.3139 
   6   2.0000     -52.157939     -1419.2897 
   7   2.0000     -52.157362     -1419.2740 
   8   2.0000     -24.739342      -673.1917 
   9   2.0000     -24.738767      -673.1761 
  10   2.0000     -24.725757      -672.8221 
  11   2.0000     -24.725242      -672.8080 
  12   2.0000     -19.154196      -521.2122 
  13   2.0000     -19.137189      -520.7494 
  14   2.0000     -14.412508      -392.1843 
  15   2.0000     -14.406608      -392.0237 
  16   2.0000     -14.373919      -391.1342 
  17   2.0000     -14.373423      -391.1207 
  18   2.0000     -14.369412      -391.0116 
  19   2.0000     -14.365669      -390.9097 
  20   2.0000     -14.365346      -390.9009 
  21   2.0000     -14.364542      -390.8791 
  22   2.0000     -10.324110      -280.9333 
  23   2.0000     -10.323621      -280.9200 
  24   2.0000     -10.309776      -280.5433 
  25   2.0000     -10.308149      -280.4990 
  26   2.0000     -10.306366      -280.4505 
  27   2.0000     -10.305834      -280.4360 
  28   2.0000     -10.299145      -280.2540 
  29   2.0000     -10.293543      -280.1016 
  30   2.0000     -10.288325      -279.9595 
  31   2.0000     -10.282442      -279.7995 
  32   2.0000     -10.278128      -279.6821 
  33   2.0000     -10.276455      -279.6365 
  34   2.0000     -10.274018      -279.5702 
  35   2.0000     -10.271527      -279.5024 
  36   2.0000     -10.269767      -279.4546 
  37   2.0000     -10.268296      -279.4145 
  38   2.0000     -10.268180      -279.4114 
  39   2.0000     -10.268002      -279.4065 
  40   2.0000     -10.259107      -279.1645 
  41   2.0000     -10.258974      -279.1609 
  42   2.0000     -10.253108      -279.0012 
  43   2.0000     -10.252246      -278.9778 
  44   2.0000     -10.249764      -278.9103 
  45   2.0000     -10.248238      -278.8687 
  46   2.0000     -10.246295      -278.8159 
  47   2.0000     -10.244786      -278.7748 
  48   2.0000     -10.243785      -278.7476 
  49   2.0000     -10.243461      -278.7387 
  50   2.0000     -10.242327      -278.7079 
  51   2.0000     -10.240878      -278.6685 
  52   2.0000     -10.238238      -278.5966 
  53   2.0000     -10.237364      -278.5728 
  54   2.0000     -10.235933      -278.5339 
  55   2.0000     -10.231400      -278.4106 
  56   2.0000     -10.229241      -278.3518 
  57   2.0000     -10.226448      -278.2758 
  58   2.0000     -10.225879      -278.2603 
  59   2.0000     -10.223837      -278.2047 
  60   2.0000     -10.221843      -278.1505 
  61   2.0000     -10.217529      -278.0331 
  62   2.0000     -10.214311      -277.9455 
  63   2.0000     -10.207856      -277.7699 
  64   2.0000     -10.203161      -277.6421 
  65   2.0000     -10.202311      -277.6190 
  66   2.0000     -10.202249      -277.6173 
  67   2.0000      -8.013800      -218.0666 
  68   2.0000      -7.987111      -217.3403 
  69   2.0000      -7.976148      -217.0420 
  70   2.0000      -7.845645      -213.4909 
  71   2.0000      -5.977973      -162.6689 
  72   2.0000      -5.971529      -162.4936 
  73   2.0000      -5.970660      -162.4699 
  74   2.0000      -5.949718      -161.9001 
  75   2.0000      -5.946037      -161.7999 
  76   2.0000      -5.943463      -161.7299 
  77   2.0000      -5.938914      -161.6061 
  78   2.0000      -5.934992      -161.4993 
  79   2.0000      -5.932089      -161.4203 
  80   2.0000      -5.789601      -157.5431 
  81   2.0000      -5.785773      -157.4389 
  82   2.0000      -5.782286      -157.3440 
  83   2.0000      -2.143174       -58.3187 
  84   2.0000      -2.142544       -58.3016 
  85   2.0000      -2.138792       -58.1995 
  86   2.0000      -2.135648       -58.1139 
  87   2.0000      -2.135551       -58.1113 
  88   2.0000      -1.274118       -34.6705 
  89   2.0000      -1.262183       -34.3457 
  90   2.0000      -1.260907       -34.3110 
  91   2.0000      -1.248631       -33.9770 
  92   2.0000      -1.079885       -29.3852 
  93   2.0000      -1.072797       -29.1923 
  94   2.0000      -1.037543       -28.2330 
  95   2.0000      -1.027881       -27.9701 
  96   2.0000      -1.019240       -27.7349 
  97   2.0000      -0.955510       -26.0007 
  98   2.0000      -0.938886       -25.5484 
  99   2.0000      -0.929491       -25.2927 
 100   2.0000      -0.909931       -24.7605 
 101   2.0000      -0.904879       -24.6230 
 102   2.0000      -0.902890       -24.5689 
 103   2.0000      -0.895815       -24.3764 
 104   2.0000      -0.893678       -24.3182 
 105   2.0000      -0.891799       -24.2671 
 106   2.0000      -0.887915       -24.1614 
 107   2.0000      -0.883334       -24.0367 
 108   2.0000      -0.871250       -23.7079 
 109   2.0000      -0.868293       -23.6275 
 110   2.0000      -0.838885       -22.8272 
 111   2.0000      -0.832568       -22.6553 
 112   2.0000      -0.820659       -22.3313 
 113   2.0000      -0.817042       -22.2329 
 114   2.0000      -0.808545       -22.0016 
 115   2.0000      -0.807811       -21.9817 
 116   2.0000      -0.801064       -21.7981 
 117   2.0000      -0.794143       -21.6097 
 118   2.0000      -0.793172       -21.5833 
 119   2.0000      -0.770193       -20.9580 
 120   2.0000      -0.758745       -20.6465 
 121   2.0000      -0.754692       -20.5362 
 122   2.0000      -0.741050       -20.1650 
 123   2.0000      -0.730184       -19.8693 
 124   2.0000      -0.719156       -19.5692 
 125   2.0000      -0.714042       -19.4301 
 126   2.0000      -0.708710       -19.2850 
 127   2.0000      -0.705319       -19.1927 
 128   2.0000      -0.692392       -18.8410 
 129   2.0000      -0.691044       -18.8043 
 130   2.0000      -0.673441       -18.3253 
 131   2.0000      -0.658727       -17.9249 
 132   2.0000      -0.652022       -17.7424 
 133   2.0000      -0.646598       -17.5948 
 134   2.0000      -0.639543       -17.4029 
 135   2.0000      -0.632870       -17.2213 
 136   2.0000      -0.629014       -17.1164 
 137   2.0000      -0.622477       -16.9385 
 138   2.0000      -0.613096       -16.6832 
 139   2.0000      -0.603618       -16.4253 
 140   2.0000      -0.596457       -16.2304 
 141   2.0000      -0.592708       -16.1284 
 142   2.0000      -0.588850       -16.0234 
 143   2.0000      -0.584859       -15.9148 
 144   2.0000      -0.583133       -15.8679 
 145   2.0000      -0.574949       -15.6452 
 146   2.0000      -0.571376       -15.5479 
 147   2.0000      -0.561107       -15.2685 
 148   2.0000      -0.557238       -15.1632 
 149   2.0000      -0.551872       -15.0172 
 150   2.0000      -0.547960       -14.9107 
 151   2.0000      -0.542768       -14.7695 
 152   2.0000      -0.537496       -14.6260 
 153   2.0000      -0.529079       -14.3970 
 154   2.0000      -0.528492       -14.3810 
 155   2.0000      -0.527749       -14.3608 
 156   2.0000      -0.521152       -14.1813 
 157   2.0000      -0.518973       -14.1220 
 158   2.0000      -0.517431       -14.0800 
 159   2.0000      -0.515585       -14.0298 
 160   2.0000      -0.512378       -13.9425 
 161   2.0000      -0.507410       -13.8073 
 162   2.0000      -0.505106       -13.7446 
 163   2.0000      -0.497979       -13.5507 
 164   2.0000      -0.494795       -13.4641 
 165   2.0000      -0.493308       -13.4236 
 166   2.0000      -0.485605       -13.2140 
 167   2.0000      -0.481805       -13.1106 
 168   2.0000      -0.481446       -13.1008 
 169   2.0000      -0.479958       -13.0603 
 170   2.0000      -0.477046       -12.9811 
 171   2.0000      -0.473567       -12.8864 
 172   2.0000      -0.469960       -12.7883 
 173   2.0000      -0.468642       -12.7524 
 174   2.0000      -0.464336       -12.6352 
 175   2.0000      -0.462803       -12.5935 
 176   2.0000      -0.460294       -12.5252 
 177   2.0000      -0.458292       -12.4707 
 178   2.0000      -0.453454       -12.3391 
 179   2.0000      -0.449760       -12.2386 
 180   2.0000      -0.447487       -12.1767 
 181   2.0000      -0.446169       -12.1409 
 182   2.0000      -0.442055       -12.0289 
 183   2.0000      -0.440482       -11.9861 
 184   2.0000      -0.438447       -11.9307 
 185   2.0000      -0.436721       -11.8838 
 186   2.0000      -0.432534       -11.7698 
 187   2.0000      -0.430588       -11.7169 
 188   2.0000      -0.428243       -11.6531 
 189   2.0000      -0.421852       -11.4792 
 190   2.0000      -0.421091       -11.4585 
 191   2.0000      -0.418226       -11.3805 
 192   2.0000      -0.415757       -11.3133 
 193   2.0000      -0.412417       -11.2224 
 194   2.0000      -0.411473       -11.1968 
 195   2.0000      -0.407780       -11.0963 
 196   2.0000      -0.403687       -10.9849 
 197   2.0000      -0.403588       -10.9822 
 198   2.0000      -0.402638       -10.9563 
 199   2.0000      -0.401014       -10.9121 
 200   2.0000      -0.399603       -10.8737 
 201   2.0000      -0.397066       -10.8047 
 202   2.0000      -0.395124       -10.7519 
 203   2.0000      -0.389886       -10.6093 
 204   2.0000      -0.385851       -10.4995 
 205   2.0000      -0.378816       -10.3081 
 206   2.0000      -0.373919       -10.1748 
 207   2.0000      -0.373104       -10.1527 
 208   2.0000      -0.357212        -9.7202 
 209   2.0000      -0.354836        -9.6556 
 210   2.0000      -0.352949        -9.6042 
 211   2.0000      -0.351251        -9.5580 
 212   2.0000      -0.349416        -9.5081 
 213   2.0000      -0.348493        -9.4830 
 214   2.0000      -0.348046        -9.4708 
 215   2.0000      -0.347343        -9.4517 
 216   2.0000      -0.343361        -9.3433 
 217   2.0000      -0.342485        -9.3195 
 218   2.0000      -0.341068        -9.2809 
 219   2.0000      -0.340234        -9.2582 
 220   2.0000      -0.337896        -9.1946 
 221   2.0000      -0.334164        -9.0931 
 222   2.0000      -0.323772        -8.8103 
 223   2.0000      -0.310822        -8.4579 
 224   2.0000      -0.309234        -8.4147 
 225   2.0000      -0.307088        -8.3563 
 226   2.0000      -0.297478        -8.0948 
 227   2.0000      -0.293982        -7.9997 
 228   2.0000      -0.289749        -7.8845 
 229   2.0000      -0.284729        -7.7479 
 230   2.0000      -0.282817        -7.6958 
 231   2.0000      -0.281362        -7.6562 
 232   2.0000      -0.274285        -7.4637 
 233   2.0000      -0.264709        -7.2031 
 234   2.0000      -0.253662        -6.9025 
 235   2.0000      -0.238394        -6.4870 
 236   2.0000      -0.227611        -6.1936 
 237   2.0000      -0.214971        -5.8497 
 238   0.0000      -0.141391        -3.8475 
 239   0.0000      -0.135883        -3.6976 
 240   0.0000      -0.127530        -3.4703 
 241   0.0000      -0.113678        -3.0933 
 242   0.0000      -0.094874        -2.5816 
 243   0.0000      -0.072096        -1.9618 
 244   0.0000      -0.067967        -1.8495 
 245   0.0000      -0.058957        -1.6043 
 246   0.0000      -0.058535        -1.5928 
 247   0.0000      -0.055874        -1.5204 
 248   0.0000      -0.047207        -1.2846 
 249   0.0000      -0.031131        -0.8471 
 250   0.0000      -0.027752        -0.7552 
 251   0.0000      -0.023466        -0.6385 
 252   0.0000      -0.021503        -0.5851 
 253   0.0000      -0.017484        -0.4758 
 254   0.0000      -0.013473        -0.3666 
 255   0.0000      -0.009318        -0.2535 
 256   0.0000      -0.008786        -0.2391 
 257   0.0000      -0.004179        -0.1137 
 258   0.0000      -0.000065        -0.0018 
 259   0.0000       0.000976         0.0266 
 260   0.0000       0.003360         0.0914 
 261   0.0000       0.008638         0.2351 
 262   0.0000       0.009534         0.2594 
 263   0.0000       0.016922         0.4605 
 264   0.0000       0.019423         0.5285 
 265   0.0000       0.020224         0.5503 
 266   0.0000       0.022143         0.6025 
 267   0.0000       0.022761         0.6194 
 268   0.0000       0.024805         0.6750 
 269   0.0000       0.026738         0.7276 
 270   0.0000       0.032654         0.8886 
 271   0.0000       0.035215         0.9583 
 272   0.0000       0.036817         1.0018 
 273   0.0000       0.040629         1.1056 
 274   0.0000       0.047494         1.2924 
 275   0.0000       0.048427         1.3178 
 276   0.0000       0.050377         1.3708 
 277   0.0000       0.053227         1.4484 
 278   0.0000       0.058786         1.5997 
 279   0.0000       0.060770         1.6536 
 280   0.0000       0.063211         1.7200 
 281   0.0000       0.066813         1.8181 
 282   0.0000       0.066869         1.8196 
 283   0.0000       0.069604         1.8940 
 284   0.0000       0.069948         1.9034 
 285   0.0000       0.073695         2.0054 
 286   0.0000       0.075801         2.0627 
 287   0.0000       0.077936         2.1207 
 288   0.0000       0.079319         2.1584 
 289   0.0000       0.083320         2.2672 
 290   0.0000       0.084373         2.2959 
 291   0.0000       0.086921         2.3652 
 292   0.0000       0.088816         2.4168 
 293   0.0000       0.093615         2.5474 
 294   0.0000       0.097742         2.6597 
 295   0.0000       0.097864         2.6630 
 296   0.0000       0.098630         2.6839 
 297   0.0000       0.100911         2.7459 
 298   0.0000       0.103108         2.8057 
 299   0.0000       0.105737         2.8772 
 300   0.0000       0.107574         2.9272 
 301   0.0000       0.112687         3.0664 
 302   0.0000       0.115010         3.1296 
 303   0.0000       0.118057         3.2125 
 304   0.0000       0.118610         3.2275 
 305   0.0000       0.124734         3.3942 
 306   0.0000       0.129341         3.5196 
 307   0.0000       0.130527         3.5518 
 308   0.0000       0.131598         3.5810 
 309   0.0000       0.132917         3.6168 
 310   0.0000       0.135984         3.7003 
 311   0.0000       0.139236         3.7888 
 312   0.0000       0.139939         3.8079 
 313   0.0000       0.140959         3.8357 
 314   0.0000       0.141821         3.8591 
 315   0.0000       0.145643         3.9631 
 316   0.0000       0.149309         4.0629 
 317   0.0000       0.151679         4.1274 
 318   0.0000       0.153067         4.1652 
 319   0.0000       0.153622         4.1803 
 320   0.0000       0.156502         4.2586 
 321   0.0000       0.158079         4.3015 
 322   0.0000       0.163161         4.4398 
 323   0.0000       0.167068         4.5461 
 324   0.0000       0.169766         4.6196 
 325   0.0000       0.170675         4.6443 
 326   0.0000       0.173171         4.7122 
 327   0.0000       0.173586         4.7235 
 328   0.0000       0.176052         4.7906 
 329   0.0000       0.178307         4.8520 
 330   0.0000       0.180362         4.9079 
 331   0.0000       0.181232         4.9316 
 332   0.0000       0.185817         5.0563 
 333   0.0000       0.187717         5.1080 
 334   0.0000       0.187761         5.1092 
 335   0.0000       0.189574         5.1586 
 336   0.0000       0.190394         5.1809 
 337   0.0000       0.191412         5.2086 
 338   0.0000       0.196758         5.3541 
 339   0.0000       0.197175         5.3654 
 340   0.0000       0.199334         5.4242 
 341   0.0000       0.201368         5.4795 
 342   0.0000       0.204537         5.5657 
 343   0.0000       0.205067         5.5802 
 344   0.0000       0.207232         5.6391 
 345   0.0000       0.209606         5.7037 
 346   0.0000       0.212811         5.7909 
 347   0.0000       0.215563         5.8658 
 348   0.0000       0.217410         5.9160 
 349   0.0000       0.218643         5.9496 
 350   0.0000       0.221445         6.0258 
 351   0.0000       0.221671         6.0320 
 352   0.0000       0.225338         6.1318 
 353   0.0000       0.226687         6.1685 
 354   0.0000       0.227629         6.1941 
 355   0.0000       0.229134         6.2351 
 356   0.0000       0.230035         6.2596 
 357   0.0000       0.233702         6.3594 
 358   0.0000       0.235718         6.4142 
 359   0.0000       0.238237         6.4828 
 360   0.0000       0.242177         6.5900 
 361   0.0000       0.243337         6.6215 
 362   0.0000       0.245808         6.6888 
 363   0.0000       0.246834         6.7167 
 364   0.0000       0.248148         6.7525 
 365   0.0000       0.249615         6.7924 
 366   0.0000       0.252236         6.8637 
 367   0.0000       0.253311         6.8929 
 368   0.0000       0.253931         6.9098 
 369   0.0000       0.255148         6.9429 
 370   0.0000       0.257066         6.9951 
 371   0.0000       0.258978         7.0472 
 372   0.0000       0.260955         7.1009 
 373   0.0000       0.261707         7.1214 
 374   0.0000       0.266039         7.2393 
 375   0.0000       0.266473         7.2511 
 376   0.0000       0.267030         7.2662 
 377   0.0000       0.269767         7.3407 
 378   0.0000       0.271939         7.3998 
 379   0.0000       0.273215         7.4346 
 380   0.0000       0.273229         7.4349 
 381   0.0000       0.275229         7.4894 
 382   0.0000       0.276878         7.5342 
 383   0.0000       0.278399         7.5756 
 384   0.0000       0.280646         7.6368 
 385   0.0000       0.280897         7.6436 
 386   0.0000       0.283080         7.7030 
 387   0.0000       0.284381         7.7384 
 388   0.0000       0.285440         7.7672 
 389   0.0000       0.290236         7.8977 
 390   0.0000       0.290803         7.9132 
 391   0.0000       0.294985         8.0269 
 392   0.0000       0.296327         8.0635 
 393   0.0000       0.297276         8.0893 
 394   0.0000       0.298331         8.1180 
 395   0.0000       0.299665         8.1543 
 396   0.0000       0.302389         8.2284 
 397   0.0000       0.303790         8.2665 
 398   0.0000       0.304968         8.2986 
 399   0.0000       0.305819         8.3218 
 400   0.0000       0.307658         8.3718 
 401   0.0000       0.312041         8.4911 
 402   0.0000       0.312763         8.5107 
 403   0.0000       0.317975         8.6525 
 404   0.0000       0.319032         8.6813 
 405   0.0000       0.320668         8.7258 
 406   0.0000       0.321907         8.7595 
 407   0.0000       0.324420         8.8279 
 408   0.0000       0.325305         8.8520 
 409   0.0000       0.328277         8.9329 
 410   0.0000       0.329859         8.9759 
 411   0.0000       0.330391         8.9904 
 412   0.0000       0.332796         9.0558 
 413   0.0000       0.334669         9.1068 
 414   0.0000       0.336283         9.1507 
 415   0.0000       0.338135         9.2011 
 416   0.0000       0.339347         9.2341 
 417   0.0000       0.339816         9.2469 
 418   0.0000       0.342728         9.3261 
 419   0.0000       0.346148         9.4192 
 420   0.0000       0.346699         9.4342 
 421   0.0000       0.348745         9.4898 
 422   0.0000       0.350413         9.5352 
 423   0.0000       0.353112         9.6087 
 424   0.0000       0.354296         9.6409 
 425   0.0000       0.356402         9.6982 
 426   0.0000       0.359712         9.7883 
 427   0.0000       0.361518         9.8374 
 428   0.0000       0.362509         9.8644 
 429   0.0000       0.363721         9.8974 
 430   0.0000       0.366631         9.9765 
 431   0.0000       0.366828         9.9819 
 432   0.0000       0.370186        10.0733 
 433   0.0000       0.370265        10.0754 
 434   0.0000       0.373660        10.1678 
 435   0.0000       0.374011        10.1773 
 436   0.0000       0.374989        10.2040 
 437   0.0000       0.376862        10.2549 
 438   0.0000       0.379157        10.3174 
 439   0.0000       0.381723        10.3872 
 440   0.0000       0.383203        10.4275 
 441   0.0000       0.385958        10.5024 
 442   0.0000       0.390676        10.6308 
[...]
   228a -> 240a  :     0.011690 (c=  0.10812072)
   229a -> 239a  :     0.106067 (c=  0.32567911)
   229a -> 240a  :     0.022620 (c= -0.15040048)
   231a -> 238a  :     0.036122 (c= -0.19005901)
   231a -> 239a  :     0.020947 (c= -0.14472988)
   232a -> 240a  :     0.024901 (c=  0.15779912)
   233a -> 241a  :     0.028390 (c=  0.16849440)
   234a -> 242a  :     0.039853 (c= -0.19963191)
   236a -> 243a  :     0.159036 (c= -0.39879331)
   237a -> 243a  :     0.010391 (c=  0.10193546)
   237a -> 244a  :     0.018279 (c= -0.13520020)
   237a -> 246a  :     0.023924 (c=  0.15467431)

STATE 45:  E=   0.145008 au      3.946 eV    31825.7 cm**-1
   232a -> 247a  :     0.010970 (c= -0.10473860)
   234a -> 242a  :     0.029877 (c=  0.17284821)
   234a -> 247a  :     0.026422 (c= -0.16254695)
   237a -> 245a  :     0.015386 (c= -0.12403834)
   237a -> 246a  :     0.023352 (c=  0.15281225)
   237a -> 247a  :     0.847712 (c=  0.92071292)

STATE 46:  E=   0.145462 au      3.958 eV    31925.1 cm**-1
   223a -> 238a  :     0.033811 (c= -0.18387703)
   223a -> 240a  :     0.012063 (c= -0.10982963)
   225a -> 238a  :     0.104667 (c= -0.32352278)
   225a -> 240a  :     0.012194 (c= -0.11042607)
   226a -> 238a  :     0.011238 (c=  0.10600773)
   226a -> 240a  :     0.028091 (c=  0.16760246)
   227a -> 238a  :     0.014432 (c= -0.12013238)
   228a -> 238a  :     0.016527 (c=  0.12855662)
   228a -> 240a  :     0.166976 (c=  0.40862657)
   229a -> 240a  :     0.309779 (c= -0.55657774)
   230a -> 240a  :     0.048786 (c= -0.22087500)
   231a -> 240a  :     0.052138 (c= -0.22833769)
   232a -> 240a  :     0.031718 (c=  0.17809423)
   233a -> 240a  :     0.012519 (c= -0.11189002)
   234a -> 242a  :     0.025790 (c= -0.16059144)
   236a -> 244a  :     0.017168 (c=  0.13102501)
   237a -> 245a  :     0.012888 (c=  0.11352693)
   237a -> 247a  :     0.019993 (c=  0.14139719)

STATE 47:  E=   0.145632 au      3.963 eV    31962.5 cm**-1
   234a -> 242a  :     0.018121 (c= -0.13461244)
   237a -> 245a  :     0.729876 (c=  0.85432781)
   237a -> 246a  :     0.168714 (c=  0.41074807)

STATE 48:  E=   0.145942 au      3.971 eV    32030.5 cm**-1
   224a -> 239a  :     0.010734 (c=  0.10360589)
   228a -> 240a  :     0.021020 (c= -0.14498308)
   229a -> 239a  :     0.012841 (c= -0.11331675)
   229a -> 240a  :     0.020509 (c= -0.14320977)
   230a -> 240a  :     0.231597 (c=  0.48124482)
   231a -> 240a  :     0.013133 (c=  0.11460141)
   232a -> 240a  :     0.039179 (c=  0.19793678)
   234a -> 242a  :     0.073861 (c= -0.27177429)
   235a -> 243a  :     0.023213 (c=  0.15235749)
   235a -> 244a  :     0.015068 (c=  0.12275240)
   236a -> 243a  :     0.031867 (c= -0.17851259)
   236a -> 244a  :     0.183884 (c= -0.42881699)
   237a -> 246a  :     0.194962 (c= -0.44154545)
   237a -> 247a  :     0.031915 (c=  0.17864872)

STATE 49:  E=   0.146330 au      3.982 eV    32115.8 cm**-1
   218a -> 240a  :     0.011140 (c=  0.10554779)
   223a -> 238a  :     0.195912 (c=  0.44261951)
   224a -> 238a  :     0.122420 (c=  0.34988522)
   225a -> 238a  :     0.197666 (c= -0.44459638)
   225a -> 240a  :     0.013024 (c=  0.11412394)
   226a -> 240a  :     0.030673 (c=  0.17513653)
   228a -> 240a  :     0.010354 (c= -0.10175630)
   230a -> 240a  :     0.088884 (c=  0.29813368)
   231a -> 238a  :     0.081107 (c= -0.28479374)
   231a -> 240a  :     0.091639 (c= -0.30271990)
   234a -> 242a  :     0.011613 (c=  0.10776350)
   237a -> 245a  :     0.025423 (c= -0.15944694)

STATE 50:  E=   0.146580 au      3.989 eV    32170.5 cm**-1
   223a -> 238a  :     0.037856 (c=  0.19456499)
   228a -> 240a  :     0.013534 (c=  0.11633662)
   229a -> 240a  :     0.078171 (c=  0.27958998)
   230a -> 240a  :     0.380459 (c= -0.61681395)
   231a -> 238a  :     0.012957 (c= -0.11382724)
   231a -> 240a  :     0.037595 (c= -0.19389425)
   232a -> 240a  :     0.045184 (c= -0.21256600)
   234a -> 242a  :     0.030589 (c= -0.17489690)
   235a -> 243a  :     0.013694 (c=  0.11702104)
   235a -> 244a  :     0.013272 (c=  0.11520294)
   236a -> 243a  :     0.049452 (c= -0.22237802)
   236a -> 244a  :     0.143368 (c= -0.37863904)
   237a -> 246a  :     0.067166 (c= -0.25916365)


-----------------------------
TD-DFT/TDA-EXCITATION SPECTRA
-----------------------------

Center of mass = (  5.6377, -0.8599, -0.2982)
Calculating the Dipole integrals                  ... done
Transforming integrals                            ... done
Calculating the Linear Momentum integrals         ... done
Transforming integrals                            ... done
Calculating angular momentum integrals            ... done
Transforming integrals                            ... done

-----------------------------------------------------------------------------
         ABSORPTION SPECTRUM VIA TRANSITION ELECTRIC DIPOLE MOMENTS
-----------------------------------------------------------------------------
State   Energy    Wavelength  fosc         T2        TX        TY        TZ  
        (cm-1)      (nm)                 (au**2)    (au)      (au)      (au) 
-----------------------------------------------------------------------------
   1   13498.9    740.8   0.136668657   3.33307   1.80449   0.26477  -0.08239
   2   15952.4    626.9   0.543117331  11.20838   3.31689   0.43910  -0.11754
   3   16221.6    616.5   0.249513014   5.06378  -2.21567  -0.39210  -0.02897
   4   16466.0    607.3   0.047310453   0.94590   0.97175   0.00637   0.03953
   5   17076.8    585.6   0.227002361   4.37623  -2.08706   0.14271  -0.00602
   6   18676.3    535.4   0.013086902   0.23069   0.46045   0.12673  -0.05112
   7   19194.8    521.0   0.004453699   0.07639   0.26348   0.06351  -0.05416
   8   19650.4    508.9   0.464559440   7.78298   2.71624   0.62909  -0.09637
   9   19806.0    504.9   0.043336794   0.72034  -0.83509  -0.15141   0.00635
  10   21220.2    471.2   0.004245936   0.06587  -0.17897   0.18236   0.02429
  11   21469.9    465.8   0.003300990   0.05062   0.21275   0.01733  -0.07110
  12   21810.0    458.5   0.000152866   0.00231  -0.00422   0.04036   0.02571
  13   22623.2    442.0   0.164707345   2.39682   1.51232   0.32938  -0.03502
  14   23656.5    422.7   0.114975007   1.60003   1.26040   0.10616   0.01276
  15   24289.7    411.7   0.000501536   0.00680  -0.06385  -0.01546   0.04982
  16   24437.2    409.2   0.021347971   0.28759   0.51919  -0.12950   0.03556
  17   24573.6    406.9   0.015663890   0.20985   0.45060   0.08203  -0.00900
  18   25347.2    394.5   0.136886059   1.77789  -1.33249  -0.04788   0.00768
  19   26435.7    378.3   0.008025792   0.09995  -0.18809  -0.22587   0.11642
  20   26629.7    375.5   0.076135842   0.94123  -0.62199   0.74318  -0.04518
  21   26924.4    371.4   0.043060605   0.52651  -0.10694   0.71475  -0.06493
  22   27111.9    368.8   0.036258946   0.44028  -0.53708  -0.38223   0.07568
  23   27346.1    365.7   0.016956902   0.20414   0.42983   0.13340  -0.03984
  24   27374.0    365.3   0.057961228   0.69707  -0.83035  -0.04658   0.07365
  25   27517.9    363.4   0.007105353   0.08501   0.06406  -0.28410   0.01380
  26   27699.8    361.0   0.014621513   0.17378  -0.14671  -0.39009  -0.00899
  27   28124.3    355.6   0.152611777   1.78641  -1.29119  -0.33045  -0.10015
  28   28638.9    349.2   0.057086838   0.65623   0.77506   0.21728  -0.09113
  29   28864.8    346.4   0.127617766   1.45552  -0.77450  -0.92313   0.05918
  30   29005.1    344.8   0.046381473   0.52644  -0.71549   0.09291   0.07665
  31   29229.6    342.1   0.002215382   0.02495   0.05767   0.14689   0.00699
  32   29333.0    340.9   0.036785242   0.41285  -0.22954  -0.59614   0.06912
  33   29625.0    337.6   0.447762349   4.97582  -2.11799  -0.69973  -0.01753
  34   29766.5    335.9   0.117779321   1.30262  -0.86713  -0.74017  -0.05350
  35   30193.9    331.2   0.006039084   0.06585  -0.14195   0.09799   0.18998
  36   30264.6    330.4   0.031437432   0.34197   0.37976  -0.44469  -0.00159
  37   30513.1    327.7   0.020058040   0.21641   0.43932  -0.15296  -0.00395
  38   30609.0    326.7   0.034820611   0.37451  -0.13910  -0.57548  -0.15488
  39   30617.9    326.6   0.000790725   0.00850   0.08802   0.02253  -0.01575
  40   30770.6    325.0   0.110749360   1.18490  -0.15350  -1.03176  -0.31114
  41   31016.2    322.4   0.041915305   0.44490   0.64957   0.14480   0.04459
  42   31125.1    321.3   0.073837786   0.78099  -0.16562  -0.84950  -0.17865
  43   31292.4    319.6   0.011612134   0.12217  -0.27121  -0.18676  -0.11719
  44   31503.9    317.4   0.060746166   0.63479   0.51764  -0.59692  -0.10259
  45   31825.7    314.2   0.001047090   0.01083  -0.01454  -0.10268   0.00875
  46   31925.1    313.2   0.008921971   0.09200   0.26949  -0.11912  -0.07204
  47   31962.5    312.9   0.003462347   0.03566  -0.16644  -0.08140  -0.03651
  48   32030.5    312.2   0.001280945   0.01317  -0.06560  -0.09132   0.02286
  49   32115.8    311.4   0.106403099   1.09071  -0.35483  -0.81382  -0.55001
  50   32170.5    310.8   0.015251355   0.15607  -0.22413  -0.28419  -0.15834

-----------------------------------------------------------------------------
         ABSORPTION SPECTRUM VIA TRANSITION VELOCITY DIPOLE MOMENTS
-----------------------------------------------------------------------------
State   Energy    Wavelength   fosc        P2         PX        PY        PZ  
        (cm-1)      (nm)                 (au**2)     (au)      (au)      (au) 
-----------------------------------------------------------------------------
   1   13498.9    740.8   0.040202956   0.00371  -0.06083  -0.00078   0.00285
   2   15952.4    626.9   0.139731921   0.01523  -0.12336   0.00348  -0.00228
   3   16221.6    616.5   0.057974035   0.00643   0.07525  -0.02501  -0.01184
   4   16466.0    607.3   0.011967799   0.00135  -0.02572  -0.02516   0.00721
   5   17076.8    585.6   0.125673623   0.01467   0.07203   0.09640  -0.01364
   6   18676.3    535.4   0.009712810   0.00124  -0.03408   0.00881   0.00103
   7   19194.8    521.0   0.002906937   0.00038  -0.01774   0.00733  -0.00361
   8   19650.4    508.9   0.160887451   0.02161  -0.14690   0.00500  -0.00112
   9   19806.0    504.9   0.013951459   0.00189   0.04319  -0.00472  -0.00068
  10   21220.2    471.2   0.013022575   0.00189   0.00503   0.04307   0.00286
  11   21469.9    465.8   0.003392828   0.00050  -0.02180   0.00379  -0.00284
  12   21810.0    458.5   0.000759859   0.00011   0.00804   0.00609  -0.00340
  13   22623.2    442.0   0.011794420   0.00182  -0.03850   0.01690   0.00748
  14   23656.5    422.7   0.079602685   0.01287  -0.11302  -0.00956   0.00218
  15   24289.7    411.7   0.000691454   0.00011   0.00995   0.00069   0.00390
  16   24437.2    409.2   0.013442506   0.00225  -0.03466  -0.03182   0.00560
  17   24573.6    406.9   0.010175838   0.00171  -0.04124  -0.00010   0.00289
  18   25347.2    394.5   0.106417912   0.01844   0.13541   0.00463   0.00890
  19   26435.7    378.3   0.008129389   0.00147   0.03573  -0.01104   0.00839
  20   26629.7    375.5   0.064660414   0.01177   0.04845   0.09702   0.00293
  21   26924.4    371.4   0.016307753   0.00300  -0.00152   0.05448  -0.00556
  22   27111.9    368.8   0.020958802   0.00388   0.04393  -0.04279   0.01106
  23   27346.1    365.7   0.017989923   0.00336  -0.05428   0.01960  -0.00565
  24   27374.0    365.3   0.057220156   0.01071   0.09997  -0.02637   0.00385
  25   27517.9    363.4   0.005232735   0.00098   0.00827  -0.02857   0.00998
  26   27699.8    361.0   0.003392671   0.00064   0.02493  -0.00327  -0.00317
  27   28124.3    355.6   0.064299646   0.01236   0.10674   0.02034  -0.02350
  28   28638.9    349.2   0.035686384   0.00698  -0.08340   0.00366   0.00403
  29   28864.8    346.4   0.039795004   0.00785   0.08860  -0.00045  -0.00053
  30   29005.1    344.8   0.028820354   0.00571   0.07123  -0.02526  -0.00097
  31   29229.6    342.1   0.000114604   0.00002  -0.00223   0.00033   0.00422
  32   29333.0    340.9   0.009220077   0.00185   0.03813   0.00089   0.01984
  33   29625.0    337.6   0.231372728   0.04685   0.21336  -0.02799  -0.02322
  34   29766.5    335.9   0.021351270   0.00434   0.05825   0.02381  -0.01960
  35   30193.9    331.2   0.008885898   0.00183   0.02926  -0.02418   0.01983
  36   30264.6    330.4   0.001625806   0.00034  -0.01742  -0.00295   0.00491
  37   30513.1    327.7   0.005960325   0.00124  -0.03371  -0.00704   0.00755
  38   30609.0    326.7   0.003949684   0.00083   0.00624   0.02774  -0.00424
  39   30617.9    326.6   0.000613179   0.00013  -0.00860  -0.00712   0.00191
  40   30770.6    325.0   0.001946388   0.00041   0.00429   0.01527  -0.01255
  41   31016.2    322.4   0.027641462   0.00586  -0.04465  -0.06142   0.00966
  42   31125.1    321.3   0.000955920   0.00020   0.01225   0.00663   0.00305
  43   31292.4    319.6   0.014147224   0.00303   0.02979   0.04608   0.00379
  44   31503.9    317.4   0.012616119   0.00272  -0.04001  -0.02443   0.02278
  45   31825.7    314.2   0.000878479   0.00019   0.01373  -0.00112  -0.00119
  46   31925.1    313.2   0.005549642   0.00121  -0.02914  -0.01834  -0.00506
  47   31962.5    312.9   0.001229664   0.00027   0.01519  -0.00047  -0.00614
  48   32030.5    312.2   0.002274854   0.00050   0.01141   0.01824   0.00593
  49   32115.8    311.4   0.025670936   0.00563   0.01289  -0.00953  -0.07333
  50   32170.5    310.8   0.003939190   0.00087   0.02205   0.01373  -0.01383

-------------------------------------------------------------------
                             CD SPECTRUM
-------------------------------------------------------------------
State  Energy     Wavelength     R         MX        MY        MZ   
       (cm-1)       (nm)     (1e40*cgs)   (au)      (au)      (au)  
-------------------------------------------------------------------
   1   13498.9    740.8     43.60316   0.03236   0.05753  -0.22894
   2   15952.4    626.9     43.84163   0.02193  -0.06348  -0.40941
   3   16221.6    616.5    -25.09918   0.03339  -0.07343   0.27766
   4   16466.0    607.3     -4.52401  -0.00681   0.03318  -0.08061
   5   17076.8    585.6    -26.45916   0.02773   0.04676   0.81839
   6   18676.3    535.4      3.79122  -0.00120   0.01399  -0.13349
   7   19194.8    521.0     -3.59917  -0.03465  -0.05025  -0.08652
   8   19650.4    508.9    -57.82441  -0.07965   0.09724  -0.33757
   9   19806.0    504.9     -6.47766   0.02838  -0.07002  -0.10133
  10   21220.2    471.2      7.66280  -0.01576   0.04149   0.24150
  11   21469.9    465.8     -0.13825  -0.00386  -0.05483  -0.02078
  12   21810.0    458.5     -0.65927  -0.05881  -0.04132   0.00081
  13   22623.2    442.0     -0.38760  -0.01023  -0.00223  -0.43918
  14   23656.5    422.7     11.15130   0.02062  -0.00587  -0.13407
  15   24289.7    411.7     -0.02571  -0.06439   0.03559  -0.07256
  16   24437.2    409.2    -15.60206  -0.05267   0.03831  -0.02219
  17   24573.6    406.9      3.64957   0.01353   0.01201  -0.07343
  18   25347.2    394.5     -7.42298   0.01678  -0.09881   0.24498
  19   26435.7    378.3    -13.83988   0.08050   0.18986   0.24627
  20   26629.7    375.5    -57.66336   0.08176  -0.08025   0.26155
  21   26924.4    371.4     27.54228  -0.04630   0.06510  -0.10689
  22   27111.9    368.8     32.35869  -0.06091  -0.07829   0.07927
  23   27346.1    365.7      7.69271   0.02743   0.01542  -0.06202
  24   27374.0    365.3    -12.74146   0.04220  -0.09662   0.04767
  25   27517.9    363.4      0.17393   0.01289  -0.00219  -0.07827
  26   27699.8    361.0      1.39479  -0.12204   0.03935  -0.04490
  27   28124.3    355.6    137.02193  -0.17451  -0.24342   0.15100
  28   28638.9    349.2    -39.51474  -0.12551  -0.05141  -0.27029
  29   28864.8    346.4    -39.17044   0.09740   0.02493   0.25956
  30   29005.1    344.8     28.65763  -0.06325   0.06644   0.12212
  31   29229.6    342.1     -3.78149  -0.05347  -0.02951  -0.08618
  32   29333.0    340.9    -24.49499  -0.09009   0.11863  -0.02774
  33   29625.0    337.6    -98.81394   0.13819  -0.12620   0.29798
  34   29766.5    335.9    -64.28323   0.06980   0.07691   0.35332
  35   30193.9    331.2     18.31871  -0.03958   0.06196   0.14299
  36   30264.6    330.4      7.04214   0.03392  -0.00427  -0.09887
  37   30513.1    327.7      6.78520   0.03459   0.00423   0.04012
  38   30609.0    326.7     15.09751  -0.04513   0.00244  -0.17528
  39   30617.9    326.6     -0.03485   0.01505  -0.03320   0.04132
  40   30770.6    325.0     43.31123  -0.01506  -0.02486  -0.20539
  41   31016.2    322.4      0.95327  -0.00585   0.02018   0.06504
  42   31125.1    321.3    -19.86951  -0.09344   0.10486  -0.17607
  43   31292.4    319.6      2.81864  -0.05801   0.03761   0.02331
  44   31503.9    317.4    -43.55006  -0.09422   0.09376  -0.12057
  45   31825.7    314.2     -2.73943   0.06505   0.04788   0.00593
  46   31925.1    313.2      9.53206   0.03399  -0.10607   0.02187
  47   31962.5    312.9     -0.39977  -0.00742  -0.01372   0.08763
  48   32030.5    312.2     -0.36121   0.00269   0.03642   0.11971
  49   32115.8    311.4    191.75838   0.17443  -0.52225  -0.07930
  50   32170.5    310.8      7.68433   0.01579  -0.09606   0.04711

Total run time:    25660.997 sec

           *** ORCA-CIS/TD-DFT FINISHED WITHOUT ERROR ***

-----------------------
CIS/TD-DFT TOTAL ENERGY
-----------------------

    E(SCF)  =  -6307.298385149 Eh
    DE(CIS) =      0.061505719 Eh (Root  1)
    ----------------------------- ---------
    E(tot)  =  -6307.236879429 Eh


-------------------------   --------------------
FINAL SINGLE POINT ENERGY     -6307.236879429317
-------------------------   --------------------


                            ***************************************
                            *     ORCA property calculations      *
                            ***************************************

                                    ---------------------
                                    Active property flags
                                    ---------------------
   (+) Dipole Moment


------------------------------------------------------------------------------
                       ORCA ELECTRIC PROPERTIES CALCULATION
------------------------------------------------------------------------------

Dipole Moment Calculation                       ... on
Quadrupole Moment Calculation                   ... off
Polarizability Calculation                      ... off
GBWName                                         ... BTSe-4F.gbw
Electron density file                           ... BTSe-4F.scfp
The origin for moment calculation is the CENTER OF MASS  = ( 5.637685, -0.859856 -0.298194)

-------------
DIPOLE MOMENT
-------------
                                X             Y             Z
Electronic contribution:    -58.21460     -43.33333       6.74497
Nuclear contribution   :     59.38437      43.53749      -7.07753
                        -----------------------------------------
Total Dipole Moment    :      1.16976       0.20416      -0.33256
                        -----------------------------------------
Magnitude (a.u.)       :      1.23314
Magnitude (Debye)      :      3.13438



--------------------
Rotational spectrum 
--------------------
 
Rotational constants in cm-1:     0.003287     0.000267     0.000250 
Rotational constants in MHz :    98.532210     7.996598     7.497880 

 Dipole components along the rotational axes: 
x,y,z [a.u.] :     1.196014    -0.041965    -0.297344 
x,y,z [Debye]:     3.040025    -0.106666    -0.755789 

 

Timings for individual modules:

Sum of individual times         ...    28013.444 sec (= 466.891 min)
GTO integral calculation        ...        7.550 sec (=   0.126 min)   0.0 %
SCF iterations                  ...     2343.371 sec (=  39.056 min)   8.4 %
CIS module                      ...    25662.523 sec (= 427.709 min)  91.6 %
                             ****ORCA TERMINATED NORMALLY****
TOTAL RUN TIME: 0 days 7 hours 46 minutes 55 seconds 119 msec
