
                                 *****************
                                 * O   R   C   A *
                                 *****************

           --- An Ab Initio, DFT and Semiempirical electronic structure package ---

                  #######################################################
                  #                        -***-                        #
                  #          Department of theory and spectroscopy      #
                  #               Directorship: Frank Neese             #
                  #        Max Planck Institute fuer Kohlenforschung    #
                  #                Kaiser Wilhelm Platz 1               #
                  #                 D-45470 Muelheim/Ruhr               #
                  #                      Germany                        #
                  #                                                     #
                  #                  All rights reserved                #
                  #                        -***-                        #
                  #######################################################


                         Program Version 4.2.0 -  RELEASE  -


 With contributions from (in alphabetic order):
   Daniel Aravena         : Magnetic Suceptibility
   Michael Atanasov       : Ab Initio Ligand Field Theory (pilot matlab implementation)
   Alexander A. Auer      : GIAO ZORA, VPT2
   Ute Becker             : Parallelization
   Giovanni Bistoni       : ED, misc. LED, open-shell LED, HFLED
   Martin Brehm           : Molecular dynamics
   Dmytro Bykov           : SCF Hessian
   Vijay G. Chilkuri      : MRCI spin determinant printing, contributions to CSF-ICE
   Dipayan Datta          : RHF DLPNO-CCSD density
   Achintya Kumar Dutta   : EOM-CC, STEOM-CC
   Dmitry Ganyushin       : Spin-Orbit,Spin-Spin,Magnetic field MRCI
   Miquel Garcia          : C-PCM Hessian, Gaussian charge scheme
   Yang Guo               : DLPNO-NEVPT2, CIM, IAO-localization
   Andreas Hansen         : Spin unrestricted coupled pair/coupled cluster methods
   Benjamin Helmich-Paris : CASSCF linear response (MC-RPA)
   Lee Huntington         : MR-EOM, pCC
   Robert Izsak           : Overlap fitted RIJCOSX, COSX-SCS-MP3, EOM
   Christian Kollmar      : KDIIS, OOCD, Brueckner-CCSD(T), CCSD density
   Simone Kossmann        : Meta GGA functionals, TD-DFT gradient, OOMP2, MP2 Hessian
   Martin Krupicka        : AUTO-CI
   Lucas Lang             : DCDCAS
   Dagmar Lenk            : GEPOL surface, SMD
   Dimitrios Liakos       : Extrapolation schemes; Compound Job, initial MDCI parallelization
   Dimitrios Manganas     : Further ROCIS development; embedding schemes
   Dimitrios Pantazis     : SARC Basis sets
   Taras Petrenko         : DFT Hessian,TD-DFT gradient, ASA, ECA, R-Raman, ABS, FL, XAS/XES, NRVS
   Peter Pinski           : DLPNO-MP2, DLPNO-MP2 Gradient
   Christoph Reimann      : Effective Core Potentials
   Marius Retegan         : Local ZFS, SOC
   Christoph Riplinger    : Optimizer, TS searches, QM/MM, DLPNO-CCSD(T), (RO)-DLPNO pert. Triples
   Tobias Risthaus        : Range-separated hybrids, TD-DFT gradient, RPA, STAB
   Michael Roemelt        : Original ROCIS implementation
   Masaaki Saitow         : Open-shell DLPNO-CCSD energy and density
   Barbara Sandhoefer     : DKH picture change effects
   Avijit Sen             : IP-ROCIS
   Kantharuban Sivalingam : CASSCF convergence, NEVPT2, FIC-MRCI
   Bernardo de Souza      : ESD, SOC TD-DFT
   Georgi Stoychev        : AutoAux, RI-MP2 NMR
   Willem Van den Heuvel  : Paramagnetic NMR
   Boris Wezisla          : Elementary symmetry handling
   Frank Wennmohs         : Technical directorship


 We gratefully acknowledge several colleagues who have allowed us to
 interface, adapt or use parts of their codes:
   Stefan Grimme, W. Hujo, H. Kruse,             : VdW corrections, initial TS optimization,
                  C. Bannwarth                     DFT functionals, gCP, sTDA/sTD-DF
   Ed Valeev, F. Pavosevic, A. Kumar             : LibInt (2-el integral package), F12 methods
   Garnet Chan, S. Sharma, J. Yang, R. Olivares  : DMRG
   Ulf Ekstrom                                   : XCFun DFT Library
   Mihaly Kallay                                 : mrcc  (arbitrary order and MRCC methods)
   Andreas Klamt, Michael Diedenhofen            : otool_cosmo (COSMO solvation model)
   Jiri Pittner, Ondrej Demel                    : Mk-CCSD
   Frank Weinhold                                : gennbo (NPA and NBO analysis)
   Christopher J. Cramer and Donald G. Truhlar   : smd solvation model
   Lars Goerigk                                  : TD-DFT with DH, B97 family of functionals
   V. Asgeirsson, H. Jonsson                     : NEB implementation
   FAccTs GmbH                                   : IRC, NEB, NEB-TS, Multilevel, MM, QM/MM, CI optimization
   S Lehtola, MJT Oliveira, MAL Marques          : LibXC Library


 Your calculation uses the libint2 library for the computation of 2-el integrals
 For citations please refer to: http://libint.valeyev.net

 Your ORCA version has been built with support for libXC version: 4.2.3
 For citations please refer to: https://tddft.org/programs/libxc/

 This ORCA versions uses:
   CBLAS   interface :  Fast vector & matrix operations
   LAPACKE interface :  Fast linear algebra routines
   SCALAPACK package :  Parallel linear algebra routines


----- Orbital basis set information -----
Your calculation utilizes the basis: def2-TZVP
   F. Weigend and R. Ahlrichs, Phys. Chem. Chem. Phys. 7, 3297 (2005).

----- AuxJ basis set information -----
Your calculation utilizes the auxiliary basis: def2/J
   F. Weigend, Phys. Chem. Chem. Phys. 8, 1057 (2006).

================================================================================
                                        WARNINGS
                       Please study these warnings very carefully!
================================================================================

INFO   : Checking CIS options ...

WARNING: CIS/ROCIS methods need fully converged wavefunctions
  ===> : Setting SCFConvForced true
         You can overwrite this default with %scf ConvForced false 


INFO   : the flag for use of LIBINT has been found!

================================================================================
                                       INPUT FILE
================================================================================
NAME = BTTPC-Br.inp
|  1> # ORCA input file
|  2> # BTTPC-Br.out: Geometry 93
|  3> ! B3LYP def2-TZVP def2/J RIJCOSX Grid4 TightSCF
|  4> 
|  5> %maxcore 6000
|  6> %tddft
|  7>   maxdim 5
|  8>   nroots 50
|  9>   end
| 10> %pal
| 11>   nprocs 6
| 12>   end
| 13> 
| 14> 
| 15> * xyz 0 1
| 16>    C       -3.41386        -1.38753        -0.65858
| 17>    O       -2.96078        -0.59725        -1.46209
| 18>    C       -2.74576        -2.62331        -0.16900
| 19>    C       -1.47224        -3.06169        -0.47769
| 20>    C       -1.01387        -4.24383         0.13954
| 21>    C       -1.88973        -4.93852         1.03019
| 22>    C       -3.18297        -4.49616         1.33479
| 23>    C       -3.60740        -3.31300         0.72815
| 24>    C       -4.86275        -2.54723         0.85654
| 25>    C       -6.01591        -2.96052         1.49801
| 26>    C       -6.10251        -4.20722         2.19138
| 27>    N       -6.16665        -5.21804         2.76144
| 28>    C       -7.22715        -2.19832         1.48033
| 29>    N       -8.22541        -1.60294         1.47693
| 30>    C       -4.69430        -1.29622         0.11655
| 31>    C       -5.35439        -0.11655         0.36773
| 32>    C       -5.22058         1.11276        -0.34855
| 33>    S       -5.13854         2.60019         0.62207
| 34>    C       -4.95690         3.55303        -0.80896
| 35>    C       -5.03002         2.75637        -1.96890
| 36>    C       -5.16249         1.36784        -1.72528
| 37>    C       -5.38935         0.35023        -2.80625
| 38>    C       -6.74507         0.52898        -3.50690
| 39>    S       -4.90860         3.69971        -3.45763
| 40>    C       -4.73880         5.15396        -2.50645
| 41>    C       -4.75021         4.91418        -1.12556
| 42>    N       -4.62476         6.10769        -0.43243
| 43>    C       -5.19359         6.19593         0.91356
| 44>    C       -6.70497         6.38799         0.89479
| 45>    C       -4.55757         7.13368        -1.38355
| 46>    C       -4.65429         6.55634        -2.68581
| 47>    C       -4.76481         7.38608        -3.84933
| 48>    N       -4.90295         6.98764        -5.10656
| 49>    S       -5.09387         8.35132        -6.02624
| 50>    N       -5.00070         9.48705        -4.82441
| 51>    C       -4.81860         8.83020        -3.68720
| 52>    C       -4.62101         9.39563        -2.38607
| 53>    C       -4.42445         8.55598        -1.24607
| 54>    N       -4.10709         9.36325        -0.15265
| 55>    C       -3.40828         8.99656         1.07982
| 56>    C       -4.22226         9.24304         2.34833
| 57>    C       -4.14043        10.68092        -0.57907
| 58>    C       -4.46530        10.72912        -1.94394
| 59>    S       -4.47694        12.34775        -2.59367
| 60>    C       -4.01396        12.97391        -1.00669
| 61>    C       -3.84931        11.95496        -0.04395
| 62>    S       -3.32243        12.60397         1.46678
| 63>    C       -3.36706        14.25765         0.81687
| 64>    C       -3.75550        14.28277        -0.53697
| 65>    C       -3.74547        15.49044        -1.43549
| 66>    C       -5.06508        15.74983        -2.18073
| 67>    C       -2.89446        15.26153         1.70973
| 68>    C       -3.08809        16.61723         1.84420
| 69>    C       -4.05647        17.58464         1.34924
| 70>    C       -5.34006        17.30575         0.90551
| 71>    C       -6.22086        18.31464         0.40985
| 72>    N       -6.93159        19.12724        -0.02205
| 73>    C       -5.91190        16.00428         1.01689
| 74>    N       -6.39947        14.95425         1.12248
| 75>    C       -3.52945        18.93945         1.64810
| 76>    C       -3.98686        20.21107         1.29838
| 77>    C       -3.30656        21.30836         1.84839
| 78>    C       -2.20305        21.17400         2.74660
| 79>    C       -1.74731        19.88113         3.07125
| 80>    C       -2.40394        18.80363         2.50852
| 81>    C       -2.09657        17.36467         2.69141
| 82>    O       -1.20216        16.88489         3.35829
| 83>    C       -1.70555        22.44423         3.19563
| 84>    C       -2.39776        23.48687         2.64922
| 85>    S       -3.68718        22.99481         1.56866
| 86>    S       -1.12615        -6.37120         1.68187
| 87>    C        0.33607        -6.02391         0.78099
| 88>    C        0.26150        -4.89326         0.01762
| 89>   Br        1.80930        -7.17066         0.94760
| 90>   Br       -2.09633        25.31141         2.94938
| 91>    H       -0.84675        -2.49212        -1.16856
| 92>    H       -3.81020        -5.05426         2.02784
| 93>    H       -5.97561        -0.07128         1.26804
| 94>    H       -5.32937        -0.65778        -2.38267
| 95>    H       -4.56390         0.42675        -3.53299
| 96>    H       -7.57075         0.38548        -2.79310
| 97>    H       -6.86159        -0.21086        -4.31343
| 98>    H       -6.85273         1.52984        -3.95176
| 99>    H       -4.70946         6.99890         1.46677
|100>    H       -4.91946         5.26649         1.43410
|101>    H       -6.97228         7.32706         0.38602
|102>    H       -7.10005         6.42900         1.92118
|103>    H       -7.20075         5.55867         0.36919
|104>    H       -2.47795         9.58628         1.11838
|105>    H       -3.09363         7.94941         0.98728
|106>    H       -5.18395         8.71110         2.33060
|107>    H       -4.44535        10.31161         2.48034
|108>    H       -3.65255         8.90466         3.22787
|109>    H       -2.94865        15.32888        -2.18370
|110>    H       -3.44568        16.37632        -0.86415
|111>    H       -5.91774        15.82400        -1.49449
|112>    H       -5.29405        14.94193        -2.89154
|113>    H       -5.00119        16.68665        -2.75395
|114>    H       -2.16858        14.89752         2.45225
|115>    H       -4.83787        20.36298         0.63667
|116>    H       -0.90449        19.71930         3.74607
|117>    H       -0.87263        22.56710         3.88728
|118>    H        1.07995        -4.52634        -0.60081
|119> *
|120> 
|121>                          ****END OF INPUT****
================================================================================

                       ****************************
                       * Single Point Calculation *
                       ****************************

---------------------------------
CARTESIAN COORDINATES (ANGSTROEM)
---------------------------------
  C     -3.413860   -1.387530   -0.658580
  O     -2.960780   -0.597250   -1.462090
  C     -2.745760   -2.623310   -0.169000
  C     -1.472240   -3.061690   -0.477690
  C     -1.013870   -4.243830    0.139540
  C     -1.889730   -4.938520    1.030190
  C     -3.182970   -4.496160    1.334790
  C     -3.607400   -3.313000    0.728150
  C     -4.862750   -2.547230    0.856540
  C     -6.015910   -2.960520    1.498010
  C     -6.102510   -4.207220    2.191380
  N     -6.166650   -5.218040    2.761440
  C     -7.227150   -2.198320    1.480330
  N     -8.225410   -1.602940    1.476930
  C     -4.694300   -1.296220    0.116550
  C     -5.354390   -0.116550    0.367730
  C     -5.220580    1.112760   -0.348550
  S     -5.138540    2.600190    0.622070
  C     -4.956900    3.553030   -0.808960
  C     -5.030020    2.756370   -1.968900
  C     -5.162490    1.367840   -1.725280
  C     -5.389350    0.350230   -2.806250
  C     -6.745070    0.528980   -3.506900
  S     -4.908600    3.699710   -3.457630
  C     -4.738800    5.153960   -2.506450
  C     -4.750210    4.914180   -1.125560
  N     -4.624760    6.107690   -0.432430
  C     -5.193590    6.195930    0.913560
  C     -6.704970    6.387990    0.894790
  C     -4.557570    7.133680   -1.383550
  C     -4.654290    6.556340   -2.685810
  C     -4.764810    7.386080   -3.849330
  N     -4.902950    6.987640   -5.106560
  S     -5.093870    8.351320   -6.026240
  N     -5.000700    9.487050   -4.824410
  C     -4.818600    8.830200   -3.687200
  C     -4.621010    9.395630   -2.386070
  C     -4.424450    8.555980   -1.246070
  N     -4.107090    9.363250   -0.152650
  C     -3.408280    8.996560    1.079820
  C     -4.222260    9.243040    2.348330
  C     -4.140430   10.680920   -0.579070
  C     -4.465300   10.729120   -1.943940
  S     -4.476940   12.347750   -2.593670
  C     -4.013960   12.973910   -1.006690
  C     -3.849310   11.954960   -0.043950
  S     -3.322430   12.603970    1.466780
  C     -3.367060   14.257650    0.816870
  C     -3.755500   14.282770   -0.536970
  C     -3.745470   15.490440   -1.435490
  C     -5.065080   15.749830   -2.180730
  C     -2.894460   15.261530    1.709730
  C     -3.088090   16.617230    1.844200
  C     -4.056470   17.584640    1.349240
  C     -5.340060   17.305750    0.905510
  C     -6.220860   18.314640    0.409850
  N     -6.931590   19.127240   -0.022050
  C     -5.911900   16.004280    1.016890
  N     -6.399470   14.954250    1.122480
  C     -3.529450   18.939450    1.648100
  C     -3.986860   20.211070    1.298380
  C     -3.306560   21.308360    1.848390
  C     -2.203050   21.174000    2.746600
  C     -1.747310   19.881130    3.071250
  C     -2.403940   18.803630    2.508520
  C     -2.096570   17.364670    2.691410
  O     -1.202160   16.884890    3.358290
  C     -1.705550   22.444230    3.195630
  C     -2.397760   23.486870    2.649220
  S     -3.687180   22.994810    1.568660
  S     -1.126150   -6.371200    1.681870
  C      0.336070   -6.023910    0.780990
  C      0.261500   -4.893260    0.017620
  Br     1.809300   -7.170660    0.947600
  Br    -2.096330   25.311410    2.949380
  H     -0.846750   -2.492120   -1.168560
  H     -3.810200   -5.054260    2.027840
  H     -5.975610   -0.071280    1.268040
  H     -5.329370   -0.657780   -2.382670
  H     -4.563900    0.426750   -3.532990
  H     -7.570750    0.385480   -2.793100
  H     -6.861590   -0.210860   -4.313430
  H     -6.852730    1.529840   -3.951760
  H     -4.709460    6.998900    1.466770
  H     -4.919460    5.266490    1.434100
  H     -6.972280    7.327060    0.386020
  H     -7.100050    6.429000    1.921180
  H     -7.200750    5.558670    0.369190
  H     -2.477950    9.586280    1.118380
  H     -3.093630    7.949410    0.987280
  H     -5.183950    8.711100    2.330600
  H     -4.445350   10.311610    2.480340
  H     -3.652550    8.904660    3.227870
  H     -2.948650   15.328880   -2.183700
  H     -3.445680   16.376320   -0.864150
  H     -5.917740   15.824000   -1.494490
  H     -5.294050   14.941930   -2.891540
  H     -5.001190   16.686650   -2.753950
  H     -2.168580   14.897520    2.452250
  H     -4.837870   20.362980    0.636670
  H     -0.904490   19.719300    3.746070
  H     -0.872630   22.567100    3.887280
  H      1.079950   -4.526340   -0.600810

----------------------------
CARTESIAN COORDINATES (A.U.)
----------------------------
  NO LB      ZA    FRAG     MASS         X           Y           Z
   0 C     6.0000    0    12.011   -6.451260   -2.622052   -1.244536
   1 O     8.0000    0    15.999   -5.595063   -1.128639   -2.762950
   2 C     6.0000    0    12.011   -5.188734   -4.957337   -0.319364
   3 C     6.0000    0    12.011   -2.782130   -5.785756   -0.902703
   4 C     6.0000    0    12.011   -1.915937   -8.019676    0.263692
   5 C     6.0000    0    12.011   -3.571072   -9.332450    1.946777
   6 C     6.0000    0    12.011   -6.014942   -8.496511    2.522388
   7 C     6.0000    0    12.011   -6.816998   -6.260663    1.376004
   8 C     6.0000    0    12.011   -9.189266   -4.813567    1.618626
   9 C     6.0000    0    12.011  -11.368422   -5.594572    2.830829
  10 C     6.0000    0    12.011  -11.532073   -7.950494    4.141108
  11 N     7.0000    0    14.007  -11.653280   -9.860667    5.218365
  12 C     6.0000    0    12.011  -13.657334   -4.154223    2.797418
  13 N     7.0000    0    14.007  -15.543772   -3.029118    2.790993
  14 C     6.0000    0    12.011   -8.870941   -2.449501    0.220248
  15 C     6.0000    0    12.011  -10.118331   -0.220248    0.694909
  16 C     6.0000    0    12.011   -9.865466    2.102812   -0.658664
  17 S    16.0000    0    32.060   -9.710433    4.913647    1.175542
  18 C     6.0000    0    12.011   -9.367183    6.714254   -1.528713
  19 C     6.0000    0    12.011   -9.505360    5.208784   -3.720682
  20 C     6.0000    0    12.011   -9.755692    2.584843   -3.260307
  21 C     6.0000    0    12.011  -10.184396    0.661839   -5.303044
  22 C     6.0000    0    12.011  -12.746335    0.999627   -6.627081
  23 S    16.0000    0    32.060   -9.275910    6.991439   -6.533974
  24 C     6.0000    0    12.011   -8.955034    9.739573   -4.736504
  25 C     6.0000    0    12.011   -8.976596    9.286454   -2.127000
  26 N     7.0000    0    14.007   -8.739530   11.541861   -0.817174
  27 C     6.0000    0    12.011   -9.814463   11.708611    1.726378
  28 C     6.0000    0    12.011  -12.670557   12.071552    1.690908
  29 C     6.0000    0    12.011   -8.612559   13.480702   -2.614531
  30 C     6.0000    0    12.011   -8.795333   12.389687   -5.075445
  31 C     6.0000    0    12.011   -9.004186   13.957668   -7.274179
  32 N     7.0000    0    14.007   -9.265233   13.204726   -9.650000
  33 S    16.0000    0    32.060   -9.626019   15.781708  -11.387943
  34 N     7.0000    0    14.007   -9.449953   17.927926   -9.116814
  35 C     6.0000    0    12.011   -9.105834   16.686660   -6.967798
  36 C     6.0000    0    12.011   -8.732443   17.755168   -4.509019
  37 C     6.0000    0    12.011   -8.360999   16.168459   -2.354731
  38 N     7.0000    0    14.007   -7.761275   17.693978   -0.288467
  39 C     6.0000    0    12.011   -6.440716   17.001035    2.040564
  40 C     6.0000    0    12.011   -7.978915   17.466814    4.437701
  41 C     6.0000    0    12.011   -7.824279   20.184014   -1.094284
  42 C     6.0000    0    12.011   -8.438194   20.275098   -3.673514
  43 S    16.0000    0    32.060   -8.460191   23.333866   -4.901326
  44 C     6.0000    0    12.011   -7.585285   24.517137   -1.902368
  45 C     6.0000    0    12.011   -7.274142   22.591600   -0.083053
  46 S    16.0000    0    32.060   -6.278483   23.818052    2.771812
  47 C     6.0000    0    12.011   -6.362821   26.943054    1.543661
  48 C     6.0000    0    12.011   -7.096866   26.990524   -1.014726
  49 C     6.0000    0    12.011   -7.077913   29.272689   -2.712683
  50 C     6.0000    0    12.011   -9.571614   29.762865   -4.120982
  51 C     6.0000    0    12.011   -5.469737   28.840112    3.230921
  52 C     6.0000    0    12.011   -5.835644   31.402014    3.485033
  53 C     6.0000    0    12.011   -7.665617   33.230154    2.549694
  54 C     6.0000    0    12.011  -10.091251   32.703128    1.711166
  55 C     6.0000    0    12.011  -11.755722   34.609654    0.774504
  56 N     7.0000    0    14.007  -13.098807   36.145245   -0.041668
  57 C     6.0000    0    12.011  -11.171872   30.243706    1.921644
  58 N     7.0000    0    14.007  -12.093246   28.259437    2.121180
  59 C     6.0000    0    12.011   -6.669694   35.790374    3.114458
  60 C     6.0000    0    12.011   -7.534074   38.193387    2.453583
  61 C     6.0000    0    12.011   -6.248493   40.266965    3.492951
  62 C     6.0000    0    12.011   -4.163161   40.013061    5.190322
  63 C     6.0000    0    12.011   -3.301937   37.569891    5.803821
  64 C     6.0000    0    12.011   -4.542788   35.533711    4.740416
  65 C     6.0000    0    12.011   -3.961943   32.814471    5.086028
  66 O     8.0000    0    15.999   -2.271753   31.907818    6.346248
  67 C     6.0000    0    12.011   -3.223022   42.413448    6.038866
  68 C     6.0000    0    12.011   -4.531110   44.383752    5.006300
  69 S    16.0000    0    32.060   -6.967760   43.453893    2.964338
  70 S    16.0000    0    32.060   -2.128115  -12.039823    3.178274
  71 C     6.0000    0    12.011    0.635080  -11.383540    1.475857
  72 C     6.0000    0    12.011    0.494163   -9.246921    0.033297
  73 Br   35.0000    0    79.900    3.419081  -13.550584    1.790704
  74 Br   35.0000    0    79.900   -3.961490   47.831633    5.573520
  75 H     1.0000    0     1.008   -1.600126   -4.709424   -2.208258
  76 H     1.0000    0     1.008   -7.200235   -9.551167    3.832062
  77 H     1.0000    0     1.008  -11.292266   -0.134700    2.396248
  78 H     1.0000    0     1.008  -10.071050   -1.243024   -4.502594
  79 H     1.0000    0     1.008   -8.624521    0.806441   -6.676384
  80 H     1.0000    0     1.008  -14.306644    0.728452   -5.278194
  81 H     1.0000    0     1.008  -12.966526   -0.398468   -8.151201
  82 H     1.0000    0     1.008  -12.949783    2.890979   -7.467744
  83 H     1.0000    0     1.008   -8.899590   13.226004    2.771794
  84 H     1.0000    0     1.008   -9.296432    9.952224    2.710056
  85 H     1.0000    0     1.008  -13.175700   13.846137    0.729472
  86 H     1.0000    0     1.008  -13.417150   12.149049    3.630504
  87 H     1.0000    0     1.008  -13.607445   10.504364    0.697668
  88 H     1.0000    0     1.008   -4.682647   18.115444    2.113432
  89 H     1.0000    0     1.008   -5.846113   15.022208    1.865689
  90 H     1.0000    0     1.008   -9.796246   16.461593    4.404196
  91 H     1.0000    0     1.008   -8.400494   19.486119    4.687163
  92 H     1.0000    0     1.008   -6.902319   16.827369    6.099790
  93 H     1.0000    0     1.008   -5.572141   28.967385   -4.126595
  94 H     1.0000    0     1.008   -6.511392   30.946760   -1.633007
  95 H     1.0000    0     1.008  -11.182908   29.903026   -2.824177
  96 H     1.0000    0     1.008  -10.004305   28.236156   -5.464219
  97 H     1.0000    0     1.008   -9.450879   31.533199   -5.204211
  98 H     1.0000    0     1.008   -4.098022   28.152233    4.634081
  99 H     1.0000    0     1.008   -9.142249   38.480455    1.203132
 100 H     1.0000    0     1.008   -1.709238   37.264077    7.079046
 101 H     1.0000    0     1.008   -1.649032   42.645639    7.345895
 102 H     1.0000    0     1.008    2.040810   -8.553543   -1.135366

--------------------------------
INTERNAL COORDINATES (ANGSTROEM)
--------------------------------
 C      0   0   0     0.000000000000     0.00000000     0.00000000
 O      1   0   0     1.214681968624     0.00000000     0.00000000
 C      1   2   0     1.487682222385   126.20124018     0.00000000
 C      3   1   2     1.381781361468   127.15124995     3.69253620
 C      4   3   1     1.410152796473   117.88886212   177.67074520
 C      5   4   3     1.429329338606   118.75067848     1.03750204
 C      6   5   4     1.400333255764   123.22456069   359.30774539
 C      7   6   5     1.395715049750   117.00595135   359.72305170
 C      8   7   6     1.476072934343   131.34553935   182.45991096
 C      9   8   7     1.382776327032   126.47948777   349.82264915
 C     10   9   8     1.429168431956   122.43354001     3.05592281
 N     11  10   9     1.162256174688   179.54008038    65.51088420
 C     10   9   8     1.431210592471   122.74278315   185.31803589
 N     13  10   9     1.162330388487   178.52880160   167.51317442
 C      9   8   7     1.463211065670   107.55699304   172.91501298
 C     15   9   8     1.374929637982   125.86643169   206.31535234
 C     16  15   9     1.429043467009   126.98070620   180.81627176
 S     17  16  15     1.777999367520   116.76584094   222.66824523
 C     18  17  16     1.728798431310    90.80524252   178.68481651
 C     19  18  17     1.409068661776   111.36715360     3.01310209
 C     17  16  15     1.401365672264   130.75924470    43.90759438
 C     21  17  16     1.501829455231   125.27623129     7.34202820
 C     22  21  17     1.536502100031   112.49935304   106.29184768
 S     20  19  18     1.766621120925   112.84492825   177.88124805
 C     24  20  19     1.745972077354    89.56196748     0.72188673
 C     25  24  20     1.401599739084   113.16945981     1.09579138
 N     26  25  24     1.385869048467   110.16248381   180.56743085
 C     27  26  25     1.463913572107   118.46290689   152.86793676
 C     28  27  26     1.523649848522   112.43965661   282.02704046
 C     27  26  25     1.400642434956   107.19096350     1.13404952
 C     25  24  20     1.416326803425   139.59908051   185.28131150
 C     31  25  24     1.433339432375   132.17391282     4.51935152
 N     32  31  25     1.326071026039   127.13608313   355.48332234
 S     33  32  31     1.655863790050   106.92608602   175.90383298
 N     34  33  32     1.656187981692    98.92969444     0.07294732
 C     35  34  33     1.325842719405   106.88249878     0.05242662
 C     36  35  34     1.432372915794   127.05021664   176.98612007
 C     37  36  35     1.429422245559   120.76654700   180.57770712
 N     38  37  36     1.395696786161   108.44002782   173.27024850
 C     39  38  37     1.463481900503   128.56561413   202.09329753
 C     40  39  38     1.527230647578   113.86298842   238.77708592
 C     39  38  37     1.385351868985   107.66955457     1.68646130
 C     42  39  38     1.403828292135   109.72407099   359.46268714
 S     43  42  39     1.744204013125   113.30199692   182.06781621
 C     44  43  42     1.767747817535    89.57303915     0.75657224
 C     45  44  43     1.411466270444   112.77899163     0.70156061
 S     46  45  44     1.726592496045   111.16453350   177.19189757
 C     47  46  45     1.777366700318    91.26786097     1.50001843
 C     48  47  46     1.408687116999   112.02043934   358.88985803
 C     49  48  47     1.505292536419   125.88327156   187.43972597
 C     50  49  48     1.537542318702   114.76819550   231.30457841
 C     48  47  46     1.424192681487   114.72425114   184.33714062
 C     52  48  47     1.376044057362   135.15565802   203.38972806
 C     53  52  48     1.455550526124   135.65929039    16.50369531
 C     54  53  52     1.386462849520   126.23339108    22.21526562
 C     55  54  53     1.428056899322   122.68309284   181.23629037
 N     56  55  54     1.162752554459   178.50362715   101.51879865
 C     55  54  53     1.425913970371   121.99707348     6.56863352
 N     58  55  54     1.162513119883   178.60895877   122.92637968
 C     54  53  52     1.484108323573   107.57772804   191.41828299
 C     60  54  53     1.395903080769   131.66605157   173.73180124
 C     61  60  54     1.403340455556   117.08130833   174.63459849
 C     62  61  60     1.429184429596   123.16927728   359.05480805
 C     63  62  61     1.408761657272   118.74397131     1.80693911
 C     64  63  62     1.381605681734   117.91225598   359.45364338
 C     65  64  63     1.482744398270   127.45221513   179.32673980
 O     66  65  64     1.214449270616   127.14219184   359.12084531
 C     63  62  61     1.436181897881   112.38424627   181.61629152
 C     68  63  62     1.365582931132   111.99923282   359.48427154
 S     62  61  60     1.751352066205   125.80169256   180.15800666
 S      6   5   4     1.749375094484   111.26588336   179.98789356
 C     71   6   5     1.752222145420    90.59592380     0.42013452
 C     72  71   6     1.366259076566   113.93732948   359.61352873
 Br    72  71   6     1.874353511881   119.27129979   179.08916198
 Br    69  68  63     1.873473320360   126.72014090   180.03872082
 H      4   3   1     1.092222084514   120.24335513   358.53580593
 H      7   6   5     1.088674141054   120.57135383   180.63421483
 H     16  15   9     1.094770184742   117.26704988     7.42650389
 H     22  21  17     1.095035057384   109.69647427   344.30374937
 H     22  21  17     1.102440039413   108.32132291   228.87146634
 H     23  22  21     1.100840657134   110.54557812   297.49372600
 H     23  22  21     1.100650160996   110.44805649   178.09299302
 H     23  22  21     1.100550696152   112.11305783    57.92381770
 H     28  27  26     1.088661555259   109.80889301   158.22595972
 H     28  27  26     1.099985391767   106.69860936    44.03343524
 H     29  28  27     1.100978661873   110.73499112   298.63649297
 H     29  28  27     1.100566426255   110.44427300   178.82292988
 H     29  28  27     1.099920374754   110.97479870    58.86027826
 H     40  39  38     1.102166258284   107.36466291   117.34216673
 H     40  39  38     1.097310984452   107.75851317     3.83566266
 H     41  40  39     1.099146110670   112.01325149    57.00221023
 H     41  40  39     1.099562473487   111.38884698   297.01682904
 H     41  40  39     1.101208935716   109.75942929   177.55620726
 H     50  49  48     1.104917168886   106.95976985   111.05005350
 H     50  49  48     1.095941063242   109.82499939   356.56928687
 H     51  50  49     1.097021240496   112.04210050    55.09877604
 H     51  50  49     1.100172953221   111.58573067   295.16316568
 H     51  50  49     1.100133997702   110.26518026   175.76486906
 H     52  48  47     1.100336768858   114.12818900    26.46787811
 H     61  60  54     1.088648148990   122.38114666   355.17557426
 H     64  63  62     1.091749299839   121.88536284   179.57049708
 H     68  63  62     1.089601985039   124.26363511   179.69186675
 H     73  72  71     1.089470675971   123.70146689   179.64040378

---------------------------
INTERNAL COORDINATES (A.U.)
---------------------------
 C      0   0   0     0.000000000000     0.00000000     0.00000000
 O      1   0   0     2.295416260511     0.00000000     0.00000000
 C      1   2   0     2.811311974611   126.20124018     0.00000000
 C      3   1   2     2.611188350131   127.15124995     3.69253620
 C      4   3   1     2.664802592317   117.88886212   177.67074520
 C      5   4   3     2.701041005144   118.75067848     1.03750204
 C      6   5   4     2.646246349617   123.22456069   359.30774539
 C      7   6   5     2.637519205021   117.00595135   359.72305170
 C      8   7   6     2.789373599602   131.34553935   182.45991096
 C      9   8   7     2.613068562560   126.47948777   349.82264915
 C     10   9   8     2.700736935643   122.43354001     3.05592281
 N     11  10   9     2.196345867619   179.54008038    65.51088420
 C     10   9   8     2.704596059737   122.74278315   185.31803589
 N     13  10   9     2.196486111374   178.52880160   167.51317442
 C      9   8   7     2.765068190240   107.55699304   172.91501298
 C     15   9   8     2.598240469197   125.86643169   206.31535234
 C     16  15   9     2.700500786116   126.98070620   180.81627176
 S     17  16  15     3.359931870897   116.76584094   222.66824523
 C     18  17  16     3.266955575929    90.80524252   178.68481651
 C     19  18  17     2.662753874648   111.36715360     3.01310209
 C     17  16  15     2.648197334057   130.75924470    43.90759438
 C     21  17  16     2.838046370243   125.27623129     7.34202820
 C     22  21  17     2.903568173254   112.49935304   106.29184768
 S     20  19  18     3.338430100950   112.84492825   177.88124805
 C     24  20  19     3.299409063673    89.56196748     0.72188673
 C     25  24  20     2.648639656244   113.16945981     1.09579138
 N     26  25  24     2.618912959081   110.16248381   180.56743085
 C     27  26  25     2.766395735013   118.46290689   152.86793676
 C     28  27  26     2.879280937696   112.43965661   282.02704046
 C     27  26  25     2.646830613616   107.19096350     1.13404952
 C     25  24  20     2.676469774605   139.59908051   185.28131150
 C     31  25  24     2.708618984138   132.17391282     4.51935152
 N     32  31  25     2.505911073342   127.13608313   355.48332234
 S     33  32  31     3.129129078272   106.92608602   175.90383298
 N     34  33  32     3.129741711689    98.92969444     0.07294732
 C     35  34  33     2.505479636329   106.88249878     0.05242662
 C     36  35  34     2.706792532497   127.05021664   176.98612007
 C     37  36  35     2.701216573842   120.76654700   180.57770712
 N     38  37  36     2.637484691838   108.44002782   173.27024850
 C     39  38  37     2.765579993901   128.56561413   202.09329753
 C     40  39  38     2.886047667253   113.86298842   238.77708592
 C     39  38  37     2.617935631497   107.66955457     1.68646130
 C     42  39  38     2.652851011186   109.72407099   359.46268714
 S     43  42  39     3.296067906492   113.30199692   182.06781621
 C     44  43  42     3.340559248978    89.57303915     0.75657224
 C     45  44  43     2.667284698406   112.77899163     0.70156061
 S     46  45  44     3.262786962409   111.16453350   177.19189757
 C     47  46  45     3.358736303153    91.26786097     1.50001843
 C     48  47  46     2.662032859512   112.02043934   358.88985803
 C     49  48  47     2.844590645268   125.88327156   187.43972597
 C     50  49  48     2.905533901661   114.76819550   231.30457841
 C     48  47  46     2.691334129945   114.72425114   184.33714062
 C     52  48  47     2.600346416623   135.15565802   203.38972806
 C     53  52  48     2.750591868459   135.65929039    16.50369531
 C     54  53  52     2.620035080449   126.23339108    22.21526562
 C     55  54  53     2.698636443375   122.68309284   181.23629037
 N     56  55  54     2.197283889444   178.50362715   101.51879865
 C     55  54  53     2.694586894534   121.99707348     6.56863352
 N     58  55  54     2.196831423669   178.60895877   122.92637968
 C     54  53  52     2.804558284627   107.57772804   191.41828299
 C     60  54  53     2.637874532150   131.66605157   173.73180124
 C     61  60  54     2.651929133653   117.08130833   174.63459849
 C     62  61  60     2.700767166801   123.16927728   359.05480805
 C     63  62  61     2.662173720213   118.74397131     1.80693911
 C     64  63  62     2.610856363547   117.91225598   359.45364338
 C     65  64  63     2.801980839335   127.45221513   179.32673980
 O     66  65  64     2.294976525005   127.14219184   359.12084531
 C     63  62  61     2.713990465490   112.38424627   181.61629152
 C     68  63  62     2.580577752998   111.99923282   359.48427154
 S     62  61  60     3.309575769204   125.80169256   180.15800666
 S      6   5   4     3.305839834077   111.26588336   179.98789356
 C     71   6   5     3.311219980636    90.59592380     0.42013452
 C     72  71   6     2.581855482695   113.93732948   359.61352873
 Br    72  71   6     3.542014815608   119.27129979   179.08916198
 Br    69  68  63     3.540351494688   126.72014090   180.03872082
 H      4   3   1     2.064000617152   120.24335513   358.53580593
 H      7   6   5     2.057295975674   120.57135383   180.63421483
 H     16  15   9     2.068815828745   117.26704988     7.42650389
 H     22  21  17     2.069316365499   109.69647427   344.30374937
 H     22  21  17     2.083309753559   108.32132291   228.87146634
 H     23  22  21     2.080287359070   110.54557812   297.49372600
 H     23  22  21     2.079927373538   110.44805649   178.09299302
 H     23  22  21     2.079739412223   112.11305783    57.92381770
 H     28  27  26     2.057272191969   109.80889301   158.22595972
 H     28  27  26     2.078671141753   106.69860936    44.03343524
 H     29  28  27     2.080548150231   110.73499112   298.63649297
 H     29  28  27     2.079769137811   110.44427300   178.82292988
 H     29  28  27     2.078548277406   110.97479870    58.86027826
 H     40  39  38     2.082792382206   107.36466291   117.34216673
 H     40  39  38     2.073617244359   107.75851317     3.83566266
 H     41  40  39     2.077085130330   112.01325149    57.00221023
 H     41  40  39     2.077871942027   111.38884698   297.01682904
 H     41  40  39     2.080983304729   109.75942929   177.55620726
 H     50  49  48     2.087990849863   106.95976985   111.05005350
 H     50  49  48     2.071028468446   109.82499939   356.56928687
 H     51  50  49     2.073069707633   112.04210050    55.09877604
 H     51  50  49     2.079025581536   111.58573067   295.16316568
 H     51  50  49     2.078951966273   110.26518026   175.76486906
 H     52  48  47     2.079335148225   114.12818900    26.46787811
 H     61  60  54     2.057246857792   122.38114666   355.17557426
 H     64  63  62     2.063107183597   121.88536284   179.57049708
 H     68  63  62     2.059049346700   124.26363511   179.69186675
 H     73  72  71     2.058801208523   123.70146689   179.64040378

---------------------
BASIS SET INFORMATION
---------------------
There are 6 groups of distinct atoms

 Group   1 Type C   : 11s6p2d1f contracted to 5s3p2d1f pattern {62111/411/11/1}
 Group   2 Type O   : 11s6p2d1f contracted to 5s3p2d1f pattern {62111/411/11/1}
 Group   3 Type N   : 11s6p2d1f contracted to 5s3p2d1f pattern {62111/411/11/1}
 Group   4 Type S   : 14s9p3d1f contracted to 5s5p2d1f pattern {73211/51111/21/1}
 Group   5 Type Br  : 17s13p8d1f contracted to 6s5p4d1f pattern {842111/64111/5111/1}
 Group   6 Type H   : 5s1p contracted to 3s1p pattern {311/1}

Atom   0C    basis set group =>   1
Atom   1O    basis set group =>   2
Atom   2C    basis set group =>   1
Atom   3C    basis set group =>   1
Atom   4C    basis set group =>   1
Atom   5C    basis set group =>   1
Atom   6C    basis set group =>   1
Atom   7C    basis set group =>   1
Atom   8C    basis set group =>   1
Atom   9C    basis set group =>   1
Atom  10C    basis set group =>   1
Atom  11N    basis set group =>   3
Atom  12C    basis set group =>   1
Atom  13N    basis set group =>   3
Atom  14C    basis set group =>   1
Atom  15C    basis set group =>   1
Atom  16C    basis set group =>   1
Atom  17S    basis set group =>   4
Atom  18C    basis set group =>   1
Atom  19C    basis set group =>   1
Atom  20C    basis set group =>   1
Atom  21C    basis set group =>   1
Atom  22C    basis set group =>   1
Atom  23S    basis set group =>   4
Atom  24C    basis set group =>   1
Atom  25C    basis set group =>   1
Atom  26N    basis set group =>   3
Atom  27C    basis set group =>   1
Atom  28C    basis set group =>   1
Atom  29C    basis set group =>   1
Atom  30C    basis set group =>   1
Atom  31C    basis set group =>   1
Atom  32N    basis set group =>   3
Atom  33S    basis set group =>   4
Atom  34N    basis set group =>   3
Atom  35C    basis set group =>   1
Atom  36C    basis set group =>   1
Atom  37C    basis set group =>   1
Atom  38N    basis set group =>   3
Atom  39C    basis set group =>   1
Atom  40C    basis set group =>   1
Atom  41C    basis set group =>   1
Atom  42C    basis set group =>   1
Atom  43S    basis set group =>   4
Atom  44C    basis set group =>   1
Atom  45C    basis set group =>   1
Atom  46S    basis set group =>   4
Atom  47C    basis set group =>   1
Atom  48C    basis set group =>   1
Atom  49C    basis set group =>   1
Atom  50C    basis set group =>   1
Atom  51C    basis set group =>   1
Atom  52C    basis set group =>   1
Atom  53C    basis set group =>   1
Atom  54C    basis set group =>   1
Atom  55C    basis set group =>   1
Atom  56N    basis set group =>   3
Atom  57C    basis set group =>   1
Atom  58N    basis set group =>   3
Atom  59C    basis set group =>   1
Atom  60C    basis set group =>   1
Atom  61C    basis set group =>   1
Atom  62C    basis set group =>   1
Atom  63C    basis set group =>   1
Atom  64C    basis set group =>   1
Atom  65C    basis set group =>   1
Atom  66O    basis set group =>   2
Atom  67C    basis set group =>   1
Atom  68C    basis set group =>   1
Atom  69S    basis set group =>   4
Atom  70S    basis set group =>   4
Atom  71C    basis set group =>   1
Atom  72C    basis set group =>   1
Atom  73Br   basis set group =>   5
Atom  74Br   basis set group =>   5
Atom  75H    basis set group =>   6
Atom  76H    basis set group =>   6
Atom  77H    basis set group =>   6
Atom  78H    basis set group =>   6
Atom  79H    basis set group =>   6
Atom  80H    basis set group =>   6
Atom  81H    basis set group =>   6
Atom  82H    basis set group =>   6
Atom  83H    basis set group =>   6
Atom  84H    basis set group =>   6
Atom  85H    basis set group =>   6
Atom  86H    basis set group =>   6
Atom  87H    basis set group =>   6
Atom  88H    basis set group =>   6
Atom  89H    basis set group =>   6
Atom  90H    basis set group =>   6
Atom  91H    basis set group =>   6
Atom  92H    basis set group =>   6
Atom  93H    basis set group =>   6
Atom  94H    basis set group =>   6
Atom  95H    basis set group =>   6
Atom  96H    basis set group =>   6
Atom  97H    basis set group =>   6
Atom  98H    basis set group =>   6
Atom  99H    basis set group =>   6
Atom 100H    basis set group =>   6
Atom 101H    basis set group =>   6
Atom 102H    basis set group =>   6
---------------------------------
AUXILIARY/J BASIS SET INFORMATION
---------------------------------
There are 6 groups of distinct atoms

 Group   1 Type C   : 12s5p4d2f1g contracted to 6s4p3d1f1g pattern {711111/2111/211/2/1}
 Group   2 Type O   : 12s5p4d2f1g contracted to 6s4p3d1f1g pattern {711111/2111/211/2/1}
 Group   3 Type N   : 12s5p4d2f1g contracted to 6s4p3d1f1g pattern {711111/2111/211/2/1}
 Group   4 Type S   : 14s5p5d2f1g contracted to 8s4p3d1f1g pattern {71111111/2111/311/2/1}
 Group   5 Type Br  : 19s5p5d3f1g contracted to 8s4p3d2f1g pattern {121111111/2111/311/21/1}
 Group   6 Type H   : 5s2p1d contracted to 3s1p1d pattern {311/2/1}

Atom   0C    basis set group =>   1
Atom   1O    basis set group =>   2
Atom   2C    basis set group =>   1
Atom   3C    basis set group =>   1
Atom   4C    basis set group =>   1
Atom   5C    basis set group =>   1
Atom   6C    basis set group =>   1
Atom   7C    basis set group =>   1
Atom   8C    basis set group =>   1
Atom   9C    basis set group =>   1
Atom  10C    basis set group =>   1
Atom  11N    basis set group =>   3
Atom  12C    basis set group =>   1
Atom  13N    basis set group =>   3
Atom  14C    basis set group =>   1
Atom  15C    basis set group =>   1
Atom  16C    basis set group =>   1
Atom  17S    basis set group =>   4
Atom  18C    basis set group =>   1
Atom  19C    basis set group =>   1
Atom  20C    basis set group =>   1
Atom  21C    basis set group =>   1
Atom  22C    basis set group =>   1
Atom  23S    basis set group =>   4
Atom  24C    basis set group =>   1
Atom  25C    basis set group =>   1
Atom  26N    basis set group =>   3
Atom  27C    basis set group =>   1
Atom  28C    basis set group =>   1
Atom  29C    basis set group =>   1
Atom  30C    basis set group =>   1
Atom  31C    basis set group =>   1
Atom  32N    basis set group =>   3
Atom  33S    basis set group =>   4
Atom  34N    basis set group =>   3
Atom  35C    basis set group =>   1
Atom  36C    basis set group =>   1
Atom  37C    basis set group =>   1
Atom  38N    basis set group =>   3
Atom  39C    basis set group =>   1
Atom  40C    basis set group =>   1
Atom  41C    basis set group =>   1
Atom  42C    basis set group =>   1
Atom  43S    basis set group =>   4
Atom  44C    basis set group =>   1
Atom  45C    basis set group =>   1
Atom  46S    basis set group =>   4
Atom  47C    basis set group =>   1
Atom  48C    basis set group =>   1
Atom  49C    basis set group =>   1
Atom  50C    basis set group =>   1
Atom  51C    basis set group =>   1
Atom  52C    basis set group =>   1
Atom  53C    basis set group =>   1
Atom  54C    basis set group =>   1
Atom  55C    basis set group =>   1
Atom  56N    basis set group =>   3
Atom  57C    basis set group =>   1
Atom  58N    basis set group =>   3
Atom  59C    basis set group =>   1
Atom  60C    basis set group =>   1
Atom  61C    basis set group =>   1
Atom  62C    basis set group =>   1
Atom  63C    basis set group =>   1
Atom  64C    basis set group =>   1
Atom  65C    basis set group =>   1
Atom  66O    basis set group =>   2
Atom  67C    basis set group =>   1
Atom  68C    basis set group =>   1
Atom  69S    basis set group =>   4
Atom  70S    basis set group =>   4
Atom  71C    basis set group =>   1
Atom  72C    basis set group =>   1
Atom  73Br   basis set group =>   5
Atom  74Br   basis set group =>   5
Atom  75H    basis set group =>   6
Atom  76H    basis set group =>   6
Atom  77H    basis set group =>   6
Atom  78H    basis set group =>   6
Atom  79H    basis set group =>   6
Atom  80H    basis set group =>   6
Atom  81H    basis set group =>   6
Atom  82H    basis set group =>   6
Atom  83H    basis set group =>   6
Atom  84H    basis set group =>   6
Atom  85H    basis set group =>   6
Atom  86H    basis set group =>   6
Atom  87H    basis set group =>   6
Atom  88H    basis set group =>   6
Atom  89H    basis set group =>   6
Atom  90H    basis set group =>   6
Atom  91H    basis set group =>   6
Atom  92H    basis set group =>   6
Atom  93H    basis set group =>   6
Atom  94H    basis set group =>   6
Atom  95H    basis set group =>   6
Atom  96H    basis set group =>   6
Atom  97H    basis set group =>   6
Atom  98H    basis set group =>   6
Atom  99H    basis set group =>   6
Atom 100H    basis set group =>   6
Atom 101H    basis set group =>   6
Atom 102H    basis set group =>   6


           ************************************************************
           *        Program running with 6 parallel MPI-processes     *
           *              working on a common directory               *
           ************************************************************
------------------------------------------------------------------------------
                           ORCA GTO INTEGRAL CALCULATION
                           -- RI-GTO INTEGRALS CHOSEN --
------------------------------------------------------------------------------

                         BASIS SET STATISTICS AND STARTUP INFO

Gaussian basis set:
 # of primitive gaussian shells          ... 1755
 # of primitive gaussian functions       ... 3907
 # of contracted shells                  ...  961
 # of contracted basis functions         ... 2569
 Highest angular momentum                ...    3
 Maximum contraction depth               ...    8
Auxiliary gaussian basis set:
 # of primitive gaussian shells          ... 2063
 # of primitive gaussian functions       ... 5785
 # of contracted shells                  ... 1285
 # of contracted aux-basis functions     ... 4015
 Highest angular momentum                ...    4
 Maximum contraction depth               ...   12
Ratio of auxiliary to basis functions    ...  1.56
Integral package used                  ... LIBINT
 One Electron integrals                  ... done
 Ordering auxiliary basis shells         ... done
 Integral threshhold             Thresh  ...  2.500e-11
 Primitive cut-off               TCut    ...  2.500e-12
 Pre-screening matrix                    ... done
 Shell pair data                         ... 
 Ordering of the shell pairs             ... done (   0.065 sec) 142593 of 462241 pairs
 Determination of significant pairs      ... done (   0.001 sec)
 Creation of shell pair data             ... done (   0.022 sec)
 Storage of shell pair data              ... done (   0.087 sec)
 Shell pair data done in (   0.184 sec)
 Computing two index integrals           ... done
 Cholesky decomposition of the V-matrix  ... done


Timings:
 Total evaluation time                   ...  18.243 sec (  0.304 min)
 One electron matrix time                ...   3.982 sec (  0.066 min) = 21.8%
 Schwartz matrix evaluation time         ...   8.113 sec (  0.135 min) = 44.5%
 Two index repulsion integral time       ...   0.550 sec (  0.009 min) =  3.0%
 Cholesky decomposition of V             ...   5.393 sec (  0.090 min) = 29.6%
 Three index repulsion integral time     ...   0.003 sec (  0.000 min) =  0.0%



           ************************************************************
           *        Program running with 6 parallel MPI-processes     *
           *              working on a common directory               *
           ************************************************************
-------------------------------------------------------------------------------
                                 ORCA SCF
-------------------------------------------------------------------------------

------------
SCF SETTINGS
------------
Hamiltonian:
 Density Functional     Method          .... DFT(GTOs)
 Exchange Functional    Exchange        .... B88
   X-Alpha parameter    XAlpha          ....  0.666667
   Becke's b parameter  XBeta           ....  0.004200
 Correlation Functional Correlation     .... LYP
 LDA part of GGA corr.  LDAOpt          .... VWN-5
 Gradients option       PostSCFGGA      .... off
 Hybrid DFT is turned on
   Fraction HF Exchange ScalHFX         ....  0.200000
   Scaling of DF-GGA-X  ScalDFX         ....  0.720000
   Scaling of DF-GGA-C  ScalDFC         ....  0.810000
   Scaling of DF-LDA-C  ScalLDAC        ....  1.000000
   Perturbative correction              ....  0.000000
   Density functional embedding theory  .... OFF
   NL short-range parameter             ....  4.800000
 RI-approximation to the Coulomb term is turned on
   Number of auxiliary basis functions  .... 4015
   RIJ-COSX (HFX calculated with COS-X)).... on


General Settings:
 Integral files         IntName         .... BTTPC-Br
 Hartree-Fock type      HFTyp           .... RHF
 Total Charge           Charge          ....    0
 Multiplicity           Mult            ....    1
 Number of Electrons    NEL             ....  618
 Basis Dimension        Dim             .... 2569
 Nuclear Repulsion      ENuc            ....  13170.4371971243 Eh

Convergence Acceleration:
 DIIS                   CNVDIIS         .... on
   Start iteration      DIISMaxIt       ....    12
   Startup error        DIISStart       ....  0.200000
   # of expansion vecs  DIISMaxEq       ....     5
   Bias factor          DIISBfac        ....   1.050
   Max. coefficient     DIISMaxC        ....  10.000
 Newton-Raphson         CNVNR           .... off
 SOSCF                  CNVSOSCF        .... on
   Start iteration      SOSCFMaxIt      ....   150
   Startup grad/error   SOSCFStart      ....  0.003300
 Level Shifting         CNVShift        .... on
   Level shift para.    LevelShift      ....    0.2500
   Turn off err/grad.   ShiftErr        ....    0.0010
 Zerner damping         CNVZerner       .... off
 Static damping         CNVDamp         .... on
   Fraction old density DampFac         ....    0.7000
   Max. Damping (<1)    DampMax         ....    0.9800
   Min. Damping (>=0)   DampMin         ....    0.0000
   Turn off err/grad.   DampErr         ....    0.1000
 Fernandez-Rico         CNVRico         .... off

SCF Procedure:
 Maximum # iterations   MaxIter         ....   125
 SCF integral mode      SCFMode         .... Direct
   Integral package                     .... LIBINT
 Reset frequency        DirectResetFreq ....    20
 Integral Threshold     Thresh          ....  2.500e-11 Eh
 Primitive CutOff       TCut            ....  2.500e-12 Eh

Convergence Tolerance:
 Convergence Check Mode ConvCheckMode   .... Total+1el-Energy
 Convergence forced     ConvForced      .... 1
 Energy Change          TolE            ....  1.000e-08 Eh
 1-El. energy change                    ....  1.000e-05 Eh
 Orbital Gradient       TolG            ....  1.000e-05
 Orbital Rotation angle TolX            ....  1.000e-05
 DIIS Error             TolErr          ....  5.000e-07


Diagonalization of the overlap matrix:
Smallest eigenvalue                        ... 2.740e-06
Time for diagonalization                   ...   13.666 sec
Threshold for overlap eigenvalues          ... 1.000e-08
Number of eigenvalues below threshold      ... 0
Time for construction of square roots      ...    7.123 sec
Total time needed                          ...   20.804 sec

-------------------
DFT GRID GENERATION
-------------------

General Integration Accuracy     IntAcc      ...  4.670
Radial Grid Type                 RadialGrid  ... Gauss-Chebyshev
Angular Grid (max. acc.)         AngularGrid ... Lebedev-302
Angular grid pruning method      GridPruning ... 3 (G Style)
Weight generation scheme         WeightScheme... Becke
Basis function cutoff            BFCut       ...    1.0000e-11
Integration weight cutoff        WCut        ...    1.0000e-14
Grids for H and He will be reduced by one unit

# of grid points (after initial pruning)     ... 572178 (   0.0 sec)
# of grid points (after weights+screening)   ... 489822 (  11.5 sec)
nearest neighbour list constructed           ...    0.0 sec
Grid point re-assignment to atoms done       ...    0.1 sec
Grid point division into batches done        ...    3.9 sec
Reduced shell lists constructed in    6.9 sec

Total number of grid points                  ...   489822
Total number of batches                      ...     7706
Average number of points per batch           ...       63
Average number of grid points per atom       ...     4756
Average number of shells per batch           ...   160.80 (16.73%)
Average number of basis functions per batch  ...   421.55 (16.41%)
Average number of large shells per batch     ...   102.02 (63.45%)
Average number of large basis fcns per batch ...   270.53 (64.18%)
Maximum spatial batch extension              ...  17.15, 16.87, 20.35 au
Average spatial batch extension              ...   0.33,  0.32,  0.34 au

Time for grid setup =   20.847 sec

------------------------------
INITIAL GUESS: MODEL POTENTIAL
------------------------------
Loading Hartree-Fock densities                     ... done
Calculating cut-offs                               ... done
Setting up the integral package                    ... done
Initializing the effective Hamiltonian             ... done
Starting the Coulomb interaction                   ... done (   9.6 sec)
Reading the grid                                   ... done
Mapping shells                                     ... done
Starting the XC term evaluation                    ... done (   7.9 sec)
  promolecular density results
     # of electrons  =    617.986898680
     EX              =   -719.890427776
     EC              =    -23.106798898
     EX+EC           =   -742.997226675
Transforming the Hamiltonian                       ... done (   5.5 sec)
Diagonalizing the Hamiltonian                      ... done (  11.6 sec)
Back transforming the eigenvectors                 ... done (   0.8 sec)
Now organizing SCF variables                       ... done
                      ------------------
                      INITIAL GUESS DONE (  56.6 sec)
                      ------------------
--------------------
COSX GRID GENERATION
--------------------

General Integration Accuracy     IntAcc      ...  3.340
Radial Grid Type                 RadialGrid  ... Gauss-Chebyshev
Angular Grid (max. acc.)         AngularGrid ... Lebedev-50
Angular grid pruning method      GridPruning ... 3 (G Style)
Weight generation scheme         WeightScheme... Becke
Basis function cutoff            BFCut       ...    1.0000e-11
Integration weight cutoff        WCut        ...    1.0000e-14
Grids for H and He will be reduced by one unit

# of grid points (after initial pruning)     ...  54154 (   0.0 sec)
# of grid points (after weights+screening)   ...  48484 (   1.2 sec)
nearest neighbour list constructed           ...    0.0 sec
Grid point re-assignment to atoms done       ...    0.0 sec
Grid point division into batches done        ...    0.0 sec
Reduced shell lists constructed in    0.4 sec

Total number of grid points                  ...    48484
Total number of batches                      ...      816
Average number of points per batch           ...       59
Average number of grid points per atom       ...      471
Average number of shells per batch           ...   189.77 (19.75%)
Average number of basis functions per batch  ...   504.20 (19.63%)
Average number of large shells per batch     ...   121.74 (64.15%)
Average number of large basis fcns per batch ...   327.37 (64.93%)
Maximum spatial batch extension              ...  18.44, 17.58, 20.68 au
Average spatial batch extension              ...   0.66,  0.71,  0.81 au

Overlap Fitting                  UseSFitting ... on
Constructing numerical overlap ... done (      1.4 sec)
Inverting numerical overlap    ... done (      4.9 sec)
Obtaining analytic overlap     ... done (      0.0 sec)
Final contraction and storage  ... done (      7.1 sec)


General Integration Accuracy     IntAcc      ...  3.670
Radial Grid Type                 RadialGrid  ... Gauss-Chebyshev
Angular Grid (max. acc.)         AngularGrid ... Lebedev-50
Angular grid pruning method      GridPruning ... 3 (G Style)
Weight generation scheme         WeightScheme... Becke
Basis function cutoff            BFCut       ...    1.0000e-11
Integration weight cutoff        WCut        ...    1.0000e-14
Grids for H and He will be reduced by one unit

# of grid points (after initial pruning)     ...  67354 (   0.0 sec)
# of grid points (after weights+screening)   ...  60018 (   1.6 sec)
nearest neighbour list constructed           ...    0.0 sec
Grid point re-assignment to atoms done       ...    0.0 sec
Grid point division into batches done        ...    0.0 sec
Reduced shell lists constructed in    0.5 sec

Total number of grid points                  ...    60018
Total number of batches                      ...      989
Average number of points per batch           ...       60
Average number of grid points per atom       ...      583
Average number of shells per batch           ...   187.77 (19.54%)
Average number of basis functions per batch  ...   497.93 (19.38%)
Average number of large shells per batch     ...   120.45 (64.15%)
Average number of large basis fcns per batch ...   323.67 (65.00%)
Maximum spatial batch extension              ...  17.46, 16.47, 19.41 au
Average spatial batch extension              ...   0.61,  0.62,  0.71 au

Overlap Fitting                  UseSFitting ... on
Constructing numerical overlap ... done (      2.1 sec)
Inverting numerical overlap    ... done (      4.4 sec)
Obtaining analytic overlap     ... done (      0.0 sec)
Final contraction and storage  ... done (      6.7 sec)


General Integration Accuracy     IntAcc      ...  4.010
Radial Grid Type                 RadialGrid  ... Gauss-Chebyshev
Angular Grid (max. acc.)         AngularGrid ... Lebedev-110
Angular grid pruning method      GridPruning ... 3 (G Style)
Weight generation scheme         WeightScheme... Becke
Basis function cutoff            BFCut       ...    1.0000e-11
Integration weight cutoff        WCut        ...    1.0000e-14
Grids for H and He will be reduced by one unit

# of grid points (after initial pruning)     ... 132088 (   0.0 sec)
# of grid points (after weights+screening)   ... 116639 (   4.2 sec)
nearest neighbour list constructed           ...    0.0 sec
Grid point re-assignment to atoms done       ...    0.0 sec
Grid point division into batches done        ...    0.2 sec
Reduced shell lists constructed in    1.0 sec

Total number of grid points                  ...   116639
Total number of batches                      ...     1871
Average number of points per batch           ...       62
Average number of grid points per atom       ...     1132
Average number of shells per batch           ...   175.96 (18.31%)
Average number of basis functions per batch  ...   465.61 (18.12%)
Average number of large shells per batch     ...   112.94 (64.18%)
Average number of large basis fcns per batch ...   302.73 (65.02%)
Maximum spatial batch extension              ...  18.35, 19.88, 16.09 au
Average spatial batch extension              ...   0.53,  0.51,  0.56 au

Overlap Fitting                  UseSFitting ... on
Constructing numerical overlap ... done (      3.1 sec)
Inverting numerical overlap    ... done (      2.2 sec)
Obtaining analytic overlap     ... done (      0.0 sec)
Final contraction and storage  ... done (      7.1 sec)

Time for X-Grid setup             =   49.950 sec
--------------
SCF ITERATIONS
--------------
ITER       Energy         Delta-E        Max-DP      RMS-DP      [F,P]     Damp
               ***  Starting incremental Fock matrix formation  ***
  0 -10671.8446466804   0.000000000000 0.18227525  0.00094921  0.3000542 0.7000
  1 -10672.7670124646  -0.922365784185 0.17010327  0.00079788  0.0985797 0.7000
                               ***Turning on DIIS***
  2 -10673.0750371533  -0.308024688686 0.23072892  0.00109580  0.0456841 0.0000
  3 -10673.6025166914  -0.527479538059 0.19879996  0.00076542  0.0580526 0.0000
  4 -10673.7177912899  -0.115274598567 0.06039646  0.00026328  0.0380994 0.0000
  5 -10673.7331850672  -0.015393777274 0.02590677  0.00012213  0.0108525 0.0000
  6 -10673.7343763959  -0.001191328636 0.00849251  0.00003691  0.0036220 0.0000
                      *** Initiating the SOSCF procedure ***
                           *** Shutting down DIIS ***
                      *** Re-Reading the Fockian *** 
                      *** Removing any level shift *** 
ITER      Energy       Delta-E        Grad      Rot      Max-DP    RMS-DP
  7 -10673.73455564  -0.0001792482  0.000698  0.000698  0.005750  0.000023
               *** Restarting incremental Fock matrix formation ***
  8 -10673.73459973  -0.0000440845  0.000194  0.001493  0.009236  0.000059
  9 -10673.73456527   0.0000344555  0.000355  0.000894  0.001148  0.000007
 10 -10673.73461032  -0.0000450458  0.000096  0.001219  0.001167  0.000007
 11 -10673.73460753   0.0000027888  0.000134  0.000505  0.000574  0.000003
 12 -10673.73461121  -0.0000036807  0.000042  0.000408  0.000505  0.000003
 13 -10673.73461068   0.0000005358  0.000087  0.000318  0.000271  0.000002
 14 -10673.73461140  -0.0000007224  0.000008  0.000057  0.000343  0.000001
 15 -10673.73461123   0.0000001629  0.000016  0.000044  0.000318  0.000001
 16 -10673.73461147  -0.0000002387  0.000003  0.000032  0.000489  0.000001
 17 -10673.73461161  -0.0000001395  0.000007  0.000023  0.000290  0.000001
                  ***Gradient check signals convergence***
              ***Rediagonalizing the Fockian in SOSCF/NRSCF***

               *****************************************************
               *                     SUCCESS                       *
               *           SCF CONVERGED AFTER  18 CYCLES          *
               *****************************************************

Setting up the final grid:

General Integration Accuracy     IntAcc      ...  5.010
Radial Grid Type                 RadialGrid  ... Gauss-Chebyshev
Angular Grid (max. acc.)         AngularGrid ... Lebedev-434
Angular grid pruning method      GridPruning ... 3 (G Style)
Weight generation scheme         WeightScheme... Becke
Basis function cutoff            BFCut       ...    1.0000e-11
Integration weight cutoff        WCut        ...    1.0000e-14
Grids for H and He will be reduced by one unit

# of grid points (after initial pruning)     ... 1006996 (   0.1 sec)
# of grid points (after weights+screening)   ... 858739 (  18.8 sec)
nearest neighbour list constructed           ...    0.0 sec
Grid point re-assignment to atoms done       ...    0.2 sec
Grid point division into batches done        ...   12.3 sec
Reduced shell lists constructed in   17.4 sec

Total number of grid points                  ...   858739
Total number of batches                      ...    13468
Average number of points per batch           ...       63
Average number of grid points per atom       ...     8337
Average number of shells per batch           ...   156.39 (16.27%)
Average number of basis functions per batch  ...   408.23 (15.89%)
Average number of large shells per batch     ...    98.80 (63.17%)
Average number of large basis fcns per batch ...   261.02 (63.94%)
Maximum spatial batch extension              ...  18.93, 16.54, 19.33 au
Average spatial batch extension              ...   0.28,  0.27,  0.28 au

Final grid set up in   42.1 sec
Final integration                            ... done (  18.7 sec)
Change in XC energy                          ...    -0.000223439
Integrated number of electrons               ...   618.000103380
Previous integrated no of electrons          ...   618.000223902
Old exchange energy                            =   -144.769512362 Eh
New exchange energy                            =   -144.771679907 Eh
Exchange energy change after final integration =     -0.002167545 Eh
Total energy after final integration           = -10673.737002370 Eh
Final COS-X integration done in                =   527.554 sec

----------------
TOTAL SCF ENERGY
----------------

Total Energy       :       -10673.73700237 Eh         -290447.14988 eV

Components:
Nuclear Repulsion  :        13170.43719712 Eh          358385.81612 eV
Electronic Energy  :       -23844.17419949 Eh         -648832.96600 eV
One Electron Energy:       -40982.94472025 Eh        -1115202.62164 eV
Two Electron Energy:        17138.77052076 Eh          466369.65564 eV

Virial components:
Potential Energy   :       -21322.27336424 Eh         -580208.55547 eV
Kinetic Energy     :        10648.53636187 Eh          289761.40559 eV
Virial Ratio       :            2.00236658


DFT components:
N(Alpha)           :      309.000051690196 electrons
N(Beta)            :      309.000051690196 electrons
N(Total)           :      618.000103380392 electrons
E(X)               :     -575.702077917718 Eh       
E(C)               :      -27.080618955678 Eh       
E(XC)              :     -602.782696873397 Eh       
DFET-embed. en.    :        0.000000000000 Eh       

---------------
SCF CONVERGENCE
---------------

  Last Energy change         ...    2.2668e-07  Tolerance :   1.0000e-08
  Last MAX-Density change    ...    7.9936e-15  Tolerance :   1.0000e-07
  Last RMS-Density change    ...    1.6056e-17  Tolerance :   5.0000e-09
  Last Orbital Gradient      ...    1.8445e-06  Tolerance :   1.0000e-05
  Last Orbital Rotation      ...    5.0655e-06  Tolerance :   1.0000e-05

             **** THE GBW FILE WAS UPDATED (BTTPC-Br.gbw) ****
             **** DENSITY FILE WAS UPDATED (BTTPC-Br.scfp) ****
             **** ENERGY FILE WAS UPDATED (BTTPC-Br.en.tmp) ****
             **** THE GBW FILE WAS UPDATED (BTTPC-Br.gbw) ****
             **** DENSITY FILE WAS UPDATED (BTTPC-Br.scfp) ****
----------------
ORBITAL ENERGIES
----------------

  NO   OCC          E(Eh)            E(eV) 
   0   2.0000    -482.891054    -13140.1336 
   1   2.0000    -482.889668    -13140.0959 
   2   2.0000     -88.941812     -2420.2297 
   3   2.0000     -88.916193     -2419.5326 
   4   2.0000     -88.914823     -2419.4953 
   5   2.0000     -88.909754     -2419.3574 
   6   2.0000     -88.909452     -2419.3492 
   7   2.0000     -88.906367     -2419.2652 
   8   2.0000     -88.905776     -2419.2492 
   9   2.0000     -62.537963     -1701.7445 
  10   2.0000     -62.536602     -1701.7075 
  11   2.0000     -56.353572     -1533.4586 
  12   2.0000     -56.352206     -1533.4215 
  13   2.0000     -56.350943     -1533.3871 
  14   2.0000     -56.350881     -1533.3854 
  15   2.0000     -56.349582     -1533.3501 
  16   2.0000     -56.349524     -1533.3485 
  17   2.0000     -19.130898      -520.5782 
  18   2.0000     -19.127699      -520.4911 
  19   2.0000     -14.404704      -391.9719 
  20   2.0000     -14.401421      -391.8826 
  21   2.0000     -14.356587      -390.6626 
  22   2.0000     -14.356159      -390.6509 
  23   2.0000     -14.330934      -389.9645 
  24   2.0000     -14.330453      -389.9515 
  25   2.0000     -14.329229      -389.9181 
  26   2.0000     -14.329189      -389.9171 
  27   2.0000     -10.280237      -279.7395 
  28   2.0000     -10.278428      -279.6903 
  29   2.0000     -10.278423      -279.6901 
  30   2.0000     -10.273379      -279.5529 
  31   2.0000     -10.259975      -279.1881 
  32   2.0000     -10.259795      -279.1832 
  33   2.0000     -10.258047      -279.1357 
  34   2.0000     -10.257283      -279.1149 
  35   2.0000     -10.255933      -279.0781 
  36   2.0000     -10.255664      -279.0708 
  37   2.0000     -10.253610      -279.0149 
  38   2.0000     -10.247492      -278.8484 
  39   2.0000     -10.245002      -278.7807 
  40   2.0000     -10.244368      -278.7634 
  41   2.0000     -10.243871      -278.7499 
  42   2.0000     -10.242691      -278.7178 
  43   2.0000     -10.242617      -278.7158 
  44   2.0000     -10.241537      -278.6864 
  45   2.0000     -10.241169      -278.6764 
  46   2.0000     -10.240847      -278.6676 
  47   2.0000     -10.238855      -278.6134 
  48   2.0000     -10.235130      -278.5120 
  49   2.0000     -10.233861      -278.4775 
  50   2.0000     -10.231410      -278.4108 
  51   2.0000     -10.230912      -278.3973 
  52   2.0000     -10.230902      -278.3970 
  53   2.0000     -10.230365      -278.3824 
  54   2.0000     -10.229577      -278.3610 
  55   2.0000     -10.229326      -278.3541 
  56   2.0000     -10.229007      -278.3454 
  57   2.0000     -10.228539      -278.3327 
  58   2.0000     -10.228079      -278.3202 
  59   2.0000     -10.227725      -278.3106 
  60   2.0000     -10.227259      -278.2979 
  61   2.0000     -10.226276      -278.2711 
  62   2.0000     -10.226188      -278.2687 
  63   2.0000     -10.225153      -278.2405 
  64   2.0000     -10.223510      -278.1958 
  65   2.0000     -10.219999      -278.1003 
  66   2.0000     -10.219052      -278.0745 
  67   2.0000     -10.217784      -278.0400 
  68   2.0000     -10.217381      -278.0291 
  69   2.0000     -10.215840      -277.9871 
  70   2.0000     -10.215657      -277.9822 
  71   2.0000     -10.214595      -277.9533 
  72   2.0000     -10.214114      -277.9402 
  73   2.0000     -10.213965      -277.9361 
  74   2.0000     -10.212938      -277.9082 
  75   2.0000     -10.210506      -277.8420 
  76   2.0000     -10.208188      -277.7789 
  77   2.0000     -10.201219      -277.5893 
  78   2.0000     -10.199515      -277.5429 
  79   2.0000     -10.194980      -277.4195 
  80   2.0000     -10.189548      -277.2717 
  81   2.0000     -10.176230      -276.9093 
  82   2.0000     -10.173106      -276.8243 
  83   2.0000      -8.728909      -237.5257 
  84   2.0000      -8.727566      -237.4891 
  85   2.0000      -8.012291      -218.0255 
  86   2.0000      -7.992003      -217.4735 
  87   2.0000      -7.990599      -217.4353 
  88   2.0000      -7.985582      -217.2987 
  89   2.0000      -7.985429      -217.2946 
  90   2.0000      -7.981297      -217.1821 
  91   2.0000      -7.980665      -217.1649 
  92   2.0000      -6.558815      -178.4744 
  93   2.0000      -6.557474      -178.4379 
  94   2.0000      -6.547276      -178.1604 
  95   2.0000      -6.546873      -178.1495 
  96   2.0000      -6.545940      -178.1241 
  97   2.0000      -6.545515      -178.1125 
  98   2.0000      -5.977040      -162.6435 
  99   2.0000      -5.969967      -162.4511 
 100   2.0000      -5.968707      -162.4168 
 101   2.0000      -5.954931      -162.0419 
 102   2.0000      -5.953534      -162.0039 
 103   2.0000      -5.950824      -161.9301 
 104   2.0000      -5.949433      -161.8923 
 105   2.0000      -5.948390      -161.8639 
 106   2.0000      -5.948193      -161.8586 
 107   2.0000      -5.948095      -161.8559 
 108   2.0000      -5.946675      -161.8172 
 109   2.0000      -5.944581      -161.7603 
 110   2.0000      -5.944383      -161.7549 
 111   2.0000      -5.944353      -161.7541 
 112   2.0000      -5.943702      -161.7363 
 113   2.0000      -5.941708      -161.6821 
 114   2.0000      -5.941589      -161.6788 
 115   2.0000      -5.940575      -161.6513 
 116   2.0000      -5.939944      -161.6341 
 117   2.0000      -5.937004      -161.5541 
 118   2.0000      -5.936395      -161.5375 
 119   2.0000      -2.673453       -72.7484 
 120   2.0000      -2.672118       -72.7120 
 121   2.0000      -2.670142       -72.6583 
 122   2.0000      -2.669803       -72.6490 
 123   2.0000      -2.668749       -72.6204 
 124   2.0000      -2.668513       -72.6139 
 125   2.0000      -2.660338       -72.3915 
 126   2.0000      -2.660324       -72.3911 
 127   2.0000      -2.658991       -72.3548 
 128   2.0000      -2.658985       -72.3547 
 129   2.0000      -1.059156       -28.8211 
 130   2.0000      -1.055428       -28.7196 
 131   2.0000      -1.032956       -28.1082 
 132   2.0000      -1.020082       -27.7578 
 133   2.0000      -1.017750       -27.6944 
 134   2.0000      -0.936940       -25.4954 
 135   2.0000      -0.936138       -25.4736 
 136   2.0000      -0.928583       -25.2680 
 137   2.0000      -0.928014       -25.2525 
 138   2.0000      -0.926414       -25.2090 
 139   2.0000      -0.925212       -25.1763 
 140   2.0000      -0.916898       -24.9501 
 141   2.0000      -0.916425       -24.9372 
 142   2.0000      -0.904529       -24.6135 
 143   2.0000      -0.902427       -24.5563 
 144   2.0000      -0.899286       -24.4708 
 145   2.0000      -0.882274       -24.0079 
 146   2.0000      -0.872403       -23.7393 
 147   2.0000      -0.864832       -23.5333 
 148   2.0000      -0.858848       -23.3704 
 149   2.0000      -0.855933       -23.2911 
 150   2.0000      -0.830689       -22.6042 
 151   2.0000      -0.827332       -22.5128 
 152   2.0000      -0.826103       -22.4794 
 153   2.0000      -0.817582       -22.2475 
 154   2.0000      -0.814937       -22.1756 
 155   2.0000      -0.812602       -22.1120 
 156   2.0000      -0.809744       -22.0343 
 157   2.0000      -0.806595       -21.9486 
 158   2.0000      -0.804655       -21.8958 
 159   2.0000      -0.803361       -21.8606 
 160   2.0000      -0.781294       -21.2601 
 161   2.0000      -0.781005       -21.2522 
 162   2.0000      -0.775605       -21.1053 
 163   2.0000      -0.767526       -20.8854 
 164   2.0000      -0.753470       -20.5030 
 165   2.0000      -0.750265       -20.4157 
 166   2.0000      -0.749796       -20.4030 
 167   2.0000      -0.748449       -20.3663 
 168   2.0000      -0.737992       -20.0818 
 169   2.0000      -0.726387       -19.7660 
 170   2.0000      -0.724033       -19.7019 
 171   2.0000      -0.716658       -19.5013 
 172   2.0000      -0.699968       -19.0471 
 173   2.0000      -0.686215       -18.6729 
 174   2.0000      -0.679589       -18.4926 
 175   2.0000      -0.678986       -18.4761 
 176   2.0000      -0.675321       -18.3764 
 177   2.0000      -0.673292       -18.3212 
 178   2.0000      -0.652381       -17.7522 
 179   2.0000      -0.648451       -17.6452 
 180   2.0000      -0.645056       -17.5529 
 181   2.0000      -0.641722       -17.4621 
 182   2.0000      -0.631529       -17.1848 
 183   2.0000      -0.624853       -17.0031 
 184   2.0000      -0.622434       -16.9373 
 185   2.0000      -0.614372       -16.7179 
 186   2.0000      -0.611222       -16.6322 
 187   2.0000      -0.606652       -16.5079 
 188   2.0000      -0.596191       -16.2232 
 189   2.0000      -0.589449       -16.0397 
 190   2.0000      -0.585848       -15.9417 
 191   2.0000      -0.584932       -15.9168 
 192   2.0000      -0.581643       -15.8273 
 193   2.0000      -0.577524       -15.7152 
 194   2.0000      -0.564583       -15.3631 
 195   2.0000      -0.556477       -15.1425 
 196   2.0000      -0.556041       -15.1306 
 197   2.0000      -0.547805       -14.9065 
 198   2.0000      -0.546177       -14.8622 
 199   2.0000      -0.540382       -14.7045 
 200   2.0000      -0.536413       -14.5965 
 201   2.0000      -0.525012       -14.2863 
 202   2.0000      -0.524603       -14.2752 
 203   2.0000      -0.521325       -14.1860 
 204   2.0000      -0.518134       -14.0992 
 205   2.0000      -0.511151       -13.9091 
 206   2.0000      -0.508016       -13.8238 
 207   2.0000      -0.506583       -13.7848 
 208   2.0000      -0.501671       -13.6512 
 209   2.0000      -0.499987       -13.6053 
 210   2.0000      -0.489734       -13.3263 
 211   2.0000      -0.484601       -13.1867 
 212   2.0000      -0.480714       -13.0809 
 213   2.0000      -0.479585       -13.0502 
 214   2.0000      -0.475253       -12.9323 
 215   2.0000      -0.472113       -12.8468 
 216   2.0000      -0.469655       -12.7800 
 217   2.0000      -0.469124       -12.7655 
 218   2.0000      -0.466734       -12.7005 
 219   2.0000      -0.463840       -12.6217 
 220   2.0000      -0.463487       -12.6121 
 221   2.0000      -0.459738       -12.5101 
 222   2.0000      -0.458370       -12.4729 
 223   2.0000      -0.456777       -12.4295 
 224   2.0000      -0.455964       -12.4074 
 225   2.0000      -0.455206       -12.3868 
 226   2.0000      -0.449376       -12.2282 
 227   2.0000      -0.448111       -12.1937 
 228   2.0000      -0.441411       -12.0114 
 229   2.0000      -0.441311       -12.0087 
 230   2.0000      -0.440749       -11.9934 
 231   2.0000      -0.436075       -11.8662 
 232   2.0000      -0.434331       -11.8188 
 233   2.0000      -0.433036       -11.7835 
 234   2.0000      -0.431632       -11.7453 
 235   2.0000      -0.429077       -11.6758 
 236   2.0000      -0.428391       -11.6571 
 237   2.0000      -0.426745       -11.6123 
 238   2.0000      -0.424790       -11.5591 
 239   2.0000      -0.423357       -11.5201 
 240   2.0000      -0.420338       -11.4380 
 241   2.0000      -0.419682       -11.4201 
 242   2.0000      -0.415701       -11.3118 
 243   2.0000      -0.414660       -11.2835 
 244   2.0000      -0.413487       -11.2516 
 245   2.0000      -0.410611       -11.1733 
 246   2.0000      -0.408528       -11.1166 
 247   2.0000      -0.407665       -11.0931 
 248   2.0000      -0.403325       -10.9750 
 249   2.0000      -0.400488       -10.8978 
 250   2.0000      -0.399241       -10.8639 
 251   2.0000      -0.395597       -10.7647 
 252   2.0000      -0.393672       -10.7124 
[...]
   295a -> 309a  :     0.016831 (c=  0.12973580)
   296a -> 310a  :     0.017295 (c=  0.13150920)
   297a -> 309a  :     0.088114 (c= -0.29683931)
   298a -> 309a  :     0.220519 (c=  0.46959408)
   298a -> 310a  :     0.571388 (c=  0.75590203)
   298a -> 312a  :     0.014874 (c=  0.12196050)

STATE 45:  E=   0.142521 au      3.878 eV    31279.7 cm**-1
   295a -> 309a  :     0.123580 (c= -0.35153968)
   296a -> 309a  :     0.078599 (c=  0.28035512)
   296a -> 310a  :     0.012113 (c= -0.11005712)
   297a -> 309a  :     0.132132 (c= -0.36349992)
   297a -> 310a  :     0.350530 (c=  0.59205586)
   298a -> 309a  :     0.031348 (c= -0.17705263)
   298a -> 310a  :     0.019709 (c=  0.14038912)
   300a -> 311a  :     0.017402 (c= -0.13191506)
   302a -> 311a  :     0.025758 (c= -0.16049401)
   302a -> 312a  :     0.020919 (c=  0.14463553)
   308a -> 315a  :     0.012857 (c=  0.11338888)
   308a -> 316a  :     0.018803 (c=  0.13712497)
   308a -> 317a  :     0.051307 (c=  0.22650951)

STATE 46:  E=   0.143035 au      3.892 eV    31392.6 cm**-1
   293a -> 309a  :     0.056761 (c= -0.23824614)
   294a -> 309a  :     0.016318 (c= -0.12774070)
   295a -> 309a  :     0.178099 (c=  0.42201776)
   296a -> 310a  :     0.407027 (c=  0.63798655)
   297a -> 310a  :     0.184215 (c=  0.42920295)
   298a -> 309a  :     0.012934 (c= -0.11372912)
   298a -> 310a  :     0.015164 (c= -0.12314172)
   307a -> 313a  :     0.013368 (c= -0.11561907)
   308a -> 316a  :     0.011794 (c=  0.10860161)
   308a -> 317a  :     0.013966 (c= -0.11817613)

STATE 47:  E=   0.143875 au      3.915 eV    31576.9 cm**-1
   296a -> 309a  :     0.021399 (c=  0.14628349)
   296a -> 310a  :     0.010456 (c=  0.10225432)
   297a -> 310a  :     0.020341 (c=  0.14262282)
   297a -> 311a  :     0.024122 (c= -0.15531267)
   299a -> 310a  :     0.013800 (c=  0.11747207)
   299a -> 311a  :     0.033794 (c= -0.18383270)
   299a -> 312a  :     0.011701 (c=  0.10817037)
   302a -> 311a  :     0.283357 (c=  0.53231268)
   302a -> 312a  :     0.044521 (c=  0.21099978)
   303a -> 312a  :     0.029329 (c=  0.17125570)
   304a -> 312a  :     0.010786 (c=  0.10385462)
   308a -> 316a  :     0.334923 (c= -0.57872491)

STATE 48:  E=   0.145667 au      3.964 eV    31970.1 cm**-1
   293a -> 309a  :     0.018931 (c= -0.13759092)
   294a -> 309a  :     0.025000 (c= -0.15811422)
   294a -> 310a  :     0.017969 (c=  0.13405028)
   295a -> 309a  :     0.208207 (c= -0.45629737)
   296a -> 309a  :     0.014385 (c= -0.11993863)
   296a -> 310a  :     0.184842 (c=  0.42993233)
   297a -> 309a  :     0.037249 (c=  0.19299895)
   297a -> 310a  :     0.048676 (c= -0.22062710)
   299a -> 311a  :     0.022356 (c=  0.14951920)
   300a -> 311a  :     0.100535 (c= -0.31707203)
   300a -> 312a  :     0.043339 (c= -0.20818100)
   301a -> 311a  :     0.023552 (c=  0.15346580)
   301a -> 312a  :     0.015756 (c= -0.12552188)
   302a -> 311a  :     0.035269 (c=  0.18780139)
   304a -> 313a  :     0.087353 (c=  0.29555478)
   308a -> 316a  :     0.013045 (c=  0.11421319)
   308a -> 317a  :     0.015299 (c=  0.12369022)

STATE 49:  E=   0.146249 au      3.980 eV    32097.9 cm**-1
   294a -> 309a  :     0.038431 (c=  0.19603897)
   300a -> 312a  :     0.046868 (c=  0.21649067)
   301a -> 311a  :     0.506619 (c=  0.71177203)
   302a -> 311a  :     0.047637 (c=  0.21826015)
   304a -> 312a  :     0.011750 (c=  0.10839773)
   304a -> 313a  :     0.178371 (c= -0.42233987)
   308a -> 316a  :     0.012750 (c=  0.11291399)

STATE 50:  E=   0.146710 au      3.992 eV    32199.2 cm**-1
   295a -> 309a  :     0.101591 (c= -0.31873284)
   295a -> 310a  :     0.017082 (c= -0.13069690)
   296a -> 310a  :     0.078977 (c=  0.28102794)
   299a -> 311a  :     0.039959 (c=  0.19989799)
   299a -> 312a  :     0.011826 (c= -0.10874547)
   300a -> 311a  :     0.037103 (c=  0.19262177)
   301a -> 311a  :     0.025142 (c= -0.15856274)
   301a -> 312a  :     0.035628 (c=  0.18875375)
   302a -> 309a  :     0.011866 (c=  0.10892892)
   302a -> 311a  :     0.105250 (c= -0.32442186)
   303a -> 313a  :     0.032282 (c=  0.17967264)
   304a -> 313a  :     0.130611 (c= -0.36140133)
   308a -> 316a  :     0.221663 (c= -0.47081098)


-----------------------------
TD-DFT/TDA-EXCITATION SPECTRA
-----------------------------

Center of mass = ( -6.8228, 15.1639,  0.2016)
Calculating the Dipole integrals                  ... done
Transforming integrals                            ... done
Calculating the Linear Momentum integrals         ... done
Transforming integrals                            ... done
Calculating angular momentum integrals            ... done
Transforming integrals                            ... done

-----------------------------------------------------------------------------
         ABSORPTION SPECTRUM VIA TRANSITION ELECTRIC DIPOLE MOMENTS
-----------------------------------------------------------------------------
State   Energy    Wavelength  fosc         T2        TX        TY        TZ  
        (cm-1)      (nm)                 (au**2)    (au)      (au)      (au) 
-----------------------------------------------------------------------------
   1   14324.2    698.1   2.425963425  55.75560   0.02117   7.45892   0.34588
   2   16200.3    617.3   0.074794532   1.51993   0.10585  -0.29687   1.19189
   3   19098.1    523.6   0.460452185   7.93727  -0.00354   2.81571   0.09490
   4   19543.9    511.7   0.016356082   0.27551   0.06263   0.04510   0.51919
   5   19876.8    503.1   0.046545632   0.77092  -0.32268  -0.77062  -0.27007
   6   20531.4    487.1   0.090238509   1.44694   0.03073  -1.15967  -0.31806
   7   21394.2    467.4   0.152403351   2.34516   0.00082  -1.50780  -0.26779
   8   21582.8    463.3   0.199759681   3.04702   0.36744   0.07541   1.70479
   9   22009.6    454.3   0.022104417   0.33063  -0.17415   0.09804  -0.53916
  10   22508.9    444.3   0.095310875   1.39400  -0.22545   1.15096   0.13589
  11   23008.9    434.6   0.032497295   0.46497   0.04955  -0.59157   0.33551
  12   23115.8    432.6   0.064373766   0.91680   0.74085   0.55819   0.23741
  13   23483.6    425.8   0.054379498   0.76233   0.79877  -0.34142  -0.08796
  14   24911.9    401.4   0.014557567   0.19238   0.19830  -0.39022  -0.02793
  15   25003.4    399.9   0.023368228   0.30768   0.15394   0.51269   0.14537
  16   25201.7    396.8   0.033107572   0.43249   0.54052  -0.34486  -0.14628
  17   25377.9    394.0   0.008374498   0.10864   0.28214  -0.11934   0.12163
  18   25428.0    393.3   0.016155339   0.20916   0.03699  -0.08697  -0.44747
  19   25712.4    388.9   0.003514243   0.04500   0.13867   0.09891   0.12642
  20   25937.5    385.5   0.003435931   0.04361  -0.09427  -0.13260   0.13093
  21   26036.1    384.1   0.048939627   0.61882   0.12978   0.77504  -0.03575
  22   26176.4    382.0   0.040044611   0.50363  -0.68392   0.05141  -0.18231
  23   26346.5    379.6   0.009683739   0.12100   0.16218  -0.30734   0.01558
  24   26511.9    377.2   0.028869375   0.35849  -0.12894  -0.21025  -0.54558
  25   27046.6    369.7   0.467080837   5.68532   0.09717  -2.36944  -0.24828
  26   27361.9    365.5   0.008312633   0.10002  -0.02759  -0.31493  -0.00865
  27   27699.7    361.0   0.031659184   0.37627  -0.04097   0.54398  -0.28049
  28   27742.8    360.5   0.100266692   1.18982  -0.14381   1.01632  -0.36911
  29   27935.3    358.0   0.023540065   0.27741   0.27699  -0.03281   0.44678
  30   28182.5    354.8   0.021690361   0.25337   0.21758   0.37848  -0.25057
  31   28317.9    353.1   0.052347107   0.60856  -0.53091  -0.26282  -0.50756
  32   28430.4    351.7   0.145725463   1.68744   1.12279   0.24706   0.60478
  33   28612.9    349.5   0.011034380   0.12696  -0.06403  -0.08697  -0.33955
  34   28839.0    346.8   0.078445954   0.89550  -0.05867   0.13338   0.93502
  35   28941.2    345.5   0.075185190   0.85525  -0.63988  -0.63043  -0.21990
  36   29009.4    344.7   0.105298527   1.19498   0.69809  -0.71290   0.44657
  37   29241.1    342.0   0.092033396   1.03616   0.10010   0.64507   0.78104
  38   29523.6    338.7   0.159368534   1.77709  -0.27312  -1.28678  -0.21607
  39   29842.7    335.1   0.023012864   0.25387  -0.10023   0.43017   0.24244
  40   29953.5    333.9   0.210278329   2.31112   1.44862   0.08076  -0.45397
  41   30082.1    332.4   0.201076224   2.20053   1.41534   0.38712  -0.21794
  42   30265.1    330.4   0.020577427   0.22383  -0.37838   0.15214   0.23982
  43   30547.4    327.4   0.046936635   0.50584  -0.45503  -0.54563  -0.03283
  44   30748.4    325.2   0.007535359   0.08068  -0.12896  -0.25121   0.03069
  45   31279.7    319.7   0.017365715   0.18277   0.40551   0.09121  -0.10007
  46   31392.6    318.5   0.019649349   0.20606  -0.01865  -0.31773   0.32367
  47   31576.9    316.7   0.296231061   3.08842  -0.38163   1.65622   0.44689
  48   31970.1    312.8   0.001120119   0.01153   0.01873   0.07144   0.07797
  49   32097.9    311.5   0.024163079   0.24783   0.25233  -0.39463   0.16860
  50   32199.2    310.6   0.013943055   0.14256   0.27470  -0.03258   0.25697

-----------------------------------------------------------------------------
         ABSORPTION SPECTRUM VIA TRANSITION VELOCITY DIPOLE MOMENTS
-----------------------------------------------------------------------------
State   Energy    Wavelength   fosc        P2         PX        PY        PZ  
        (cm-1)      (nm)                 (au**2)     (au)      (au)      (au) 
-----------------------------------------------------------------------------
   1   14324.2    698.1   0.836837947   0.08193   0.01704  -0.28544  -0.01256
   2   16200.3    617.3   0.037822785   0.00419  -0.04860   0.01250   0.04086
   3   19098.1    523.6   0.221783449   0.02895   0.01267  -0.16965  -0.00250
   4   19543.9    511.7   0.107587113   0.01437   0.01902  -0.02270   0.11616
   5   19876.8    503.1   0.050400295   0.00685  -0.03951   0.06080  -0.03987
   6   20531.4    487.1   0.023224499   0.00326   0.00747   0.05267  -0.02070
   7   21394.2    467.4   0.025233551   0.00369   0.02550   0.05331   0.01404
   8   21582.8    463.3   0.027947846   0.00412  -0.06348   0.00086  -0.00958
   9   22009.6    454.3   0.008840711   0.00133   0.01177   0.03419   0.00477
  10   22508.9    444.3   0.104493962   0.01608   0.00119  -0.12539  -0.01875
  11   23008.9    434.6   0.017253883   0.00271  -0.01940   0.03907  -0.02847
  12   23115.8    432.6   0.005611758   0.00089  -0.00108  -0.00793  -0.02868
  13   23483.6    425.8   0.006984782   0.00112  -0.02375  -0.00837   0.02206
  14   24911.9    401.4   0.004809952   0.00082   0.00563   0.01455   0.02399
  15   25003.4    399.9   0.010728176   0.00183  -0.01908  -0.03349  -0.01864
  16   25201.7    396.8   0.003344893   0.00058  -0.01489   0.01700   0.00807
  17   25377.9    394.0   0.013752749   0.00239   0.02776   0.00592   0.03974
  18   25428.0    393.3   0.018712753   0.00325   0.00372   0.01447  -0.05504
  19   25712.4    388.9   0.006637984   0.00117  -0.01639  -0.02729  -0.01237
  20   25937.5    385.5   0.001422454   0.00025  -0.01191   0.00531  -0.00906
  21   26036.1    384.1   0.011987474   0.00213  -0.00147  -0.04186  -0.01945
  22   26176.4    382.0   0.010201444   0.00183   0.02239  -0.01317   0.03391
  23   26346.5    379.6   0.020289561   0.00365  -0.00273   0.02057   0.05677
  24   26511.9    377.2   0.007613437   0.00138   0.00935   0.03585   0.00256
  25   27046.6    369.7   0.308970758   0.05711  -0.00649   0.23869   0.01002
  26   27361.9    365.5   0.002576195   0.00048  -0.01713   0.01336  -0.00315
  27   27699.7    361.0   0.008743043   0.00166   0.01795  -0.03423   0.01270
  28   27742.8    360.5   0.081475916   0.01545   0.03479  -0.11827   0.01585
  29   27935.3    358.0   0.001080925   0.00021   0.00139   0.00329  -0.01392
  30   28182.5    354.8   0.014651077   0.00282  -0.01004  -0.05156  -0.00792
  31   28317.9    353.1   0.001973885   0.00038   0.00042   0.01718   0.00932
  32   28430.4    351.7   0.007166802   0.00139  -0.00109   0.00726  -0.03659
  33   28612.9    349.5   0.002375143   0.00046  -0.02094  -0.00014  -0.00509
  34   28839.0    346.8   0.006798189   0.00134   0.00797  -0.02603   0.02447
  35   28941.2    345.5   0.038316893   0.00758  -0.00580   0.08018  -0.03341
  36   29009.4    344.7   0.025959431   0.00515  -0.00184   0.06969   0.01694
  37   29241.1    342.0   0.036558381   0.00731   0.02461  -0.07624   0.02980
  38   29523.6    338.7   0.109151560   0.02202  -0.01619   0.14580   0.02247
  39   29842.7    335.1   0.007444515   0.00152   0.02392  -0.02876   0.01090
  40   29953.5    333.9   0.010161570   0.00208  -0.00939   0.01832  -0.04070
  41   30082.1    332.4   0.003917516   0.00081   0.01093  -0.00489  -0.02573
  42   30265.1    330.4   0.010304171   0.00213   0.00915  -0.02730   0.03609
  43   30547.4    327.4   0.011934363   0.00249  -0.00671   0.04484   0.02089
  44   30748.4    325.2   0.007395017   0.00155   0.00209   0.03677  -0.01406
  45   31279.7    319.7   0.001157428   0.00025  -0.00480  -0.01082   0.01036
  46   31392.6    318.5   0.005192424   0.00111  -0.00073   0.03294   0.00536
  47   31576.9    316.7   0.144025634   0.03108   0.03759  -0.17105  -0.02027
  48   31970.1    312.8   0.004627927   0.00101  -0.03162  -0.00314  -0.00117
  49   32097.9    311.5   0.002917571   0.00064   0.00673   0.01903   0.01525
  50   32199.2    310.6   0.003614468   0.00080  -0.01678  -0.00671   0.02165

-------------------------------------------------------------------
                             CD SPECTRUM
-------------------------------------------------------------------
State  Energy     Wavelength     R         MX        MY        MZ   
       (cm-1)       (nm)     (1e40*cgs)   (au)      (au)      (au)  
-------------------------------------------------------------------
   1   14324.2    698.1    -608.23224   0.17777  -0.13891  -0.74524
   2   16200.3    617.3    138.64182   0.05748  -0.02299   0.23590
   3   19098.1    523.6    -16.39679   0.19782  -0.01176  -0.01025
   4   19543.9    511.7      7.03210  -0.08547  -0.07650   0.04569
   5   19876.8    503.1    -49.01601   0.21395   0.09469  -0.14084
   6   20531.4    487.1    -86.90888  -0.75942   0.10590   0.12007
   7   21394.2    467.4    -87.32761   0.07143   0.08352   0.22163
   8   21582.8    463.3    382.38042  -0.23998  -0.03339   0.52896
   9   22009.6    454.3     25.75231   0.21702  -0.02003  -0.17505
  10   22508.9    444.3    -70.51103   0.17264  -0.05530  -0.34586
  11   23008.9    434.6     15.60402  -0.21225   0.02815   0.17964
  12   23115.8    432.6    126.70905   0.26740   0.08108   0.10698
  13   23483.6    425.8     48.73844   0.12490  -0.04350   0.12782
  14   24911.9    401.4     -3.86850  -0.12439  -0.06789   0.35913
  15   25003.4    399.9      3.68649   0.17668  -0.00784  -0.10564
  16   25201.7    396.8     19.64440   0.17425   0.05408   0.23155
  17   25377.9    394.0     22.72570   0.02931  -0.05483   0.27452
  18   25428.0    393.3    -22.33404  -0.12055   0.08747   0.07890
  19   25712.4    388.9      0.13794  -0.04207  -0.03457   0.07551
  20   25937.5    385.5     -4.28819   0.16641  -0.04876   0.00097
  21   26036.1    384.1     12.68564   0.29425  -0.01568  -0.02439
  22   26176.4    382.0    -10.13966   0.09847   0.07988  -0.22890
  23   26346.5    379.6      6.16831  -0.04897  -0.06895  -0.01062
  24   26511.9    377.2     25.53402   0.08506   0.02718  -0.12985
  25   27046.6    369.7    -116.87464  -0.48645   0.05091   0.32225
  26   27361.9    365.5      3.37790   0.12999  -0.03474   0.02194
  27   27699.7    361.0     -6.58108   0.26706  -0.03622  -0.05948
  28   27742.8    360.5     20.06868   0.21435  -0.00435  -0.21083
  29   27935.3    358.0    -17.46100  -0.17260   0.12913   0.03359
  30   28182.5    354.8    -12.09439  -0.02376  -0.03297   0.03195
  31   28317.9    353.1     13.98958   0.07885   0.07645  -0.18052
  32   28430.4    351.7    -12.83279  -0.26033   0.10926   0.39368
  33   28612.9    349.5     -6.00100   0.13874   0.02083   0.00599
  34   28839.0    346.8     -3.28992  -0.03204   0.00802  -0.01062
  35   28941.2    345.5     84.99466  -0.30124   0.01981  -0.00007
  36   29009.4    344.7    -15.23907  -0.24148  -0.00008   0.30497
  37   29241.1    342.0     14.03831   0.09318  -0.01778   0.04087
  38   29523.6    338.7     42.96137  -0.25116  -0.02068   0.01890
  39   29842.7    335.1     19.41062  -0.11493   0.02995   0.06917
  40   29953.5    333.9    -133.54657  -0.15371   0.04271   0.14109
  41   30082.1    332.4    -207.56844  -0.28001   0.05473   0.29898
  42   30265.1    330.4     12.91335  -0.10417  -0.01343  -0.04162
  43   30547.4    327.4     -1.80743   0.03329  -0.01986  -0.01453
  44   30748.4    325.2      4.91071  -0.10536   0.00295  -0.07920
  45   31279.7    319.7     21.69164   0.14935   0.00725   0.15201
  46   31392.6    318.5     -4.38905  -0.15829  -0.01042  -0.04811
  47   31576.9    316.7    -106.23503   0.34882   0.05701  -0.41765
  48   31970.1    312.8      1.62618   0.13458  -0.03874   0.04741
  49   32097.9    311.5     12.33230  -0.03976  -0.01295   0.18433
  50   32199.2    310.6     49.84277   0.15391   0.00660   0.24773

Total run time:    35586.875 sec

           *** ORCA-CIS/TD-DFT FINISHED WITHOUT ERROR ***

-----------------------
CIS/TD-DFT TOTAL ENERGY
-----------------------

    E(SCF)  = -10673.737002370 Eh
    DE(CIS) =      0.065266006 Eh (Root  1)
    ----------------------------- ---------
    E(tot)  = -10673.671736364 Eh


-------------------------   --------------------
FINAL SINGLE POINT ENERGY    -10673.671736363793
-------------------------   --------------------


                            ***************************************
                            *     ORCA property calculations      *
                            ***************************************

                                    ---------------------
                                    Active property flags
                                    ---------------------
   (+) Dipole Moment


------------------------------------------------------------------------------
                       ORCA ELECTRIC PROPERTIES CALCULATION
------------------------------------------------------------------------------

Dipole Moment Calculation                       ... on
Quadrupole Moment Calculation                   ... off
Polarizability Calculation                      ... off
GBWName                                         ... BTTPC-Br.gbw
Electron density file                           ... BTTPC-Br.scfp
The origin for moment calculation is the CENTER OF MASS  = (-6.822758, 15.163851  0.201566)

-------------
DIPOLE MOMENT
-------------
                                X             Y             Z
Electronic contribution:     87.11567      21.70128      36.20359
Nuclear contribution   :    -83.85990     -20.95568     -36.03758
                        -----------------------------------------
Total Dipole Moment    :      3.25577       0.74561       0.16601
                        -----------------------------------------
Magnitude (a.u.)       :      3.34418
Magnitude (Debye)      :      8.50022



--------------------
Rotational spectrum 
--------------------
 
Rotational constants in cm-1:     0.001472     0.000134     0.000129 
Rotational constants in MHz :    44.118479     4.028049     3.880075 

 Dipole components along the rotational axes: 
x,y,z [a.u.] :     0.646028     2.369785     2.269425 
x,y,z [Debye]:     1.642073     6.023515     5.768419 

 

Timings for individual modules:

Sum of individual times         ...    41513.599 sec (= 691.893 min)
GTO integral calculation        ...       20.551 sec (=   0.343 min)   0.0 %
SCF iterations                  ...     5904.769 sec (=  98.413 min)  14.2 %
CIS module                      ...    35588.279 sec (= 593.138 min)  85.7 %
                             ****ORCA TERMINATED NORMALLY****
TOTAL RUN TIME: 0 days 11 hours 31 minutes 58 seconds 338 msec
