
                                 *****************
                                 * O   R   C   A *
                                 *****************

           --- An Ab Initio, DFT and Semiempirical electronic structure package ---

                  #######################################################
                  #                        -***-                        #
                  #          Department of theory and spectroscopy      #
                  #               Directorship: Frank Neese             #
                  #        Max Planck Institute fuer Kohlenforschung    #
                  #                Kaiser Wilhelm Platz 1               #
                  #                 D-45470 Muelheim/Ruhr               #
                  #                      Germany                        #
                  #                                                     #
                  #                  All rights reserved                #
                  #                        -***-                        #
                  #######################################################


                         Program Version 4.2.0 -  RELEASE  -


 With contributions from (in alphabetic order):
   Daniel Aravena         : Magnetic Suceptibility
   Michael Atanasov       : Ab Initio Ligand Field Theory (pilot matlab implementation)
   Alexander A. Auer      : GIAO ZORA, VPT2
   Ute Becker             : Parallelization
   Giovanni Bistoni       : ED, misc. LED, open-shell LED, HFLED
   Martin Brehm           : Molecular dynamics
   Dmytro Bykov           : SCF Hessian
   Vijay G. Chilkuri      : MRCI spin determinant printing, contributions to CSF-ICE
   Dipayan Datta          : RHF DLPNO-CCSD density
   Achintya Kumar Dutta   : EOM-CC, STEOM-CC
   Dmitry Ganyushin       : Spin-Orbit,Spin-Spin,Magnetic field MRCI
   Miquel Garcia          : C-PCM Hessian, Gaussian charge scheme
   Yang Guo               : DLPNO-NEVPT2, CIM, IAO-localization
   Andreas Hansen         : Spin unrestricted coupled pair/coupled cluster methods
   Benjamin Helmich-Paris : CASSCF linear response (MC-RPA)
   Lee Huntington         : MR-EOM, pCC
   Robert Izsak           : Overlap fitted RIJCOSX, COSX-SCS-MP3, EOM
   Christian Kollmar      : KDIIS, OOCD, Brueckner-CCSD(T), CCSD density
   Simone Kossmann        : Meta GGA functionals, TD-DFT gradient, OOMP2, MP2 Hessian
   Martin Krupicka        : AUTO-CI
   Lucas Lang             : DCDCAS
   Dagmar Lenk            : GEPOL surface, SMD
   Dimitrios Liakos       : Extrapolation schemes; Compound Job, initial MDCI parallelization
   Dimitrios Manganas     : Further ROCIS development; embedding schemes
   Dimitrios Pantazis     : SARC Basis sets
   Taras Petrenko         : DFT Hessian,TD-DFT gradient, ASA, ECA, R-Raman, ABS, FL, XAS/XES, NRVS
   Peter Pinski           : DLPNO-MP2, DLPNO-MP2 Gradient
   Christoph Reimann      : Effective Core Potentials
   Marius Retegan         : Local ZFS, SOC
   Christoph Riplinger    : Optimizer, TS searches, QM/MM, DLPNO-CCSD(T), (RO)-DLPNO pert. Triples
   Tobias Risthaus        : Range-separated hybrids, TD-DFT gradient, RPA, STAB
   Michael Roemelt        : Original ROCIS implementation
   Masaaki Saitow         : Open-shell DLPNO-CCSD energy and density
   Barbara Sandhoefer     : DKH picture change effects
   Avijit Sen             : IP-ROCIS
   Kantharuban Sivalingam : CASSCF convergence, NEVPT2, FIC-MRCI
   Bernardo de Souza      : ESD, SOC TD-DFT
   Georgi Stoychev        : AutoAux, RI-MP2 NMR
   Willem Van den Heuvel  : Paramagnetic NMR
   Boris Wezisla          : Elementary symmetry handling
   Frank Wennmohs         : Technical directorship


 We gratefully acknowledge several colleagues who have allowed us to
 interface, adapt or use parts of their codes:
   Stefan Grimme, W. Hujo, H. Kruse,             : VdW corrections, initial TS optimization,
                  C. Bannwarth                     DFT functionals, gCP, sTDA/sTD-DF
   Ed Valeev, F. Pavosevic, A. Kumar             : LibInt (2-el integral package), F12 methods
   Garnet Chan, S. Sharma, J. Yang, R. Olivares  : DMRG
   Ulf Ekstrom                                   : XCFun DFT Library
   Mihaly Kallay                                 : mrcc  (arbitrary order and MRCC methods)
   Andreas Klamt, Michael Diedenhofen            : otool_cosmo (COSMO solvation model)
   Jiri Pittner, Ondrej Demel                    : Mk-CCSD
   Frank Weinhold                                : gennbo (NPA and NBO analysis)
   Christopher J. Cramer and Donald G. Truhlar   : smd solvation model
   Lars Goerigk                                  : TD-DFT with DH, B97 family of functionals
   V. Asgeirsson, H. Jonsson                     : NEB implementation
   FAccTs GmbH                                   : IRC, NEB, NEB-TS, Multilevel, MM, QM/MM, CI optimization
   S Lehtola, MJT Oliveira, MAL Marques          : LibXC Library


 Your calculation uses the libint2 library for the computation of 2-el integrals
 For citations please refer to: http://libint.valeyev.net

 Your ORCA version has been built with support for libXC version: 4.2.3
 For citations please refer to: https://tddft.org/programs/libxc/

 This ORCA versions uses:
   CBLAS   interface :  Fast vector & matrix operations
   LAPACKE interface :  Fast linear algebra routines
   SCALAPACK package :  Parallel linear algebra routines


----- Orbital basis set information -----
Your calculation utilizes the basis: def2-TZVP
   F. Weigend and R. Ahlrichs, Phys. Chem. Chem. Phys. 7, 3297 (2005).

----- AuxJ basis set information -----
Your calculation utilizes the auxiliary basis: def2/J
   F. Weigend, Phys. Chem. Chem. Phys. 8, 1057 (2006).

================================================================================
                                        WARNINGS
                       Please study these warnings very carefully!
================================================================================

INFO   : Checking CIS options ...

WARNING: CIS/ROCIS methods need fully converged wavefunctions
  ===> : Setting SCFConvForced true
         You can overwrite this default with %scf ConvForced false 


INFO   : the flag for use of LIBINT has been found!

================================================================================
                                       INPUT FILE
================================================================================
NAME = BTTPC-Br.inp
|  1> # ORCA input file
|  2> # BTTPC-Br.out
|  3> ! B3LYP def2-TZVP def2/J RIJCOSX Grid4 TightSCF
|  4> %maxcore 10000
|  5> %tddft
|  6>   maxdim 5
|  7>   nroots 50
|  8>   end
|  9> * xyz 0 1
| 10>    C       -2.01383         0.70182         0.34631
| 11>    O       -1.55451         1.81378         0.51784
| 12>    C       -1.38889        -0.57426         0.74704
| 13>    C       -0.15459        -0.76726         1.31695
| 14>    C        0.21914        -2.07753         1.63505
| 15>    C       -0.68068        -3.13646         1.36731
| 16>    C       -1.93075        -2.94051         0.79332
| 17>    C       -2.28178        -1.64078         0.48002
| 18>    C       -3.48967        -1.09500        -0.12583
| 19>    C       -4.52869        -1.82542        -0.64365
| 20>    C       -4.61048        -3.23178        -0.58604
| 21>    N       -4.73257        -4.37308        -0.56276
| 22>    C       -5.62990        -1.27872        -1.33507
| 23>    N       -6.53841        -0.90578        -1.93066
| 24>    C       -3.34471         0.34638        -0.18094
| 25>    C       -4.35139         1.23032        -0.46525
| 26>    C       -4.28450         2.61709        -0.70908
| 27>    S       -5.74202         3.50457        -0.22790
| 28>    C       -5.06271         4.98654        -0.77607
| 29>    C       -3.80588         4.77242        -1.35556
| 30>    C       -3.35388         3.44615        -1.33136
| 31>    C       -2.08805         3.05516        -2.01454
| 32>    C       -2.27150         1.94248        -3.04452
| 33>    S       -3.08209         6.23096        -1.99809
| 34>    C       -4.46694         7.11812        -1.46655
| 35>    C       -5.43480         6.33393        -0.82601
| 36>    N       -6.49370         7.11042        -0.44742
| 37>    C       -7.73314         6.48320        -0.05379
| 38>    C       -6.22870         8.41035        -0.83986
| 39>    C       -4.97180         8.42384        -1.51534
| 40>    C       -4.48232         9.57086        -2.18102
| 41>    N       -3.35596         9.71673        -2.85925
| 42>    S       -3.32822        11.20512        -3.49869
| 43>    N       -4.74899        11.72512        -2.91537
| 44>    C       -5.29821        10.74721        -2.21453
| 45>    C       -6.49022        10.76463        -1.45578
| 46>    C       -6.92821         9.64101        -0.68735
| 47>    N       -7.97404        10.04855         0.10549
| 48>    C       -8.61843         9.37849         1.20872
| 49>    C       -8.21275        11.37881        -0.13931
| 50>    C       -7.33738        11.82558        -1.13700
| 51>    S       -7.54475        13.46666        -1.60116
| 52>    C       -8.62510        13.69515        -0.13774
| 53>    C       -9.00914        12.38674         0.43366
| 54>    S      -10.16993        12.30142         1.61173
| 55>    C       -8.21446        14.80132         0.86758
| 56>    C       -9.31348        14.97387         0.18059
| 57>    C      -10.42678        15.80256        -0.27568
| 58>    C      -10.33656        16.05007        -1.78207
| 59>    C       -7.18490        14.87460         1.82378
| 60>    C       -5.86476        14.73232         1.55448
| 61>    C       -5.15491        14.75735         0.28624
| 62>    C       -5.41408        15.58569        -0.76822
| 63>    C       -4.59580        15.65921        -1.91603
| 64>    N       -3.94535        15.75865        -2.85521
| 65>    C       -6.49428        16.49009        -0.78798
| 66>    N       -7.35497        17.24791        -0.83085
| 67>    C       -3.98609        13.90749         0.44351
| 68>    C       -3.13871        13.37436        -0.50746
| 69>    C       -2.12327        12.54614        -0.04682
| 70>    C       -1.92724        12.26492         1.32857
| 71>    C       -2.79050        12.82386         2.27707
| 72>    C       -3.81301        13.62254         1.82215
| 73>    C       -4.91272        14.24116         2.59359
| 74>    O       -5.06167        14.27299         3.79155
| 75>    C       -8.85669         6.64434        -1.09183
| 76>    C       -7.66735         9.02616         2.36361
| 77>    C       -8.52874         5.91218        -2.40351
| 78>    C       -7.78177         6.76277        -3.42586
| 79>    C      -10.16811         6.11656        -0.48861
| 80>    C      -11.39994         6.68111        -1.18641
| 81>    C       -7.07892        10.28647         3.01575
| 82>    C       -5.79886        10.79622         2.36195
| 83>    C       -8.44661         8.20111         3.40040
| 84>    C       -7.53513         7.38196         4.30648
| 85>    C       -0.82787        11.38923         1.54300
| 86>    C       -0.23104        11.02913         0.38150
| 87>    S       -0.95764        11.72846        -1.04029
| 88>    S       -0.02212        -4.67144         1.84664
| 89>    C        1.43377        -3.88107         2.39007
| 90>    C        1.42905        -2.53705         2.22305
| 91>   Br        1.24031         9.88491         0.19563
| 92>   Br        2.82159        -4.90416         3.12820
| 93>    H        0.50366         0.06518         1.51049
| 94>    H       -2.58414        -3.77825         0.61549
| 95>    H       -5.36340         0.83918        -0.44705
| 96>    H       -1.36513         2.74108        -1.25596
| 97>    H       -1.68849         3.94366        -2.50869
| 98>    H       -2.60142         1.01847        -2.57744
| 99>    H       -1.32772         1.75303        -3.54919
|100>    H       -3.00943         2.23238        -3.78959
|101>    H       -8.04892         6.85734         0.91963
|102>    H       -7.51842         5.41815         0.06914
|103>    H       -9.13700         8.49239         0.84272
|104>    H       -9.38143        10.06470         1.58527
|105>    H      -10.40876        16.74839         0.26820
|106>    H      -11.35852        15.27706        -0.04276
|107>    H       -9.42324        16.59367        -2.01197
|108>    H      -11.18825        16.63860        -2.11084
|109>    H      -10.32996        15.10857        -2.32675
|110>    H       -7.48446        14.87429         2.86779
|111>    H       -3.27150        13.56072        -1.56058
|112>    H       -2.66567        12.62257         3.32959
|113>    H       -8.97895         7.71051        -1.31303
|114>    H       -6.83840         8.42031         1.98004
|115>    H       -9.46394         5.58791        -2.86181
|116>    H       -7.95124         5.01148        -2.18309
|117>    H       -8.33071         7.67918        -3.63408
|118>    H       -7.67789         6.21167        -4.35762
|119>    H       -6.78570         7.03217        -3.08748
|120>    H      -10.22280         6.38202         0.57046
|121>    H      -10.17374         5.02672        -0.54870
|122>    H      -11.43172         7.76432        -1.08722
|123>    H      -12.30334         6.27152        -0.74201
|124>    H      -11.40177         6.43577        -2.24513
|125>    H       -6.84811        10.06160         4.05774
|126>    H       -7.82954        11.07900         3.01816
|127>    H       -5.06165         9.99872         2.28258
|128>    H       -5.37491        11.58902         2.97237
|129>    H       -5.97195        11.19771         1.36606
|130>    H       -9.13142         7.51707         2.89212
|131>    H       -9.05651         8.87768         4.00111
|132>    H       -6.95592         6.66820         3.72349
|133>    H       -8.12659         6.82979         5.03231
|134>    H       -6.84250         8.01935         4.84963
|135>    H       -0.50871        11.05034         2.51166
|136>    H        2.24377        -1.89478         2.50356
|137> *
|138> 
|139>                          ****END OF INPUT****
================================================================================

                       ****************************
                       * Single Point Calculation *
                       ****************************

---------------------------------
CARTESIAN COORDINATES (ANGSTROEM)
---------------------------------
  C     -2.013830    0.701820    0.346310
  O     -1.554510    1.813780    0.517840
  C     -1.388890   -0.574260    0.747040
  C     -0.154590   -0.767260    1.316950
  C      0.219140   -2.077530    1.635050
  C     -0.680680   -3.136460    1.367310
  C     -1.930750   -2.940510    0.793320
  C     -2.281780   -1.640780    0.480020
  C     -3.489670   -1.095000   -0.125830
  C     -4.528690   -1.825420   -0.643650
  C     -4.610480   -3.231780   -0.586040
  N     -4.732570   -4.373080   -0.562760
  C     -5.629900   -1.278720   -1.335070
  N     -6.538410   -0.905780   -1.930660
  C     -3.344710    0.346380   -0.180940
  C     -4.351390    1.230320   -0.465250
  C     -4.284500    2.617090   -0.709080
  S     -5.742020    3.504570   -0.227900
  C     -5.062710    4.986540   -0.776070
  C     -3.805880    4.772420   -1.355560
  C     -3.353880    3.446150   -1.331360
  C     -2.088050    3.055160   -2.014540
  C     -2.271500    1.942480   -3.044520
  S     -3.082090    6.230960   -1.998090
  C     -4.466940    7.118120   -1.466550
  C     -5.434800    6.333930   -0.826010
  N     -6.493700    7.110420   -0.447420
  C     -7.733140    6.483200   -0.053790
  C     -6.228700    8.410350   -0.839860
  C     -4.971800    8.423840   -1.515340
  C     -4.482320    9.570860   -2.181020
  N     -3.355960    9.716730   -2.859250
  S     -3.328220   11.205120   -3.498690
  N     -4.748990   11.725120   -2.915370
  C     -5.298210   10.747210   -2.214530
  C     -6.490220   10.764630   -1.455780
  C     -6.928210    9.641010   -0.687350
  N     -7.974040   10.048550    0.105490
  C     -8.618430    9.378490    1.208720
  C     -8.212750   11.378810   -0.139310
  C     -7.337380   11.825580   -1.137000
  S     -7.544750   13.466660   -1.601160
  C     -8.625100   13.695150   -0.137740
  C     -9.009140   12.386740    0.433660
  S    -10.169930   12.301420    1.611730
  C     -8.214460   14.801320    0.867580
  C     -9.313480   14.973870    0.180590
  C    -10.426780   15.802560   -0.275680
  C    -10.336560   16.050070   -1.782070
  C     -7.184900   14.874600    1.823780
  C     -5.864760   14.732320    1.554480
  C     -5.154910   14.757350    0.286240
  C     -5.414080   15.585690   -0.768220
  C     -4.595800   15.659210   -1.916030
  N     -3.945350   15.758650   -2.855210
  C     -6.494280   16.490090   -0.787980
  N     -7.354970   17.247910   -0.830850
  C     -3.986090   13.907490    0.443510
  C     -3.138710   13.374360   -0.507460
  C     -2.123270   12.546140   -0.046820
  C     -1.927240   12.264920    1.328570
  C     -2.790500   12.823860    2.277070
  C     -3.813010   13.622540    1.822150
  C     -4.912720   14.241160    2.593590
  O     -5.061670   14.272990    3.791550
  C     -8.856690    6.644340   -1.091830
  C     -7.667350    9.026160    2.363610
  C     -8.528740    5.912180   -2.403510
  C     -7.781770    6.762770   -3.425860
  C    -10.168110    6.116560   -0.488610
  C    -11.399940    6.681110   -1.186410
  C     -7.078920   10.286470    3.015750
  C     -5.798860   10.796220    2.361950
  C     -8.446610    8.201110    3.400400
  C     -7.535130    7.381960    4.306480
  C     -0.827870   11.389230    1.543000
  C     -0.231040   11.029130    0.381500
  S     -0.957640   11.728460   -1.040290
  S     -0.022120   -4.671440    1.846640
  C      1.433770   -3.881070    2.390070
  C      1.429050   -2.537050    2.223050
  Br     1.240310    9.884910    0.195630
  Br     2.821590   -4.904160    3.128200
  H      0.503660    0.065180    1.510490
  H     -2.584140   -3.778250    0.615490
  H     -5.363400    0.839180   -0.447050
  H     -1.365130    2.741080   -1.255960
  H     -1.688490    3.943660   -2.508690
  H     -2.601420    1.018470   -2.577440
  H     -1.327720    1.753030   -3.549190
  H     -3.009430    2.232380   -3.789590
  H     -8.048920    6.857340    0.919630
  H     -7.518420    5.418150    0.069140
  H     -9.137000    8.492390    0.842720
  H     -9.381430   10.064700    1.585270
  H    -10.408760   16.748390    0.268200
  H    -11.358520   15.277060   -0.042760
  H     -9.423240   16.593670   -2.011970
  H    -11.188250   16.638600   -2.110840
  H    -10.329960   15.108570   -2.326750
  H     -7.484460   14.874290    2.867790
  H     -3.271500   13.560720   -1.560580
  H     -2.665670   12.622570    3.329590
  H     -8.978950    7.710510   -1.313030
  H     -6.838400    8.420310    1.980040
  H     -9.463940    5.587910   -2.861810
  H     -7.951240    5.011480   -2.183090
  H     -8.330710    7.679180   -3.634080
  H     -7.677890    6.211670   -4.357620
  H     -6.785700    7.032170   -3.087480
  H    -10.222800    6.382020    0.570460
  H    -10.173740    5.026720   -0.548700
  H    -11.431720    7.764320   -1.087220
  H    -12.303340    6.271520   -0.742010
  H    -11.401770    6.435770   -2.245130
  H     -6.848110   10.061600    4.057740
  H     -7.829540   11.079000    3.018160
  H     -5.061650    9.998720    2.282580
  H     -5.374910   11.589020    2.972370
  H     -5.971950   11.197710    1.366060
  H     -9.131420    7.517070    2.892120
  H     -9.056510    8.877680    4.001110
  H     -6.955920    6.668200    3.723490
  H     -8.126590    6.829790    5.032310
  H     -6.842500    8.019350    4.849630
  H     -0.508710   11.050340    2.511660
  H      2.243770   -1.894780    2.503560

----------------------------
CARTESIAN COORDINATES (A.U.)
----------------------------
  NO LB      ZA    FRAG     MASS         X           Y           Z
   0 C     6.0000    0    12.011   -3.805587    1.326248    0.654431
   1 O     8.0000    0    15.999   -2.937598    3.427547    0.978576
   2 C     6.0000    0    12.011   -2.624622   -1.085194    1.411701
   3 C     6.0000    0    12.011   -0.292133   -1.449911    2.488675
   4 C     6.0000    0    12.011    0.414115   -3.925963    3.089797
   5 C     6.0000    0    12.011   -1.286299   -5.927050    2.583841
   6 C     6.0000    0    12.011   -3.648589   -5.556759    1.499158
   7 C     6.0000    0    12.011   -4.311939   -3.100625    0.907106
   8 C     6.0000    0    12.011   -6.594521   -2.069250   -0.237784
   9 C     6.0000    0    12.011   -8.557984   -3.449544   -1.216322
  10 C     6.0000    0    12.011   -8.712545   -6.107179   -1.107455
  11 N     7.0000    0    14.007   -8.943261   -8.263924   -1.063462
  12 C     6.0000    0    12.011  -10.638969   -2.416431   -2.522917
  13 N     7.0000    0    14.007  -12.355804   -1.711676   -3.648419
  14 C     6.0000    0    12.011   -6.320586    0.654563   -0.341927
  15 C     6.0000    0    12.011   -8.222935    2.324968   -0.879195
  16 C     6.0000    0    12.011   -8.096532    4.945583   -1.339967
  17 S    16.0000    0    32.060  -10.850845    6.622678   -0.430669
  18 C     6.0000    0    12.011   -9.567135    9.423195   -1.466560
  19 C     6.0000    0    12.011   -7.192071    9.018567   -2.561637
  20 C     6.0000    0    12.011   -6.337915    6.512280   -2.515906
  21 C     6.0000    0    12.011   -3.945843    5.773416   -3.806929
  22 C     6.0000    0    12.011   -4.292513    3.670755   -5.753309
  23 S    16.0000    0    32.060   -5.824306   11.774808   -3.775843
  24 C     6.0000    0    12.011   -8.441293   13.451297   -2.771378
  25 C     6.0000    0    12.011  -10.270284   11.969393   -1.560933
  26 N     7.0000    0    14.007  -12.271315   13.436746   -0.845501
  27 C     6.0000    0    12.011  -14.613517   12.251472   -0.101648
  28 C     6.0000    0    12.011  -11.770537   15.893258   -1.587105
  29 C     6.0000    0    12.011   -9.395340   15.918751   -2.863578
  30 C     6.0000    0    12.011   -8.470357   18.086304   -4.121530
  31 N     7.0000    0    14.007   -6.341845   18.361959   -5.403199
  32 S    16.0000    0    32.060   -6.289424   21.174608   -6.611566
  33 N     7.0000    0    14.007   -8.974291   22.157266   -5.509251
  34 C     6.0000    0    12.011  -10.012166   20.309284   -4.184855
  35 C     6.0000    0    12.011  -12.264738   20.342203   -2.751026
  36 C     6.0000    0    12.011  -13.092419   18.218869   -1.298903
  37 N     7.0000    0    14.007  -15.068752   18.989008    0.199347
  38 C     6.0000    0    12.011  -16.286472   17.722778    2.284150
  39 C     6.0000    0    12.011  -15.519848   21.502835   -0.263258
  40 C     6.0000    0    12.011  -13.865639   22.347108   -2.148619
  41 S    16.0000    0    32.060  -14.257511   25.448299   -3.025754
  42 C     6.0000    0    12.011  -16.299077   25.880083   -0.260291
  43 C     6.0000    0    12.011  -17.024807   23.407546    0.819499
  44 S    16.0000    0    32.060  -19.218383   23.246315    3.045728
  45 C     6.0000    0    12.011  -15.523080   27.970441    1.639489
  46 C     6.0000    0    12.011  -17.599927   28.296513    0.341266
  47 C     6.0000    0    12.011  -19.703759   29.862511   -0.520960
  48 C     6.0000    0    12.011  -19.533268   30.330237   -3.367624
  49 C     6.0000    0    12.011  -13.577493   28.108920    3.446445
  50 C     6.0000    0    12.011  -11.082790   27.840050    2.937541
  51 C     6.0000    0    12.011   -9.741368   27.887350    0.540915
  52 C     6.0000    0    12.011  -10.231128   29.452686   -1.451725
  53 C     6.0000    0    12.011   -8.684803   29.591618   -3.620772
  54 N     7.0000    0    14.007   -7.455631   29.779533   -5.395565
  55 C     6.0000    0    12.011  -12.272411   31.161754   -1.489066
  56 N     7.0000    0    14.007  -13.898879   32.593826   -1.570079
  57 C     6.0000    0    12.011   -7.532618   26.281347    0.838112
  58 C     6.0000    0    12.011   -5.931302   25.273878   -0.958960
  59 C     6.0000    0    12.011   -4.012399   23.708769   -0.088477
  60 C     6.0000    0    12.011   -3.641956   23.177340    2.510633
  61 C     6.0000    0    12.011   -5.273281   24.233583    4.303039
  62 C     6.0000    0    12.011   -7.205545   25.742870    3.443364
  63 C     6.0000    0    12.011   -9.283695   26.911892    4.901175
  64 O     8.0000    0    15.999   -9.565170   26.972042    7.164991
  65 C     6.0000    0    12.011  -16.736719   12.555983   -2.063260
  66 C     6.0000    0    12.011  -14.489192   17.056970    4.466576
  67 C     6.0000    0    12.011  -16.116983   11.172401   -4.541976
  68 C     6.0000    0    12.011  -14.705414   12.779783   -6.473937
  69 C     6.0000    0    12.011  -19.214943   11.558623   -0.923339
  70 C     6.0000    0    12.011  -21.542765   12.625468   -2.241990
  71 C     6.0000    0    12.011  -13.377220   19.438611    5.698942
  72 C     6.0000    0    12.011  -10.958257   20.401899    4.463439
  73 C     6.0000    0    12.011  -15.961780   15.497852    6.425825
  74 C     6.0000    0    12.011  -14.239332   13.949883    8.138068
  75 C     6.0000    0    12.011   -1.564448   21.522526    2.915847
  76 C     6.0000    0    12.011   -0.436602   20.842035    0.720931
  77 S    16.0000    0    32.060   -1.809677   22.163577   -1.965863
  78 S    16.0000    0    32.060   -0.041801   -8.827742    3.489644
  79 C     6.0000    0    12.011    2.709433   -7.334159    4.516578
  80 C     6.0000    0    12.011    2.700513   -4.794330    4.200956
  81 Br   35.0000    0    79.900    2.343846   18.679773    0.369687
  82 Br   35.0000    0    79.900    5.332032   -9.267519    5.911441
  83 H     1.0000    0     1.008    0.951779    0.123172    2.854412
  84 H     1.0000    0     1.008   -4.883317   -7.139858    1.163108
  85 H     1.0000    0     1.008  -10.135357    1.585820   -0.844802
  86 H     1.0000    0     1.008   -2.579722    5.179891   -2.373420
  87 H     1.0000    0     1.008   -3.190784    7.452437   -4.740737
  88 H     1.0000    0     1.008   -4.915971    1.924629   -4.870656
  89 H     1.0000    0     1.008   -2.509027    3.312747   -6.706997
  90 H     1.0000    0     1.008   -5.686999    4.218587   -7.161287
  91 H     1.0000    0     1.008  -15.210254   12.958495    1.737849
  92 H     1.0000    0     1.008  -14.207755   10.238820    0.130656
  93 H     1.0000    0     1.008  -17.266428   16.048291    1.592510
  94 H     1.0000    0     1.008  -17.728333   19.019527    2.995726
  95 H     1.0000    0     1.008  -19.669706   31.649870    0.506825
  96 H     1.0000    0     1.008  -21.464492   28.869460   -0.080805
  97 H     1.0000    0     1.008  -17.807343   31.357492   -3.802072
  98 H     1.0000    0     1.008  -21.142728   31.442397   -3.988910
  99 H     1.0000    0     1.008  -19.520795   28.551060   -4.396920
 100 H     1.0000    0     1.008  -14.143580   28.108335    5.419338
 101 H     1.0000    0     1.008   -6.182239   25.626047   -2.949069
 102 H     1.0000    0     1.008   -5.037386   23.853200    6.292013
 103 H     1.0000    0     1.008  -16.967756   14.570752   -2.481267
 104 H     1.0000    0     1.008  -12.922703   15.912080    3.741733
 105 H     1.0000    0     1.008  -17.884255   10.559620   -5.408037
 106 H     1.0000    0     1.008  -15.025666    9.470325   -4.125442
 107 H     1.0000    0     1.008  -15.742760   14.511547   -6.867416
 108 H     1.0000    0     1.008  -14.509109   11.738355   -8.234708
 109 H     1.0000    0     1.008  -12.823115   13.288875   -5.834492
 110 H     1.0000    0     1.008  -19.318292   12.060270    1.078013
 111 H     1.0000    0     1.008  -19.225582    9.499124   -1.036893
 112 H     1.0000    0     1.008  -21.602820   14.672438   -2.054548
 113 H     1.0000    0     1.008  -23.249943   11.851455   -1.402196
 114 H     1.0000    0     1.008  -21.546223   12.161843   -4.242681
 115 H     1.0000    0     1.008  -12.941052   19.013668    7.668017
 116 H     1.0000    0     1.008  -14.795686   20.936276    5.703496
 117 H     1.0000    0     1.008   -9.565132   18.894842    4.313451
 118 H     1.0000    0     1.008  -10.157108   21.900074    5.616965
 119 H     1.0000    0     1.008  -11.285350   21.160605    2.581479
 120 H     1.0000    0     1.008  -17.255883   14.205204    5.465315
 121 H     1.0000    0     1.008  -17.114324   16.776384    7.561002
 122 H     1.0000    0     1.008  -13.144784   12.601072    7.036376
 123 H     1.0000    0     1.008  -15.357030   12.906433    9.509688
 124 H     1.0000    0     1.008  -12.930451   15.154375    9.164473
 125 H     1.0000    0     1.008   -0.961323   20.882116    4.746350
 126 H     1.0000    0     1.008    4.240111   -3.580615    4.731043

--------------------------------
INTERNAL COORDINATES (ANGSTROEM)
--------------------------------
 C      0   0   0     0.000000000000     0.00000000     0.00000000
 O      1   0   0     1.215258180347     0.00000000     0.00000000
 C      1   2   0     1.476317954541   126.34082492     0.00000000
 C      3   1   2     1.373150719368   127.92663983   356.15635545
 C      4   3   1     1.399167322303   117.78017425   178.88993763
 C      5   4   3     1.415165532685   119.20126719   359.65167018
 C      6   5   4     1.389437270085   123.00367815     0.22182258
 C      7   6   5     1.382272413021   117.04687736     0.05381988
 C      8   7   6     1.457370331453   131.05902143   179.63642176
 C      9   8   7     1.371573362675   125.82927655   353.39449179
 C     10   9   8     1.409913815026   124.03631598     4.15373333
 N     11  10   9     1.148047741385   176.98347519   174.05798226
 C     10   9   8     1.410533930999   124.75522767   186.15513945
 N     13  10   9     1.148565240550   176.00286427   158.76059895
 C      9   8   7     1.449698871525   107.77470510   177.98851708
 C     15   9   8     1.369520617625   125.17842573   191.98863454
 C     16  15   9     1.409630580649   129.49413122   188.96579194
 S     17  16  15     1.772997319005   113.98408636   209.69311278
 C     18  17  16     1.719938227350    91.15263459   180.89391581
 C     19  18  17     1.400456241159   110.76873830     2.79206447
 C     17  16  15     1.393063697898   133.98341247    34.81645801
 C     21  17  16     1.490615202324   128.01916422     2.75555648
 C     22  21  17     1.527275183227   113.46454695    50.68943649
 S     20  19  18     1.750444428310   113.30177191   177.57851925
 C     24  20  19     1.728408852008    89.05472540     0.59013343
 C     19  18  17     1.398715404863   137.42009279   181.02804620
 N     26  19  18     1.366578324942   138.03795303     1.39751123
 C     27  26  19     1.443800893094   119.59522227   347.25601006
 C     27  26  19     1.383492738868   107.87121743   181.67569364
 C     25  24  20     1.400774358025   139.15783160   183.09387315
 C     30  25  24     1.413639067513   130.38656936     5.36253603
 N     31  30  25     1.322860854134   128.73522381   354.75528286
 S     32  31  30     1.620172155451   108.55573881   176.42483216
 N     33  32  31     1.621496104004    97.91038277     0.67760446
 C     34  33  32     1.322545758036   108.50437725   359.29921913
 C     35  34  33     1.413114595141   128.73463372   175.69483492
 C     29  27  26     1.423761769328   133.44607206   182.21331013
 N     37  29  27     1.374206864377   133.79268631    14.80422080
 C     38  37  29     1.442683370875   130.04435809     9.29669668
 C     38  37  29     1.373499607463   108.46137364   178.06204677
 C     36  35  34     1.394602329161   130.12979106   353.35338495
 S     41  36  35     1.718019321457   137.58261233    10.38190888
 C     42  41  36     1.833292638670    88.53983906   194.07524232
 C     40  38  37     1.406575464701   136.04003570   188.91211226
 S     44  40  38     1.656068190444   130.52035789   352.00331888
 C     43  42  41     1.550130827027   116.77732137   122.98869650
 C     46  43  42     1.307506681818    62.01444648   112.66330020
 C     47  46  43     1.460940217463   151.58028238   190.63579676
 C     48  47  46     1.529252000358   110.76233830   113.51590128
 C     46  43  42     1.407011795260   132.20240661   286.23282913
 C     50  46  43     1.354819437416   124.92129834    57.06055622
 C     51  50  46     1.453597681960   130.35013144    14.36472099
 C     52  51  50     1.365724033654   126.25694696    38.93172011
 C     53  52  51     1.411543532768   123.32671101   172.85380497
 N     54  53  52     1.146748703291   177.86422979   204.82818820
 C     53  52  51     1.408957720302   123.06826406   355.63662003
 N     56  53  52     1.147569721368   178.04580663   157.37670773
 C     52  51  50     1.453662981884   106.74966601   209.24179338
 C     58  52  51     1.380805707621   130.13955706   165.31867597
 C     59  58  52     1.388976591451   116.77378164   182.42311161
 C     60  59  58     1.417466084744   122.76533413   358.82381335
 C     61  60  59     1.399029664160   119.55424241     0.69713529
 C     62  61  60     1.374906778258   117.81695121     0.61758111
 C     63  62  61     1.478909213610   128.56493251   174.78502350
 O     64  63  62     1.207603996764   128.33110149     7.69881899
 C     28  27  26     1.538134501173   113.42611203   252.32681676
 C     39  38  37     1.537029767897   113.87018652    58.50332937
 C     66  28  27     1.537567523883   111.71778510    65.32036027
 C     68  66  28     1.525341617966   114.24816455   269.92798212
 C     66  28  27     1.536960804055   108.80972859   187.82792534
 C     70  66  28     1.524154418489   112.50265638   158.69214551
 C     67  39  38     1.536202376186   111.58792694    63.72719985
 C     72  67  39     1.525074787051   114.43945059   272.13868137
 C     67  39  38     1.537168551005   108.42949406   185.50032494
 C     74  67  39     1.524068069116   112.72368348   159.16560496
 C     61  60  59     1.421769178840   112.05359868   179.80009973
 C     76  61  60     1.354607068083   112.03026765   359.84790946
 S     60  59  58     1.736167192467   125.58326587   178.48662387
 S      6   5   4     1.737705994379   111.58107396   180.33231795
 C     79   6   5     1.743449624710    90.11481616   359.91065714
 C     80  79   6     1.354366168804   114.11221423     0.03775132
 Br    77  76  61     1.873141182026   126.40965125   180.44553553
 Br    80  79   6     1.875524832520   119.55735594   179.97105586
 H      4   3   1     1.078752588734   120.96375986   358.79727478
 H      7   6   5     1.077195575836   120.28122056   180.46199671
 H     16  15   9     1.085120260478   116.70522071    13.09256842
 H     22  21  17     1.093939298682   108.58297148   288.37867316
 H     22  21  17     1.092366543840   107.73388601   171.89804244
 H     23  22  21     1.086648707219   111.47471569   296.25065247
 H     23  22  21     1.086878005942   109.62286448   176.27463483
 H     23  22  21     1.087985293926   110.43711517    56.77068498
 H     28  27  26     1.089607380849   110.07100753   127.54233629
 H     28  27  26     1.093411160452   106.57235355    11.95385244
 H     39  38  37     1.089974336808   109.46954692   293.44668569
 H     39  38  37     1.093088773431   106.47734708   177.99986045
 H     48  47  46     1.091203264154   108.86955536   351.86034675
 H     48  47  46     1.094779157639   108.04939643   233.72347645
 H     49  48  47     1.087432017369   109.79847785   297.81457840
 H     49  48  47     1.086201238215   109.85185366   178.09490132
 H     49  48  47     1.087723362073   110.70346615    57.92063951
 H     50  46  43     1.086136809891   116.83404098   248.06851033
 H     59  58  52     1.077694283227   122.04732871     0.46389059
 H     62  61  60     1.078841296670   121.03023134   179.74963179
 H     66  28  27     1.095716850514   108.64380534   305.83901632
 H     67  39  38     1.096055778644   109.37453564   304.04289530
 H     68  66  28     1.090774478478   108.48910230   149.78159358
 H     68  66  28     1.092406387934   109.46558626    33.30932419
 H     69  68  66     1.088346443050   110.53470890   304.97047614
 H     69  68  66     1.087510442249   109.78212388   185.78716754
 H     69  68  66     1.085924872770   112.25166562    65.95540559
 H     70  66  28     1.093201387028   109.84782016    38.03440531
 H     70  66  28     1.091509839901   109.00563035   280.86381840
 H     71  70  66     1.088206105754   110.52239055   298.68437536
 H     71  70  66     1.086916228649   110.18040100   179.06116623
 H     71  70  66     1.086776473292   111.33072601    59.04855468
 H     72  67  39     1.090680032411   108.51036228   152.09630843
 H     72  67  39     1.091576838065   109.46240851    35.60035556
 H     73  72  67     1.088937294338   110.77452003   307.58692945
 H     73  72  67     1.086682114926   109.29877504   188.54729875
 H     73  72  67     1.087635628462   112.47906389    68.74159817
 H     74  67  39     1.093263013231   109.86427946    38.22788124
 H     74  67  39     1.091135866425   108.77667017   281.30654445
 H     75  74  67     1.088492031115   110.62570073   298.74305087
 H     75  74  67     1.086989341898   110.15686502   179.03048678
 H     75  74  67     1.086744795939   111.28865758    59.12420114
 H     76  61  60     1.074714721822   124.04083472   179.99409489
 H     81  80  79     1.074693114987   123.93386165   179.94464217

---------------------------
INTERNAL COORDINATES (A.U.)
---------------------------
 C      0   0   0     0.000000000000     0.00000000     0.00000000
 O      1   0   0     2.296505142863     0.00000000     0.00000000
 C      1   2   0     2.789836620673   126.34082492     0.00000000
 C      3   1   2     2.594878800202   127.92663983   356.15635545
 C      4   3   1     2.644043054684   117.78017425   178.88993763
 C      5   4   3     2.674275290940   119.20126719   359.65167018
 C      6   5   4     2.625655920723   123.00367815     0.22182258
 C      7   6   5     2.612116303085   117.04687736     0.05381988
 C      8   7   6     2.754030802149   131.05902143   179.63642176
 C      9   8   7     2.591898028037   125.82927655   353.39449179
 C     10   9   8     2.664350982830   124.03631598     4.15373333
 N     11  10   9     2.169495819885   176.98347519   174.05798226
 C     10   9   8     2.665522832192   124.75522767   186.15513945
 N     13  10   9     2.170473751581   176.00286427   158.76059895
 C      9   8   7     2.739533843836   107.77470510   177.98851708
 C     15   9   8     2.588018902070   125.17842573   191.98863454
 C     16  15   9     2.663815747426   129.49413122   188.96579194
 S     17  16  15     3.350479369097   113.98408636   209.69311278
 C     18  17  16     3.250212216954    91.15263459   180.89391581
 C     19  18  17     2.646478758330   110.76873830     2.79206447
 C     17  16  15     2.632508876134   133.98341247    34.81645801
 C     21  17  16     2.816854503452   128.01916422     2.75555648
 C     22  21  17     2.886131827433   113.46454695    50.68943649
 S     20  19  18     3.307860582153   113.30177191   177.57851925
 C     24  20  19     3.266219377741    89.05472540     0.59013343
 C     19  18  17     2.643189054487   137.42009279   181.02804620
 N     26  19  18     2.582458774692   138.03795303     1.39751123
 C     27  26  19     2.728388279859   119.59522227   347.25601006
 C     27  26  19     2.614422384729   107.87121743   181.67569364
 C     25  24  20     2.647079912086   139.15783160   183.09387315
 C     30  25  24     2.671390689812   130.38656936     5.36253603
 N     31  30  25     2.499844727598   128.73522381   354.75528286
 S     32  31  30     3.061681663608   108.55573881   176.42483216
 N     33  32  31     3.064183563788    97.91038277     0.67760446
 C     34  33  32     2.499249282268   108.50437725   359.29921913
 C     35  34  33     2.670399580663   128.73463372   175.69483492
 C     29  27  26     2.690519823977   133.44607206   182.21331013
 N     37  29  27     2.596874625027   133.79268631    14.80422080
 C     38  37  29     2.726276468917   130.04435809     9.29669668
 C     38  37  29     2.595538103153   108.46137364   178.06204677
 C     36  35  34     2.635416467842   130.12979106   353.35338495
 S     41  36  35     3.246586010339   137.58261233    10.38190888
 C     42  41  36     3.464421010419    88.53983906   194.07524232
 C     40  38  37     2.658042414979   136.04003570   188.91211226
 S     44  40  38     3.129515339037   130.52035789   352.00331888
 C     43  42  41     2.929322734830   116.77732137   122.98869650
 C     46  43  42     2.470829546909    62.01444648   112.66330020
 C     47  46  43     2.760776909036   151.58028238   190.63579676
 C     48  47  46     2.889867470429   110.76233830   113.51590128
 C     46  43  42     2.658866960238   132.20240661   286.23282913
 C     50  46  43     2.560237697629   124.92129834    57.06055622
 C     51  50  46     2.746901527807   130.35013144    14.36472099
 C     52  51  50     2.580844398120   126.25694696    38.93172011
 C     53  52  51     2.667430703040   123.32671101   172.85380497
 N     54  53  52     2.167040993650   177.86422979   204.82818820
 C     53  52  51     2.662544225646   123.06826406   355.63662003
 N     56  53  52     2.168592492965   178.04580663   157.37670773
 C     52  51  50     2.747024926780   106.74966601   209.24179338
 C     58  52  51     2.609344631560   130.13955706   165.31867597
 C     59  58  52     2.624785364271   116.77378164   182.42311161
 C     60  59  58     2.678622704288   122.76533413   358.82381335
 C     61  60  59     2.643782918494   119.55424241     0.69713529
 C     62  61  60     2.598197270580   117.81695121     0.61758111
 C     63  62  61     2.794733390655   128.56493251   174.78502350
 O     64  63  62     2.282040832112   128.33110149     7.69881899
 C     28  27  26     2.906652964353   113.42611203   252.32681676
 C     39  38  37     2.904565321009   113.87018652    58.50332937
 C     66  28  27     2.905581532550   111.71778510    65.32036027
 C     68  66  28     2.882477918629   114.24816455   269.92798212
 C     66  28  27     2.904434998234   108.80972859   187.82792534
 C     70  66  28     2.880234436750   112.50265638   158.69214551
 C     67  39  38     2.903001777271   111.58792694    63.72719985
 C     72  67  39     2.881973681275   114.43945059   272.13868137
 C     67  39  38     2.904827583077   108.42949406   185.50032494
 C     74  67  39     2.880071260084   112.72368348   159.16560496
 C     61  60  59     2.686754373658   112.05359868   179.80009973
 C     76  61  60     2.559836377751   112.03026765   359.84790946
 S     60  59  58     3.280880516462   125.58326587   178.48662387
 S      6   5   4     3.283788430649   111.58107396   180.33231795
 C     79   6   5     3.294642318989    90.11481616   359.91065714
 C     80  79   6     2.559381144087   114.11221423     0.03775132
 Br    77  76  61     3.539723844198   126.40965125   180.44553553
 Br    80  79   6     3.544228290832   119.55735594   179.97105586
 H      4   3   1     2.038546958966   120.96375986   358.79727478
 H      7   6   5     2.035604631001   120.28122056   180.46199671
 H     16  15   9     2.050580114673   116.70522071    13.09256842
 H     22  21  17     2.067245681642   108.58297148   288.37867316
 H     22  21  17     2.064273605715   107.73388601   171.89804244
 H     23  22  21     2.053468460423   111.47471569   296.25065247
 H     23  22  21     2.053901772212   109.62286448   176.27463483
 H     23  22  21     2.055994243255   110.43711517    56.77068498
 H     28  27  26     2.059059543303   110.07100753   127.54233629
 H     28  27  26     2.066247645026   106.57235355    11.95385244
 H     39  38  37     2.059752989570   109.46954692   293.44668569
 H     39  38  37     2.065638421848   106.47734708   177.99986045
 H     48  47  46     2.062075325692   108.86955536   351.86034675
 H     48  47  46     2.068832785062   108.04939643   233.72347645
 H     49  48  47     2.054948702086   109.79847785   297.81457840
 H     49  48  47     2.052622866553   109.85185366   178.09490132
 H     49  48  47     2.055499263787   110.70346615    57.92063951
 H     50  46  43     2.052501114665   116.83404098   248.06851033
 H     59  58  52     2.036547051391   122.04732871     0.46389059
 H     62  61  60     2.038714592670   121.03023134   179.74963179
 H     66  28  27     2.070604767794   108.64380534   305.83901632
 H     67  39  38     2.071245249140   109.37453564   304.04289530
 H     68  66  28     2.061265038195   108.48910230   149.78159358
 H     68  66  28     2.064348900142   109.46558626    33.30932419
 H     69  68  66     2.056676716192   110.53470890   304.97047614
 H     69  68  66     2.055096903630   109.78212388   185.78716754
 H     69  68  66     2.052100611548   112.25166562    65.95540559
 H     70  66  28     2.065851230706   109.84782016    38.03440531
 H     70  66  28     2.062654669893   109.00563035   280.86381840
 H     71  70  66     2.056411517136   110.52239055   298.68437536
 H     71  70  66     2.053974002661   110.18040100   179.06116623
 H     71  70  66     2.053709903310   111.33072601    59.04855468
 H     72  67  39     2.061086560993   108.51036228   152.09630843
 H     72  67  39     2.062781278075   109.46240851    35.60035556
 H     73  72  67     2.057793263312   110.77452003   307.58692945
 H     73  72  67     2.053531591840   109.29877504   188.54729875
 H     73  72  67     2.055333471289   112.47906389    68.74159817
 H     74  67  39     2.065967687353   109.86427946    38.22788124
 H     74  67  39     2.061947962443   108.77667017   281.30654445
 H     75  74  67     2.056951837762   110.62570073   298.74305087
 H     75  74  67     2.054112166679   110.15686502   179.03048678
 H     75  74  67     2.053650041788   111.28865758    59.12420114
 H     76  61  60     2.030916496336   124.04083472   179.99409489
 H     81  80  79     2.030875665336   123.93386165   179.94464217

---------------------
BASIS SET INFORMATION
---------------------
There are 6 groups of distinct atoms

 Group   1 Type C   : 11s6p2d1f contracted to 5s3p2d1f pattern {62111/411/11/1}
 Group   2 Type O   : 11s6p2d1f contracted to 5s3p2d1f pattern {62111/411/11/1}
 Group   3 Type N   : 11s6p2d1f contracted to 5s3p2d1f pattern {62111/411/11/1}
 Group   4 Type S   : 14s9p3d1f contracted to 5s5p2d1f pattern {73211/51111/21/1}
 Group   5 Type Br  : 17s13p8d1f contracted to 6s5p4d1f pattern {842111/64111/5111/1}
 Group   6 Type H   : 5s1p contracted to 3s1p pattern {311/1}

Atom   0C    basis set group =>   1
Atom   1O    basis set group =>   2
Atom   2C    basis set group =>   1
Atom   3C    basis set group =>   1
Atom   4C    basis set group =>   1
Atom   5C    basis set group =>   1
Atom   6C    basis set group =>   1
Atom   7C    basis set group =>   1
Atom   8C    basis set group =>   1
Atom   9C    basis set group =>   1
Atom  10C    basis set group =>   1
Atom  11N    basis set group =>   3
Atom  12C    basis set group =>   1
Atom  13N    basis set group =>   3
Atom  14C    basis set group =>   1
Atom  15C    basis set group =>   1
Atom  16C    basis set group =>   1
Atom  17S    basis set group =>   4
Atom  18C    basis set group =>   1
Atom  19C    basis set group =>   1
Atom  20C    basis set group =>   1
Atom  21C    basis set group =>   1
Atom  22C    basis set group =>   1
Atom  23S    basis set group =>   4
Atom  24C    basis set group =>   1
Atom  25C    basis set group =>   1
Atom  26N    basis set group =>   3
Atom  27C    basis set group =>   1
Atom  28C    basis set group =>   1
Atom  29C    basis set group =>   1
Atom  30C    basis set group =>   1
Atom  31N    basis set group =>   3
Atom  32S    basis set group =>   4
Atom  33N    basis set group =>   3
Atom  34C    basis set group =>   1
Atom  35C    basis set group =>   1
Atom  36C    basis set group =>   1
Atom  37N    basis set group =>   3
Atom  38C    basis set group =>   1
Atom  39C    basis set group =>   1
Atom  40C    basis set group =>   1
Atom  41S    basis set group =>   4
Atom  42C    basis set group =>   1
Atom  43C    basis set group =>   1
Atom  44S    basis set group =>   4
Atom  45C    basis set group =>   1
Atom  46C    basis set group =>   1
Atom  47C    basis set group =>   1
Atom  48C    basis set group =>   1
Atom  49C    basis set group =>   1
Atom  50C    basis set group =>   1
Atom  51C    basis set group =>   1
Atom  52C    basis set group =>   1
Atom  53C    basis set group =>   1
Atom  54N    basis set group =>   3
Atom  55C    basis set group =>   1
Atom  56N    basis set group =>   3
Atom  57C    basis set group =>   1
Atom  58C    basis set group =>   1
Atom  59C    basis set group =>   1
Atom  60C    basis set group =>   1
Atom  61C    basis set group =>   1
Atom  62C    basis set group =>   1
Atom  63C    basis set group =>   1
Atom  64O    basis set group =>   2
Atom  65C    basis set group =>   1
Atom  66C    basis set group =>   1
Atom  67C    basis set group =>   1
Atom  68C    basis set group =>   1
Atom  69C    basis set group =>   1
Atom  70C    basis set group =>   1
Atom  71C    basis set group =>   1
Atom  72C    basis set group =>   1
Atom  73C    basis set group =>   1
Atom  74C    basis set group =>   1
Atom  75C    basis set group =>   1
Atom  76C    basis set group =>   1
Atom  77S    basis set group =>   4
Atom  78S    basis set group =>   4
Atom  79C    basis set group =>   1
Atom  80C    basis set group =>   1
Atom  81Br   basis set group =>   5
Atom  82Br   basis set group =>   5
Atom  83H    basis set group =>   6
Atom  84H    basis set group =>   6
Atom  85H    basis set group =>   6
Atom  86H    basis set group =>   6
Atom  87H    basis set group =>   6
Atom  88H    basis set group =>   6
Atom  89H    basis set group =>   6
Atom  90H    basis set group =>   6
Atom  91H    basis set group =>   6
Atom  92H    basis set group =>   6
Atom  93H    basis set group =>   6
Atom  94H    basis set group =>   6
Atom  95H    basis set group =>   6
Atom  96H    basis set group =>   6
Atom  97H    basis set group =>   6
Atom  98H    basis set group =>   6
Atom  99H    basis set group =>   6
Atom 100H    basis set group =>   6
Atom 101H    basis set group =>   6
Atom 102H    basis set group =>   6
Atom 103H    basis set group =>   6
Atom 104H    basis set group =>   6
Atom 105H    basis set group =>   6
Atom 106H    basis set group =>   6
Atom 107H    basis set group =>   6
Atom 108H    basis set group =>   6
Atom 109H    basis set group =>   6
Atom 110H    basis set group =>   6
Atom 111H    basis set group =>   6
Atom 112H    basis set group =>   6
Atom 113H    basis set group =>   6
Atom 114H    basis set group =>   6
Atom 115H    basis set group =>   6
Atom 116H    basis set group =>   6
Atom 117H    basis set group =>   6
Atom 118H    basis set group =>   6
Atom 119H    basis set group =>   6
Atom 120H    basis set group =>   6
Atom 121H    basis set group =>   6
Atom 122H    basis set group =>   6
Atom 123H    basis set group =>   6
Atom 124H    basis set group =>   6
Atom 125H    basis set group =>   6
Atom 126H    basis set group =>   6
---------------------------------
AUXILIARY/J BASIS SET INFORMATION
---------------------------------
There are 6 groups of distinct atoms

 Group   1 Type C   : 12s5p4d2f1g contracted to 6s4p3d1f1g pattern {711111/2111/211/2/1}
 Group   2 Type O   : 12s5p4d2f1g contracted to 6s4p3d1f1g pattern {711111/2111/211/2/1}
 Group   3 Type N   : 12s5p4d2f1g contracted to 6s4p3d1f1g pattern {711111/2111/211/2/1}
 Group   4 Type S   : 14s5p5d2f1g contracted to 8s4p3d1f1g pattern {71111111/2111/311/2/1}
 Group   5 Type Br  : 19s5p5d3f1g contracted to 8s4p3d2f1g pattern {121111111/2111/311/21/1}
 Group   6 Type H   : 5s2p1d contracted to 3s1p1d pattern {311/2/1}

Atom   0C    basis set group =>   1
Atom   1O    basis set group =>   2
Atom   2C    basis set group =>   1
Atom   3C    basis set group =>   1
Atom   4C    basis set group =>   1
Atom   5C    basis set group =>   1
Atom   6C    basis set group =>   1
Atom   7C    basis set group =>   1
Atom   8C    basis set group =>   1
Atom   9C    basis set group =>   1
Atom  10C    basis set group =>   1
Atom  11N    basis set group =>   3
Atom  12C    basis set group =>   1
Atom  13N    basis set group =>   3
Atom  14C    basis set group =>   1
Atom  15C    basis set group =>   1
Atom  16C    basis set group =>   1
Atom  17S    basis set group =>   4
Atom  18C    basis set group =>   1
Atom  19C    basis set group =>   1
Atom  20C    basis set group =>   1
Atom  21C    basis set group =>   1
Atom  22C    basis set group =>   1
Atom  23S    basis set group =>   4
Atom  24C    basis set group =>   1
Atom  25C    basis set group =>   1
Atom  26N    basis set group =>   3
Atom  27C    basis set group =>   1
Atom  28C    basis set group =>   1
Atom  29C    basis set group =>   1
Atom  30C    basis set group =>   1
Atom  31N    basis set group =>   3
Atom  32S    basis set group =>   4
Atom  33N    basis set group =>   3
Atom  34C    basis set group =>   1
Atom  35C    basis set group =>   1
Atom  36C    basis set group =>   1
Atom  37N    basis set group =>   3
Atom  38C    basis set group =>   1
Atom  39C    basis set group =>   1
Atom  40C    basis set group =>   1
Atom  41S    basis set group =>   4
Atom  42C    basis set group =>   1
Atom  43C    basis set group =>   1
Atom  44S    basis set group =>   4
Atom  45C    basis set group =>   1
Atom  46C    basis set group =>   1
Atom  47C    basis set group =>   1
Atom  48C    basis set group =>   1
Atom  49C    basis set group =>   1
Atom  50C    basis set group =>   1
Atom  51C    basis set group =>   1
Atom  52C    basis set group =>   1
Atom  53C    basis set group =>   1
Atom  54N    basis set group =>   3
Atom  55C    basis set group =>   1
Atom  56N    basis set group =>   3
Atom  57C    basis set group =>   1
Atom  58C    basis set group =>   1
Atom  59C    basis set group =>   1
Atom  60C    basis set group =>   1
Atom  61C    basis set group =>   1
Atom  62C    basis set group =>   1
Atom  63C    basis set group =>   1
Atom  64O    basis set group =>   2
Atom  65C    basis set group =>   1
Atom  66C    basis set group =>   1
Atom  67C    basis set group =>   1
Atom  68C    basis set group =>   1
Atom  69C    basis set group =>   1
Atom  70C    basis set group =>   1
Atom  71C    basis set group =>   1
Atom  72C    basis set group =>   1
Atom  73C    basis set group =>   1
Atom  74C    basis set group =>   1
Atom  75C    basis set group =>   1
Atom  76C    basis set group =>   1
Atom  77S    basis set group =>   4
Atom  78S    basis set group =>   4
Atom  79C    basis set group =>   1
Atom  80C    basis set group =>   1
Atom  81Br   basis set group =>   5
Atom  82Br   basis set group =>   5
Atom  83H    basis set group =>   6
Atom  84H    basis set group =>   6
Atom  85H    basis set group =>   6
Atom  86H    basis set group =>   6
Atom  87H    basis set group =>   6
Atom  88H    basis set group =>   6
Atom  89H    basis set group =>   6
Atom  90H    basis set group =>   6
Atom  91H    basis set group =>   6
Atom  92H    basis set group =>   6
Atom  93H    basis set group =>   6
Atom  94H    basis set group =>   6
Atom  95H    basis set group =>   6
Atom  96H    basis set group =>   6
Atom  97H    basis set group =>   6
Atom  98H    basis set group =>   6
Atom  99H    basis set group =>   6
Atom 100H    basis set group =>   6
Atom 101H    basis set group =>   6
Atom 102H    basis set group =>   6
Atom 103H    basis set group =>   6
Atom 104H    basis set group =>   6
Atom 105H    basis set group =>   6
Atom 106H    basis set group =>   6
Atom 107H    basis set group =>   6
Atom 108H    basis set group =>   6
Atom 109H    basis set group =>   6
Atom 110H    basis set group =>   6
Atom 111H    basis set group =>   6
Atom 112H    basis set group =>   6
Atom 113H    basis set group =>   6
Atom 114H    basis set group =>   6
Atom 115H    basis set group =>   6
Atom 116H    basis set group =>   6
Atom 117H    basis set group =>   6
Atom 118H    basis set group =>   6
Atom 119H    basis set group =>   6
Atom 120H    basis set group =>   6
Atom 121H    basis set group =>   6
Atom 122H    basis set group =>   6
Atom 123H    basis set group =>   6
Atom 124H    basis set group =>   6
Atom 125H    basis set group =>   6
Atom 126H    basis set group =>   6
------------------------------------------------------------------------------
                           ORCA GTO INTEGRAL CALCULATION
                           -- RI-GTO INTEGRALS CHOSEN --
------------------------------------------------------------------------------

                         BASIS SET STATISTICS AND STARTUP INFO

Gaussian basis set:
 # of primitive gaussian shells          ... 2011
 # of primitive gaussian functions       ... 4403
 # of contracted shells                  ... 1113
 # of contracted basis functions         ... 2913
 Highest angular momentum                ...    3
 Maximum contraction depth               ...    8
Auxiliary gaussian basis set:
 # of primitive gaussian shells          ... 2383
 # of primitive gaussian functions       ... 6601
 # of contracted shells                  ... 1485
 # of contracted aux-basis functions     ... 4583
 Highest angular momentum                ...    4
 Maximum contraction depth               ...   12
Ratio of auxiliary to basis functions    ...  1.57
Integral package used                  ... LIBINT
 One Electron integrals                  ... done
 Ordering auxiliary basis shells         ... done
 Integral threshhold             Thresh  ...  2.500e-11
 Primitive cut-off               TCut    ...  2.500e-12
 Pre-screening matrix                    ... done
 Shell pair data                         ... 
 Ordering of the shell pairs             ... done (   0.053 sec) 227047 of 619941 pairs
 Determination of significant pairs      ... done (   0.002 sec)
 Creation of shell pair data             ... done (   0.027 sec)
 Storage of shell pair data              ... done (   0.036 sec)
 Shell pair data done in (   0.117 sec)
 Computing two index integrals           ... done
 Cholesky decomposition of the V-matrix  ... done


Timings:
 Total evaluation time                   ...  10.367 sec (  0.173 min)
 One electron matrix time                ...   3.799 sec (  0.063 min) = 36.6%
 Schwartz matrix evaluation time         ...   5.211 sec (  0.087 min) = 50.3%
 Two index repulsion integral time       ...   0.504 sec (  0.008 min) =  4.9%
 Cholesky decomposition of V             ...   0.718 sec (  0.012 min) =  6.9%
 Three index repulsion integral time     ...   0.000 sec (  0.000 min) =  0.0%

-------------------------------------------------------------------------------
                                 ORCA SCF
-------------------------------------------------------------------------------

------------
SCF SETTINGS
------------
Hamiltonian:
 Density Functional     Method          .... DFT(GTOs)
 Exchange Functional    Exchange        .... B88
   X-Alpha parameter    XAlpha          ....  0.666667
   Becke's b parameter  XBeta           ....  0.004200
 Correlation Functional Correlation     .... LYP
 LDA part of GGA corr.  LDAOpt          .... VWN-5
 Gradients option       PostSCFGGA      .... off
 Hybrid DFT is turned on
   Fraction HF Exchange ScalHFX         ....  0.200000
   Scaling of DF-GGA-X  ScalDFX         ....  0.720000
   Scaling of DF-GGA-C  ScalDFC         ....  0.810000
   Scaling of DF-LDA-C  ScalLDAC        ....  1.000000
   Perturbative correction              ....  0.000000
   Density functional embedding theory  .... OFF
   NL short-range parameter             ....  4.800000
 RI-approximation to the Coulomb term is turned on
   Number of auxiliary basis functions  .... 4583
   RIJ-COSX (HFX calculated with COS-X)).... on


General Settings:
 Integral files         IntName         .... BTTPC-Br
 Hartree-Fock type      HFTyp           .... RHF
 Total Charge           Charge          ....    0
 Multiplicity           Mult            ....    1
 Number of Electrons    NEL             ....  682
 Basis Dimension        Dim             .... 2913
 Nuclear Repulsion      ENuc            ....  17918.5985399984 Eh

Convergence Acceleration:
 DIIS                   CNVDIIS         .... on
   Start iteration      DIISMaxIt       ....    12
   Startup error        DIISStart       ....  0.200000
   # of expansion vecs  DIISMaxEq       ....     5
   Bias factor          DIISBfac        ....   1.050
   Max. coefficient     DIISMaxC        ....  10.000
 Newton-Raphson         CNVNR           .... off
 SOSCF                  CNVSOSCF        .... on
   Start iteration      SOSCFMaxIt      ....   150
   Startup grad/error   SOSCFStart      ....  0.003300
 Level Shifting         CNVShift        .... on
   Level shift para.    LevelShift      ....    0.2500
   Turn off err/grad.   ShiftErr        ....    0.0010
 Zerner damping         CNVZerner       .... off
 Static damping         CNVDamp         .... on
   Fraction old density DampFac         ....    0.7000
   Max. Damping (<1)    DampMax         ....    0.9800
   Min. Damping (>=0)   DampMin         ....    0.0000
   Turn off err/grad.   DampErr         ....    0.1000
 Fernandez-Rico         CNVRico         .... off

SCF Procedure:
 Maximum # iterations   MaxIter         ....   125
 SCF integral mode      SCFMode         .... Direct
   Integral package                     .... LIBINT
 Reset frequency        DirectResetFreq ....    20
 Integral Threshold     Thresh          ....  2.500e-11 Eh
 Primitive CutOff       TCut            ....  2.500e-12 Eh

Convergence Tolerance:
 Convergence Check Mode ConvCheckMode   .... Total+1el-Energy
 Convergence forced     ConvForced      .... 1
 Energy Change          TolE            ....  1.000e-08 Eh
 1-El. energy change                    ....  1.000e-05 Eh
 Orbital Gradient       TolG            ....  1.000e-05
 Orbital Rotation angle TolX            ....  1.000e-05
 DIIS Error             TolErr          ....  5.000e-07


Diagonalization of the overlap matrix:
Smallest eigenvalue                        ... 1.820e-06
Time for diagonalization                   ...    5.268 sec
Threshold for overlap eigenvalues          ... 1.000e-08
Number of eigenvalues below threshold      ... 0
Time for construction of square roots      ...    1.587 sec
Total time needed                          ...    6.879 sec

-------------------
DFT GRID GENERATION
-------------------

General Integration Accuracy     IntAcc      ...  4.670
Radial Grid Type                 RadialGrid  ... Gauss-Chebyshev
Angular Grid (max. acc.)         AngularGrid ... Lebedev-302
Angular grid pruning method      GridPruning ... 3 (G Style)
Weight generation scheme         WeightScheme... Becke
Basis function cutoff            BFCut       ...    1.0000e-11
Integration weight cutoff        WCut        ...    1.0000e-14
Grids for H and He will be reduced by one unit

# of grid points (after initial pruning)     ... 676178 (   2.0 sec)
# of grid points (after weights+screening)   ... 562769 (  37.3 sec)
nearest neighbour list constructed           ...    0.0 sec
Grid point re-assignment to atoms done       ...    0.1 sec
Grid point division into batches done        ...    1.9 sec
Reduced shell lists constructed in   23.6 sec

Total number of grid points                  ...   562769
Total number of batches                      ...     8859
Average number of points per batch           ...       63
Average number of grid points per atom       ...     4431
Average number of shells per batch           ...   210.37 (18.90%)
Average number of basis functions per batch  ...   510.27 (17.52%)
Average number of large shells per batch     ...   117.32 (55.77%)
Average number of large basis fcns per batch ...   290.62 (56.95%)
Maximum spatial batch extension              ...  22.36, 20.99, 21.19 au
Average spatial batch extension              ...   2.03,  1.98,  2.05 au

Time for grid setup =   63.028 sec

------------------------------
INITIAL GUESS: MODEL POTENTIAL
------------------------------
Loading Hartree-Fock densities                     ... done
Calculating cut-offs                               ... done
Setting up the integral package                    ... done
Initializing the effective Hamiltonian             ... done
Starting the Coulomb interaction                   ... done (  52.7 sec)
Reading the grid                                   ... done
Mapping shells                                     ... done
Starting the XC term evaluation                    ... done (  38.1 sec)
  promolecular density results
     # of electrons  =    681.978884205
     EX              =   -766.199262673
     EC              =    -25.226456805
     EX+EC           =   -791.425719478
Transforming the Hamiltonian                       ... done (   1.5 sec)
Diagonalizing the Hamiltonian                      ... done (   4.9 sec)
Back transforming the eigenvectors                 ... done (   0.7 sec)
Now organizing SCF variables                       ... done
                      ------------------
                      INITIAL GUESS DONE ( 162.1 sec)
                      ------------------
--------------------
COSX GRID GENERATION
--------------------

General Integration Accuracy     IntAcc      ...  3.340
Radial Grid Type                 RadialGrid  ... Gauss-Chebyshev
Angular Grid (max. acc.)         AngularGrid ... Lebedev-50
Angular grid pruning method      GridPruning ... 3 (G Style)
Weight generation scheme         WeightScheme... Becke
Basis function cutoff            BFCut       ...    1.0000e-11
Integration weight cutoff        WCut        ...    1.0000e-14
Grids for H and He will be reduced by one unit

# of grid points (after initial pruning)     ...  63914 (   0.1 sec)
# of grid points (after weights+screening)   ...  55884 (   3.5 sec)
nearest neighbour list constructed           ...    0.0 sec
Grid point re-assignment to atoms done       ...    0.0 sec
Grid point division into batches done        ...    0.0 sec
Reduced shell lists constructed in    3.8 sec

Total number of grid points                  ...    55884
Total number of batches                      ...      936
Average number of points per batch           ...       59
Average number of grid points per atom       ...      440
Average number of shells per batch           ...   256.41 (23.04%)
Average number of basis functions per batch  ...   632.21 (21.70%)
Average number of large shells per batch     ...   144.07 (56.19%)
Average number of large basis fcns per batch ...   362.24 (57.30%)
Maximum spatial batch extension              ...  20.57, 21.26, 21.69 au
Average spatial batch extension              ...   4.13,  4.07,  4.37 au

Overlap Fitting                  UseSFitting ... on
Constructing numerical overlap ... done (      3.6 sec)
Inverting numerical overlap    ... done (      0.5 sec)
Obtaining analytic overlap     ... done (      0.0 sec)
Final contraction and storage  ... done (      0.8 sec)


General Integration Accuracy     IntAcc      ...  3.670
Radial Grid Type                 RadialGrid  ... Gauss-Chebyshev
Angular Grid (max. acc.)         AngularGrid ... Lebedev-50
Angular grid pruning method      GridPruning ... 3 (G Style)
Weight generation scheme         WeightScheme... Becke
Basis function cutoff            BFCut       ...    1.0000e-11
Integration weight cutoff        WCut        ...    1.0000e-14
Grids for H and He will be reduced by one unit

# of grid points (after initial pruning)     ...  79978 (   0.1 sec)
# of grid points (after weights+screening)   ...  69630 (   4.4 sec)
nearest neighbour list constructed           ...    0.0 sec
Grid point re-assignment to atoms done       ...    0.0 sec
Grid point division into batches done        ...    0.0 sec
Reduced shell lists constructed in    4.5 sec

Total number of grid points                  ...    69630
Total number of batches                      ...     1150
Average number of points per batch           ...       60
Average number of grid points per atom       ...      548
Average number of shells per batch           ...   250.94 (22.55%)
Average number of basis functions per batch  ...   617.13 (21.19%)
Average number of large shells per batch     ...   140.57 (56.02%)
Average number of large basis fcns per batch ...   352.61 (57.14%)
Maximum spatial batch extension              ...  18.10, 22.24, 23.78 au
Average spatial batch extension              ...   3.87,  3.83,  4.08 au

Overlap Fitting                  UseSFitting ... on
Constructing numerical overlap ... done (      4.6 sec)
Inverting numerical overlap    ... done (      0.5 sec)
Obtaining analytic overlap     ... done (      0.0 sec)
Final contraction and storage  ... done (      0.8 sec)


General Integration Accuracy     IntAcc      ...  4.010
Radial Grid Type                 RadialGrid  ... Gauss-Chebyshev
Angular Grid (max. acc.)         AngularGrid ... Lebedev-110
Angular grid pruning method      GridPruning ... 3 (G Style)
Weight generation scheme         WeightScheme... Becke
Basis function cutoff            BFCut       ...    1.0000e-11
Integration weight cutoff        WCut        ...    1.0000e-14
Grids for H and He will be reduced by one unit

# of grid points (after initial pruning)     ... 154520 (   0.3 sec)
# of grid points (after weights+screening)   ... 133388 (   8.4 sec)
nearest neighbour list constructed           ...    0.0 sec
Grid point re-assignment to atoms done       ...    0.0 sec
Grid point division into batches done        ...    0.1 sec
Reduced shell lists constructed in    7.4 sec

Total number of grid points                  ...   133388
Total number of batches                      ...     2153
Average number of points per batch           ...       61
Average number of grid points per atom       ...     1050
Average number of shells per batch           ...   236.76 (21.27%)
Average number of basis functions per batch  ...   580.91 (19.94%)
Average number of large shells per batch     ...   133.22 (56.27%)
Average number of large basis fcns per batch ...   333.72 (57.45%)
Maximum spatial batch extension              ...  21.17, 20.68, 22.61 au
Average spatial batch extension              ...   3.24,  3.16,  3.35 au

Overlap Fitting                  UseSFitting ... on
Constructing numerical overlap ... done (      7.5 sec)
Inverting numerical overlap    ... done (      0.5 sec)
Obtaining analytic overlap     ... done (      0.0 sec)
Final contraction and storage  ... done (      0.8 sec)

Time for X-Grid setup             =   52.191 sec
--------------
SCF ITERATIONS
--------------
ITER       Energy         Delta-E        Max-DP      RMS-DP      [F,P]     Damp
               ***  Starting incremental Fock matrix formation  ***
  0 -10985.7735280327   0.000000000000 0.21033878  0.00097398  0.2999794 0.7000
  1 -10986.8464405244  -1.072912491694 0.21611778  0.00083415  0.1041066 0.7000
                               ***Turning on DIIS***
  2 -10987.2224091738  -0.375968649383 0.39174159  0.00123577  0.0463458 0.0000
  3 -10987.8482381303  -0.625828956487 0.17533511  0.00076953  0.0586399 0.0000
  4 -10987.9872511688  -0.139013038526 0.06568071  0.00026300  0.0373169 0.0000
  5 -10988.0028915591  -0.015640390295 0.02953772  0.00011867  0.0120813 0.0000
  6 -10988.0041537785  -0.001262219408 0.01122611  0.00003844  0.0040415 0.0000
                      *** Initiating the SOSCF procedure ***
                           *** Shutting down DIIS ***
                      *** Re-Reading the Fockian *** 
                      *** Removing any level shift *** 
ITER      Energy       Delta-E        Grad      Rot      Max-DP    RMS-DP
  7 -10988.00437414  -0.0002203571  0.000555  0.000555  0.005829  0.000024
               *** Restarting incremental Fock matrix formation ***
  8 -10988.00445146  -0.0000773255  0.000216  0.001702  0.013484  0.000063
  9 -10988.00440405   0.0000474128  0.000503  0.001185  0.003586  0.000011
 10 -10988.00446331  -0.0000592625  0.000093  0.000590  0.002149  0.000010
 11 -10988.00445796   0.0000053488  0.000143  0.000315  0.000780  0.000004
 12 -10988.00446508  -0.0000071174  0.000024  0.000183  0.000914  0.000003
 13 -10988.00446447   0.0000006143  0.000041  0.000107  0.000408  0.000002
 14 -10988.00446532  -0.0000008513  0.000008  0.000067  0.000563  0.000001
 15 -10988.00446519   0.0000001310  0.000017  0.000036  0.000411  0.000001
 16 -10988.00446524  -0.0000000581  0.000003  0.000021  0.001098  0.000003
 17 -10988.00446527  -0.0000000235  0.000006  0.000018  0.000346  0.000001
                  ***Gradient check signals convergence***
              ***Rediagonalizing the Fockian in SOSCF/NRSCF***

               *****************************************************
               *                     SUCCESS                       *
               *           SCF CONVERGED AFTER  18 CYCLES          *
               *****************************************************

Setting up the final grid:

General Integration Accuracy     IntAcc      ...  5.010
Radial Grid Type                 RadialGrid  ... Gauss-Chebyshev
Angular Grid (max. acc.)         AngularGrid ... Lebedev-434
Angular grid pruning method      GridPruning ... 3 (G Style)
Weight generation scheme         WeightScheme... Becke
Basis function cutoff            BFCut       ...    1.0000e-11
Integration weight cutoff        WCut        ...    1.0000e-14
Grids for H and He will be reduced by one unit

# of grid points (after initial pruning)     ... 1199652 (   2.3 sec)
# of grid points (after weights+screening)   ... 994357 (  66.8 sec)
nearest neighbour list constructed           ...    0.0 sec
Grid point re-assignment to atoms done       ...    0.2 sec
Grid point division into batches done        ...    6.3 sec
Reduced shell lists constructed in   44.7 sec

Total number of grid points                  ...   994357
Total number of batches                      ...    15602
Average number of points per batch           ...       63
Average number of grid points per atom       ...     7830
Average number of shells per batch           ...   203.01 (18.24%)
Average number of basis functions per batch  ...   489.85 (16.82%)
Average number of large shells per batch     ...   112.98 (55.65%)
Average number of large basis fcns per batch ...   278.82 (56.92%)
Maximum spatial batch extension              ...  23.23, 22.46, 22.98 au
Average spatial batch extension              ...   1.64,  1.62,  1.66 au

Final grid set up in  113.9 sec
Final integration                            ... done (  88.5 sec)
Change in XC energy                          ...    -0.000095364
Integrated number of electrons               ...   681.999210641
Previous integrated no of electrons          ...   682.000414075
Old exchange energy                            =   -154.373387158 Eh
New exchange energy                            =   -154.375334229 Eh
Exchange energy change after final integration =     -0.001947071 Eh
Total energy after final integration           = -10988.006507810 Eh
Final COS-X integration done in                =  2582.138 sec

----------------
TOTAL SCF ENERGY
----------------

Total Energy       :       -10988.00650781 Eh         -298998.85789 eV

Components:
Nuclear Repulsion  :        17918.59854000 Eh          487589.85486 eV
Electronic Energy  :       -28906.60504781 Eh         -786588.71275 eV
One Electron Energy:       -50892.27527775 Eh        -1384849.21468 eV
Two Electron Energy:        21985.67022994 Eh          598260.50193 eV

Virial components:
Potential Energy   :       -21952.56987708 Eh         -597359.79554 eV
Kinetic Energy     :        10964.56336927 Eh          298360.93765 eV
Virial Ratio       :            2.00213808


DFT components:
N(Alpha)           :      340.999605320715 electrons
N(Beta)            :      340.999605320715 electrons
N(Total)           :      681.999210641430 electrons
E(X)               :     -613.671966743701 Eh       
E(C)               :      -29.572389517526 Eh       
E(XC)              :     -643.244356261227 Eh       
DFET-embed. en.    :        0.000000000000 Eh       

---------------
SCF CONVERGENCE
---------------

  Last Energy change         ...   -1.0832e-07  Tolerance :   1.0000e-08
  Last MAX-Density change    ...    7.5495e-15  Tolerance :   1.0000e-07
  Last RMS-Density change    ...    1.4536e-17  Tolerance :   5.0000e-09
  Last Orbital Gradient      ...    1.1772e-06  Tolerance :   1.0000e-05
  Last Orbital Rotation      ...    4.9990e-06  Tolerance :   1.0000e-05

             **** THE GBW FILE WAS UPDATED (BTTPC-Br.gbw) ****
             **** DENSITY FILE WAS UPDATED (BTTPC-Br.scfp) ****
             **** ENERGY FILE WAS UPDATED (BTTPC-Br.en.tmp) ****
             **** THE GBW FILE WAS UPDATED (BTTPC-Br.gbw) ****
             **** DENSITY FILE WAS UPDATED (BTTPC-Br.scfp) ****
----------------
ORBITAL ENERGIES
----------------

  NO   OCC          E(Eh)            E(eV) 
   0   2.0000    -482.891371    -13140.1422 
   1   2.0000    -482.890595    -13140.1211 
   2   2.0000     -88.946890     -2420.3679 
   3   2.0000     -88.917092     -2419.5571 
   4   2.0000     -88.915948     -2419.5260 
   5   2.0000     -88.911067     -2419.3931 
   6   2.0000     -88.908267     -2419.3169 
   7   2.0000     -88.884323     -2418.6654 
   8   2.0000     -88.819643     -2416.9054 
   9   2.0000     -62.538267     -1701.7528 
  10   2.0000     -62.537485     -1701.7315 
  11   2.0000     -56.353868     -1533.4667 
  12   2.0000     -56.353089     -1533.4455 
  13   2.0000     -56.351249     -1533.3954 
  14   2.0000     -56.351197     -1533.3940 
  15   2.0000     -56.350470     -1533.3743 
  16   2.0000     -56.350413     -1533.3727 
  17   2.0000     -19.137805      -520.7662 
  18   2.0000     -19.130349      -520.5633 
  19   2.0000     -14.408368      -392.0716 
  20   2.0000     -14.403302      -391.9338 
  21   2.0000     -14.354699      -390.6112 
  22   2.0000     -14.354004      -390.5923 
  23   2.0000     -14.332612      -390.0102 
  24   2.0000     -14.330037      -389.9401 
  25   2.0000     -14.326065      -389.8320 
  26   2.0000     -14.325620      -389.8199 
  27   2.0000     -10.283759      -279.8353 
  28   2.0000     -10.279520      -279.7199 
  29   2.0000     -10.278270      -279.6859 
  30   2.0000     -10.275033      -279.5979 
  31   2.0000     -10.262619      -279.2601 
  32   2.0000     -10.260984      -279.2156 
  33   2.0000     -10.259518      -279.1757 
  34   2.0000     -10.254924      -279.0507 
  35   2.0000     -10.253908      -279.0230 
  36   2.0000     -10.252933      -278.9965 
  37   2.0000     -10.250480      -278.9297 
  38   2.0000     -10.245649      -278.7983 
  39   2.0000     -10.245094      -278.7832 
  40   2.0000     -10.244170      -278.7580 
  41   2.0000     -10.242811      -278.7211 
  42   2.0000     -10.241858      -278.6951 
  43   2.0000     -10.241581      -278.6876 
  44   2.0000     -10.240453      -278.6569 
  45   2.0000     -10.240328      -278.6535 
  46   2.0000     -10.239949      -278.6432 
  47   2.0000     -10.236869      -278.5594 
  48   2.0000     -10.233355      -278.4637 
  49   2.0000     -10.230998      -278.3996 
  50   2.0000     -10.230682      -278.3910 
  51   2.0000     -10.230433      -278.3842 
  52   2.0000     -10.230050      -278.3738 
  53   2.0000     -10.230002      -278.3725 
  54   2.0000     -10.229267      -278.3525 
  55   2.0000     -10.228632      -278.3352 
  56   2.0000     -10.227045      -278.2920 
  57   2.0000     -10.225935      -278.2618 
  58   2.0000     -10.225383      -278.2468 
  59   2.0000     -10.225139      -278.2402 
  60   2.0000     -10.225119      -278.2396 
  61   2.0000     -10.224350      -278.2187 
  62   2.0000     -10.224181      -278.2141 
  63   2.0000     -10.222699      -278.1738 
  64   2.0000     -10.221521      -278.1417 
  65   2.0000     -10.220308      -278.1087 
  66   2.0000     -10.218456      -278.0583 
  67   2.0000     -10.217538      -278.0333 
[...]
   330a -> 341a  :     0.060377 (c= -0.24571730)
   330a -> 342a  :     0.165765 (c=  0.40714212)
   331a -> 342a  :     0.031933 (c=  0.17869837)
   332a -> 342a  :     0.134217 (c= -0.36635661)
   333a -> 343a  :     0.099575 (c= -0.31555475)
   333a -> 344a  :     0.011466 (c= -0.10708109)
   334a -> 344a  :     0.054214 (c= -0.23283926)
   335a -> 344a  :     0.041690 (c=  0.20418157)
   336a -> 343a  :     0.019285 (c= -0.13887010)
   336a -> 344a  :     0.025745 (c=  0.16045257)
   338a -> 346a  :     0.020670 (c=  0.14377185)
   340a -> 347a  :     0.048295 (c= -0.21976098)
   340a -> 348a  :     0.060505 (c= -0.24597780)

STATE 46:  E=   0.132518 au      3.606 eV    29084.4 cm**-1
   332a -> 342a  :     0.031456 (c= -0.17735782)
   334a -> 343a  :     0.067280 (c= -0.25938311)
   335a -> 344a  :     0.012692 (c= -0.11265903)
   336a -> 343a  :     0.041403 (c=  0.20347789)
   336a -> 344a  :     0.097328 (c=  0.31197488)
   338a -> 346a  :     0.043016 (c=  0.20740275)
   340a -> 347a  :     0.145471 (c= -0.38140671)
   340a -> 348a  :     0.421364 (c=  0.64912564)

STATE 47:  E=   0.133525 au      3.633 eV    29305.3 cm**-1
   326a -> 341a  :     0.012274 (c= -0.11078668)
   330a -> 342a  :     0.067380 (c=  0.25957730)
   331a -> 342a  :     0.012862 (c=  0.11341047)
   332a -> 342a  :     0.020564 (c=  0.14340188)
   333a -> 343a  :     0.012994 (c= -0.11398907)
   333a -> 344a  :     0.023545 (c= -0.15344306)
   334a -> 343a  :     0.074458 (c=  0.27286985)
   334a -> 344a  :     0.096992 (c=  0.31143475)
   335a -> 344a  :     0.071502 (c=  0.26739799)
   335a -> 345a  :     0.024302 (c= -0.15589049)
   336a -> 343a  :     0.044165 (c= -0.21015509)
   336a -> 344a  :     0.100056 (c= -0.31631642)
   336a -> 345a  :     0.014216 (c= -0.11923058)
   340a -> 348a  :     0.295762 (c=  0.54384043)

STATE 48:  E=   0.134252 au      3.653 eV    29465.0 cm**-1
   327a -> 341a  :     0.220378 (c=  0.46944486)
   328a -> 344a  :     0.027351 (c=  0.16538157)
   331a -> 342a  :     0.025908 (c=  0.16096080)
   332a -> 342a  :     0.011755 (c= -0.10842069)
   333a -> 344a  :     0.018301 (c=  0.13528271)
   334a -> 343a  :     0.065472 (c= -0.25587592)
   334a -> 344a  :     0.319039 (c=  0.56483552)
   334a -> 345a  :     0.014046 (c= -0.11851509)
   336a -> 344a  :     0.024569 (c=  0.15674550)
   337a -> 346a  :     0.044571 (c=  0.21111842)
   340a -> 348a  :     0.040118 (c= -0.20029576)

STATE 49:  E=   0.135629 au      3.691 eV    29767.0 cm**-1
   326a -> 341a  :     0.015813 (c= -0.12574787)
   327a -> 341a  :     0.108198 (c=  0.32893467)
   327a -> 342a  :     0.013837 (c=  0.11762960)
   328a -> 342a  :     0.011964 (c= -0.10937895)
   329a -> 341a  :     0.027480 (c= -0.16577227)
   331a -> 342a  :     0.063535 (c=  0.25206143)
   333a -> 343a  :     0.324846 (c=  0.56995253)
   333a -> 345a  :     0.017007 (c=  0.13041060)
   334a -> 344a  :     0.143798 (c= -0.37920742)
   335a -> 342a  :     0.010421 (c=  0.10208133)
   335a -> 343a  :     0.026046 (c=  0.16138829)
   335a -> 344a  :     0.060868 (c=  0.24671377)
   336a -> 343a  :     0.037936 (c=  0.19477198)
   338a -> 346a  :     0.015082 (c= -0.12280769)

STATE 50:  E=   0.136211 au      3.706 eV    29894.9 cm**-1
   326a -> 341a  :     0.018299 (c= -0.13527240)
   327a -> 341a  :     0.134333 (c=  0.36651524)
   328a -> 341a  :     0.032311 (c= -0.17975331)
   328a -> 344a  :     0.020598 (c= -0.14351891)
   329a -> 342a  :     0.030424 (c= -0.17442475)
   330a -> 342a  :     0.029870 (c= -0.17282866)
   332a -> 344a  :     0.017516 (c= -0.13234822)
   333a -> 343a  :     0.034707 (c= -0.18629735)
   333a -> 344a  :     0.019703 (c=  0.14036795)
   333a -> 345a  :     0.019932 (c= -0.14117992)
   334a -> 343a  :     0.014961 (c=  0.12231452)
   334a -> 344a  :     0.065433 (c= -0.25579899)
   334a -> 345a  :     0.109582 (c= -0.33103147)
   335a -> 343a  :     0.017350 (c= -0.13171769)
   335a -> 344a  :     0.010442 (c= -0.10218705)
   336a -> 345a  :     0.014513 (c= -0.12046869)
   337a -> 346a  :     0.068828 (c=  0.26235168)
   340a -> 347a  :     0.157936 (c=  0.39741223)
   340a -> 348a  :     0.046207 (c=  0.21495883)


-----------------------------
TD-DFT/TDA-EXCITATION SPECTRA
-----------------------------

Center of mass = ( -7.9173, 13.2851,  0.0812)
Calculating the Dipole integrals                  ... done
Transforming integrals                            ... done
Calculating the Linear Momentum integrals         ... done
Transforming integrals                            ... done
Calculating angular momentum integrals            ... done
Transforming integrals                            ... done

-----------------------------------------------------------------------------
         ABSORPTION SPECTRUM VIA TRANSITION ELECTRIC DIPOLE MOMENTS
-----------------------------------------------------------------------------
State   Energy    Wavelength  fosc         T2        TX        TY        TZ  
        (cm-1)      (nm)                 (au**2)    (au)      (au)      (au) 
-----------------------------------------------------------------------------
   1   13138.9    761.1   0.018848000   0.47226   0.57098  -0.30624  -0.22905
   2   14597.4    685.1   0.024387641   0.55001  -0.06859   0.73544   0.06663
   3   15841.4    631.3   0.807315147  16.77744  -1.35311   3.86607   0.00423
   4   16952.4    589.9   0.087029154   1.69008  -0.03931  -1.29797   0.06172
   5   17391.8    575.0   0.422144133   7.99084  -0.63558   2.74575  -0.21851
   6   18438.8    542.3   0.043115439   0.76980   0.57634  -0.66142   0.01240
   7   18974.5    527.0   0.338582860   5.87450   0.47836  -2.35380   0.32453
   8   19972.0    500.7   0.247947454   4.08709   0.79203  -1.84997  -0.19339
   9   20136.9    496.6   0.012492225   0.20423   0.32774  -0.29870  -0.08716
  10   20238.0    494.1   0.043634708   0.70981  -0.10993   0.83530   0.00121
  11   20984.0    476.6   0.174051808   2.73065   0.84945  -1.41721  -0.02445
  12   21706.6    460.7   0.034340712   0.52083  -0.22280  -0.39777   0.55943
  13   21785.2    459.0   0.012881981   0.19467   0.12781  -0.36888   0.20557
  14   22373.3    447.0   0.024154981   0.35543   0.07627   0.51221   0.29539
  15   22776.0    439.1   0.091831616   1.32737   0.95846  -0.60294   0.21255
  16   22897.9    436.7   0.013963840   0.20076  -0.42818   0.07918  -0.10562
  17   23222.0    430.6   0.022558392   0.31980  -0.47175  -0.19585   0.24268
  18   23478.0    425.9   0.068672401   0.96293  -0.53017   0.71146  -0.41914
  19   24042.3    415.9   0.097522340   1.33537   0.90295  -0.61739   0.37267
  20   24083.4    415.2   0.050524209   0.69065   0.76114  -0.31805   0.10080
  21   24329.4    411.0   0.018742957   0.25362   0.27755   0.39863   0.13295
  22   24373.6    410.3   0.048487461   0.65492   0.61062  -0.42304   0.32108
  23   24678.2    405.2   0.003543205   0.04727   0.13292  -0.07202  -0.15624
  24   24924.7    401.2   0.034267617   0.45261   0.32336   0.54723  -0.22043
  25   25039.0    399.4   0.024668134   0.32434  -0.37794   0.42377   0.04374
  26   25262.3    395.8   0.034007087   0.44317  -0.34008   0.43174  -0.37566
  27   25449.9    392.9   0.017811520   0.23040   0.44711  -0.17448   0.00736
  28   25719.9    388.8   0.026261538   0.33615  -0.54045   0.14650   0.15033
  29   25789.5    387.8   0.078851945   1.00657  -0.82533   0.32285   0.47029
  30   25855.6    386.8   0.031837671   0.40538   0.41990  -0.47860  -0.00286
  31   26010.1    384.5   0.028428766   0.35983   0.11474   0.58878  -0.00123
  32   26127.2    382.7   0.116432872   1.46710  -1.03116   0.62825   0.09541
  33   26573.9    376.3   0.015199114   0.18829   0.27178  -0.33106   0.06946
  34   27191.1    367.8   0.093600148   1.13325  -0.00665  -0.93808   0.50321
  35   27418.6    364.7   0.106147522   1.27450  -0.04456   1.10947  -0.20396
  36   27693.6    361.1   0.013989854   0.16631   0.12240  -0.38759   0.03321
  37   27918.3    358.2   0.024295075   0.28649   0.31054  -0.37191   0.22744
  38   28209.7    354.5   0.024617502   0.28729  -0.31139   0.19180  -0.39184
  39   28253.7    353.9   0.133721384   1.55812  -0.57170   0.85939  -0.70195
  40   28398.1    352.1   0.068442612   0.79344  -0.85008   0.25849  -0.06305
  41   28530.4    350.5   0.027435899   0.31658   0.04121  -0.32625  -0.45656
  42   28614.4    349.5   0.002739555   0.03152   0.09515   0.14219   0.04742
  43   28761.2    347.7   0.070227403   0.80385  -0.81061   0.36064  -0.12925
  44   28820.7    347.0   0.007021233   0.08020   0.03805  -0.06360  -0.27333
  45   28955.0    345.4   0.031377758   0.35676  -0.42373  -0.00084  -0.42096
  46   29084.4    343.8   0.004428268   0.05012  -0.04505   0.14729  -0.16248
  47   29305.3    341.2   0.029556224   0.33203  -0.24186   0.46465   0.24008
  48   29465.0    339.4   0.113900403   1.27261  -0.56842   0.76301  -0.60608
  49   29767.0    335.9   0.040938458   0.45276  -0.55039   0.38268  -0.05816
  50   29894.9    334.5   0.137274704   1.51171   0.27498  -1.14374   0.35770

-----------------------------------------------------------------------------
         ABSORPTION SPECTRUM VIA TRANSITION VELOCITY DIPOLE MOMENTS
-----------------------------------------------------------------------------
State   Energy    Wavelength   fosc        P2         PX        PY        PZ  
        (cm-1)      (nm)                 (au**2)     (au)      (au)      (au) 
-----------------------------------------------------------------------------
   1   13138.9    761.1   0.061571394   0.00553   0.05666   0.02130  -0.04318
   2   14597.4    685.1   0.001873974   0.00019   0.00661  -0.00864   0.00828
   3   15841.4    631.3   0.109760924   0.01188   0.00476  -0.10450   0.03068
   4   16952.4    589.9   0.009912429   0.00115  -0.02878   0.00946   0.01518
   5   17391.8    575.0   0.080401993   0.00956   0.05753  -0.07593  -0.02196
   6   18438.8    542.3   0.012295346   0.00155   0.02835   0.02641  -0.00694
   7   18974.5    527.0   0.127253086   0.01650  -0.09617   0.07962   0.03026
   8   19972.0    500.7   0.132186513   0.01804   0.04417   0.11716  -0.04864
   9   20136.9    496.6   0.004833418   0.00067   0.01536   0.00655   0.01966
  10   20238.0    494.1   0.008737729   0.00121   0.00880  -0.03362  -0.00093
  11   20984.0    476.6   0.086364875   0.01239   0.02415   0.10106  -0.03986
  12   21706.6    460.7   0.090807704   0.01347  -0.09586   0.01410   0.06390
  13   21785.2    459.0   0.013152071   0.00196  -0.00919   0.03630   0.02358
  14   22373.3    447.0   0.005451157   0.00083  -0.02869  -0.00144   0.00292
  15   22776.0    439.1   0.005788958   0.00090  -0.00023  -0.01204  -0.02750
  16   22897.9    436.7   0.001674534   0.00026  -0.01241   0.00894   0.00530
  17   23222.0    430.6   0.048670620   0.00772  -0.07472   0.04582   0.00649
  18   23478.0    425.9   0.016583460   0.00266   0.03513  -0.03184  -0.02032
  19   24042.3    415.9   0.007032560   0.00116  -0.02740   0.01935  -0.00554
  20   24083.4    415.2   0.004570555   0.00075   0.01235   0.00095  -0.02447
  21   24329.4    411.0   0.006792405   0.00113  -0.02444   0.01908  -0.01296
  22   24373.6    410.3   0.010116622   0.00169   0.00503  -0.01760   0.03675
  23   24678.2    405.2   0.006836194   0.00115   0.02396   0.00730  -0.02293
  24   24924.7    401.2   0.020901037   0.00356   0.05402  -0.01003  -0.02328
  25   25039.0    399.4   0.005864213   0.00100  -0.02992  -0.00518  -0.00902
  26   25262.3    395.8   0.028546629   0.00493   0.04616  -0.02702  -0.04548
  27   25449.9    392.9   0.011228111   0.00195  -0.00766   0.03765  -0.02184
  28   25719.9    388.8   0.009136032   0.00161  -0.02704  -0.00256   0.02946
  29   25789.5    387.8   0.086126129   0.01518  -0.04984  -0.06109   0.09468
  30   25855.6    386.8   0.003725552   0.00066  -0.02333   0.00956   0.00478
  31   26010.1    384.5   0.012402101   0.00220   0.02389  -0.03945  -0.00879
  32   26127.2    382.7   0.027849201   0.00497  -0.03349  -0.05111   0.03520
  33   26573.9    376.3   0.001035435   0.00019  -0.00062   0.01276  -0.00498
  34   27191.1    367.8   0.112793999   0.02096  -0.08259   0.11851   0.00983
  35   27418.6    364.7   0.044797756   0.00839   0.04326  -0.06862  -0.04259
  36   27693.6    361.1   0.019424119   0.00368  -0.00092   0.06003  -0.00848
  37   27918.3    358.2   0.011243006   0.00215  -0.00631  -0.04235   0.01767
  38   28209.7    354.5   0.022963392   0.00443   0.03370  -0.05359  -0.02049
  39   28253.7    353.9   0.043639328   0.00843   0.05862  -0.06999  -0.00957
  40   28398.1    352.1   0.003117637   0.00061  -0.01479  -0.01336   0.01441
  41   28530.4    350.5   0.009277041   0.00181   0.04245  -0.00110  -0.00235
  42   28614.4    349.5   0.005218014   0.00102  -0.00310  -0.02430   0.02050
  43   28761.2    347.7   0.011644346   0.00229  -0.00505  -0.04204   0.02227
  44   28820.7    347.0   0.001625238   0.00032   0.01255   0.01053  -0.00719
  45   28955.0    345.4   0.005563619   0.00110   0.00424   0.00007  -0.03291
  46   29084.4    343.8   0.008363966   0.00166   0.01427  -0.03672   0.01050
  47   29305.3    341.2   0.006222024   0.00125  -0.01277   0.03205  -0.00748
  48   29465.0    339.4   0.067722288   0.01364   0.08979  -0.07418  -0.00853
  49   29767.0    335.9   0.017136219   0.00349  -0.01270   0.05105  -0.02682
  50   29894.9    334.5   0.027342129   0.00559  -0.05652   0.01329   0.04706

-------------------------------------------------------------------
                             CD SPECTRUM
-------------------------------------------------------------------
State  Energy     Wavelength     R         MX        MY        MZ   
       (cm-1)       (nm)     (1e40*cgs)   (au)      (au)      (au)  
-------------------------------------------------------------------
   1   13138.9    761.1    -18.42665   0.18586   0.23467   0.32022
   2   14597.4    685.1     12.66950   0.15895   0.07311  -0.23999
   3   15841.4    631.3     63.20848   0.20056   0.10582  -0.86859
   4   16952.4    589.9    182.68537  -0.06119  -0.28888   0.16412
   5   17391.8    575.0     98.90491   0.36822   0.11446  -0.59289
   6   18438.8    542.3      7.59341   0.07478   0.04464   0.20480
   7   18974.5    527.0     64.78712  -0.22876  -0.05193   0.38396
   8   19972.0    500.7     -4.36237  -0.03044  -0.06162   0.51261
   9   20136.9    496.6     19.13335   0.15019  -0.02401   0.18137
  10   20238.0    494.1      4.74325   0.22464   0.04189  -0.19790
  11   20984.0    476.6    -150.53644  -0.31222   0.03729   0.05104
  12   21706.6    460.7    -145.98519  -0.26942  -0.01130  -0.66885
  13   21785.2    459.0      8.21666  -0.23396  -0.02051   0.19343
  14   22373.3    447.0    -23.65225  -0.01281   0.01746  -0.19681
  15   22776.0    439.1     30.79880   0.21054   0.16418  -0.17630
  16   22897.9    436.7      4.19067   0.09808   0.07000  -0.42930
  17   23222.0    430.6     46.77936  -0.12959  -0.08549   0.08797
  18   23478.0    425.9     44.77460   0.02802   0.12044  -0.05758
  19   24042.3    415.9    -162.36833  -0.06742   0.23796  -0.36657
  20   24083.4    415.2    -20.45267   0.06695   0.18809  -0.34243
  21   24329.4    411.0     11.62921  -0.05145   0.10682  -0.02732
  22   24373.6    410.3    -131.57352  -0.28696   0.10171  -0.18947
  23   24678.2    405.2    -17.74073   0.22143  -0.06467   0.45903
  24   24924.7    401.2     54.19346   0.08113   0.20442   0.10502
  25   25039.0    399.4    -49.99305   0.00288  -0.27953   0.30874
  26   25262.3    395.8    -53.05491   0.16899  -0.09860   0.03327
  27   25449.9    392.9      3.21996   0.01802   0.00150  -0.13076
  28   25719.9    388.8     21.41356  -0.15554  -0.09331  -0.16611
  29   25789.5    387.8     96.74829  -0.46519  -0.12759  -0.29242
  30   25855.6    386.8    -18.61575   0.07493   0.14877  -0.08705
  31   26010.1    384.5     44.06188   0.22171   0.11507  -0.22194
  32   26127.2    382.7    -62.51357   0.01346  -0.17497  -0.09214
  33   26573.9    376.3     -7.45042  -0.03036   0.01825  -0.02173
  34   27191.1    367.8     22.96047  -0.29517  -0.01977   0.05603
  35   27418.6    364.7     93.69588   0.43039   0.22489   0.15486
  36   27693.6    361.1    -17.63518  -0.21916   0.03541   0.09458
  37   27918.3    358.2    -54.28291   0.07958   0.13944  -0.38688
  38   28209.7    354.5     26.53320   0.30013   0.34872  -0.21145
  39   28253.7    353.9    -239.40016   0.11373  -0.14510   0.45313
  40   28398.1    352.1    -31.01677   0.11137   0.03983  -0.29481
  41   28530.4    350.5    -10.09989  -0.09565  -0.19472   0.17743
  42   28614.4    349.5    -12.95739  -0.13967  -0.14036   0.12153
  43   28761.2    347.7    -56.46657   0.08845  -0.16295  -0.08276
  44   28820.7    347.0    -31.18639  -0.09168  -0.11889   0.25691
  45   28955.0    345.4      4.33122   0.15027   0.22308  -0.17353
  46   29084.4    343.8     10.90302  -0.00789  -0.06471  -0.19880
  47   29305.3    341.2     42.38662  -0.05592   0.09444   0.13536
  48   29465.0    339.4    -169.78311   0.17297  -0.10452   0.30038
  49   29767.0    335.9    -22.20493  -0.08438  -0.13098   0.74650
  50   29894.9    334.5     38.88992  -0.29816  -0.20405  -0.19261

Total run time:   214553.936 sec

           *** ORCA-CIS/TD-DFT FINISHED WITHOUT ERROR ***

-----------------------
CIS/TD-DFT TOTAL ENERGY
-----------------------

    E(SCF)  = -10988.006507810 Eh
    DE(CIS) =      0.059865421 Eh (Root  1)
    ----------------------------- ---------
    E(tot)  = -10987.946642389 Eh


-------------------------   --------------------
FINAL SINGLE POINT ENERGY    -10987.946642389312
-------------------------   --------------------


                            ***************************************
                            *     ORCA property calculations      *
                            ***************************************

                                    ---------------------
                                    Active property flags
                                    ---------------------
   (+) Dipole Moment


------------------------------------------------------------------------------
                       ORCA ELECTRIC PROPERTIES CALCULATION
------------------------------------------------------------------------------

Dipole Moment Calculation                       ... on
Quadrupole Moment Calculation                   ... off
Polarizability Calculation                      ... off
GBWName                                         ... BTTPC-Br.gbw
Electron density file                           ... BTTPC-Br.scfp
The origin for moment calculation is the CENTER OF MASS  = (-7.917306, 13.285145  0.081234)

-------------
DIPOLE MOMENT
-------------
                                X             Y             Z
Electronic contribution:    223.87017    -115.16154      24.18346
Nuclear contribution   :   -222.77382     114.53298     -22.75483
                        -----------------------------------------
Total Dipole Moment    :      1.09634      -0.62856       1.42863
                        -----------------------------------------
Magnitude (a.u.)       :      1.90736
Magnitude (Debye)      :      4.84812



--------------------
Rotational spectrum 
--------------------
 
Rotational constants in cm-1:     0.001045     0.000248     0.000222 
Rotational constants in MHz :    31.336179     7.429492     6.652981 

 Dipole components along the rotational axes: 
x,y,z [a.u.] :    -1.075882     0.956108     1.251542 
x,y,z [Debye]:    -2.734674     2.430233     3.181167 

 

Timings for individual modules:

Sum of individual times         ...   238722.409 sec (=3978.707 min)
GTO integral calculation        ...       10.403 sec (=   0.173 min)   0.0 %
SCF iterations                  ...    24157.893 sec (= 402.632 min)  10.1 %
CIS module                      ...   214554.113 sec (=3575.902 min)  89.9 %
                             ****ORCA TERMINATED NORMALLY****
TOTAL RUN TIME: 2 days 18 hours 18 minutes 44 seconds 358 msec
