
                                 *****************
                                 * O   R   C   A *
                                 *****************

           --- An Ab Initio, DFT and Semiempirical electronic structure package ---

                  #######################################################
                  #                        -***-                        #
                  #          Department of theory and spectroscopy      #
                  #               Directorship: Frank Neese             #
                  #        Max Planck Institute fuer Kohlenforschung    #
                  #                Kaiser Wilhelm Platz 1               #
                  #                 D-45470 Muelheim/Ruhr               #
                  #                      Germany                        #
                  #                                                     #
                  #                  All rights reserved                #
                  #                        -***-                        #
                  #######################################################


                         Program Version 4.2.0 -  RELEASE  -


 With contributions from (in alphabetic order):
   Daniel Aravena         : Magnetic Suceptibility
   Michael Atanasov       : Ab Initio Ligand Field Theory (pilot matlab implementation)
   Alexander A. Auer      : GIAO ZORA, VPT2
   Ute Becker             : Parallelization
   Giovanni Bistoni       : ED, misc. LED, open-shell LED, HFLED
   Martin Brehm           : Molecular dynamics
   Dmytro Bykov           : SCF Hessian
   Vijay G. Chilkuri      : MRCI spin determinant printing, contributions to CSF-ICE
   Dipayan Datta          : RHF DLPNO-CCSD density
   Achintya Kumar Dutta   : EOM-CC, STEOM-CC
   Dmitry Ganyushin       : Spin-Orbit,Spin-Spin,Magnetic field MRCI
   Miquel Garcia          : C-PCM Hessian, Gaussian charge scheme
   Yang Guo               : DLPNO-NEVPT2, CIM, IAO-localization
   Andreas Hansen         : Spin unrestricted coupled pair/coupled cluster methods
   Benjamin Helmich-Paris : CASSCF linear response (MC-RPA)
   Lee Huntington         : MR-EOM, pCC
   Robert Izsak           : Overlap fitted RIJCOSX, COSX-SCS-MP3, EOM
   Christian Kollmar      : KDIIS, OOCD, Brueckner-CCSD(T), CCSD density
   Simone Kossmann        : Meta GGA functionals, TD-DFT gradient, OOMP2, MP2 Hessian
   Martin Krupicka        : AUTO-CI
   Lucas Lang             : DCDCAS
   Dagmar Lenk            : GEPOL surface, SMD
   Dimitrios Liakos       : Extrapolation schemes; Compound Job, initial MDCI parallelization
   Dimitrios Manganas     : Further ROCIS development; embedding schemes
   Dimitrios Pantazis     : SARC Basis sets
   Taras Petrenko         : DFT Hessian,TD-DFT gradient, ASA, ECA, R-Raman, ABS, FL, XAS/XES, NRVS
   Peter Pinski           : DLPNO-MP2, DLPNO-MP2 Gradient
   Christoph Reimann      : Effective Core Potentials
   Marius Retegan         : Local ZFS, SOC
   Christoph Riplinger    : Optimizer, TS searches, QM/MM, DLPNO-CCSD(T), (RO)-DLPNO pert. Triples
   Tobias Risthaus        : Range-separated hybrids, TD-DFT gradient, RPA, STAB
   Michael Roemelt        : Original ROCIS implementation
   Masaaki Saitow         : Open-shell DLPNO-CCSD energy and density
   Barbara Sandhoefer     : DKH picture change effects
   Avijit Sen             : IP-ROCIS
   Kantharuban Sivalingam : CASSCF convergence, NEVPT2, FIC-MRCI
   Bernardo de Souza      : ESD, SOC TD-DFT
   Georgi Stoychev        : AutoAux, RI-MP2 NMR
   Willem Van den Heuvel  : Paramagnetic NMR
   Boris Wezisla          : Elementary symmetry handling
   Frank Wennmohs         : Technical directorship


 We gratefully acknowledge several colleagues who have allowed us to
 interface, adapt or use parts of their codes:
   Stefan Grimme, W. Hujo, H. Kruse,             : VdW corrections, initial TS optimization,
                  C. Bannwarth                     DFT functionals, gCP, sTDA/sTD-DF
   Ed Valeev, F. Pavosevic, A. Kumar             : LibInt (2-el integral package), F12 methods
   Garnet Chan, S. Sharma, J. Yang, R. Olivares  : DMRG
   Ulf Ekstrom                                   : XCFun DFT Library
   Mihaly Kallay                                 : mrcc  (arbitrary order and MRCC methods)
   Andreas Klamt, Michael Diedenhofen            : otool_cosmo (COSMO solvation model)
   Jiri Pittner, Ondrej Demel                    : Mk-CCSD
   Frank Weinhold                                : gennbo (NPA and NBO analysis)
   Christopher J. Cramer and Donald G. Truhlar   : smd solvation model
   Lars Goerigk                                  : TD-DFT with DH, B97 family of functionals
   V. Asgeirsson, H. Jonsson                     : NEB implementation
   FAccTs GmbH                                   : IRC, NEB, NEB-TS, Multilevel, MM, QM/MM, CI optimization
   S Lehtola, MJT Oliveira, MAL Marques          : LibXC Library


 Your calculation uses the libint2 library for the computation of 2-el integrals
 For citations please refer to: http://libint.valeyev.net

 Your ORCA version has been built with support for libXC version: 4.2.3
 For citations please refer to: https://tddft.org/programs/libxc/

 This ORCA versions uses:
   CBLAS   interface :  Fast vector & matrix operations
   LAPACKE interface :  Fast linear algebra routines
   SCALAPACK package :  Parallel linear algebra routines


----- Orbital basis set information -----
Your calculation utilizes the basis: def2-TZVP
   F. Weigend and R. Ahlrichs, Phys. Chem. Chem. Phys. 7, 3297 (2005).

----- AuxJ basis set information -----
Your calculation utilizes the auxiliary basis: def2/J
   F. Weigend, Phys. Chem. Chem. Phys. 8, 1057 (2006).

================================================================================
                                        WARNINGS
                       Please study these warnings very carefully!
================================================================================

INFO   : Checking CIS options ...

WARNING: CIS/ROCIS methods need fully converged wavefunctions
  ===> : Setting SCFConvForced true
         You can overwrite this default with %scf ConvForced false 


INFO   : the flag for use of LIBINT has been found!

================================================================================
                                       INPUT FILE
================================================================================
NAME = BTTPC.inp
|  1> # ORCA input file
|  2> # BTTPC.out: Geometry 42
|  3> ! B3LYP def2-TZVP def2/J RIJCOSX Grid4 TightSCF
|  4> 
|  5> %maxcore 6000
|  6> %tddft
|  7>   maxdim 5
|  8>   nroots 50
|  9>   end
| 10> %pal
| 11>   nprocs 6
| 12>   end
| 13> 
| 14> 
| 15> * xyz 0 1
| 16>    C       -2.96553        -1.58001        -0.69591
| 17>    O       -2.55069        -0.91975        -1.63091
| 18>    C       -2.42565        -2.89196        -0.25895
| 19>    C       -1.38429        -3.59567        -0.83290
| 20>    C       -1.03607        -4.83936        -0.26785
| 21>    C       -1.77059        -5.30937         0.86379
| 22>    C       -2.82098        -4.58721         1.44808
| 23>    C       -3.14798        -3.35716         0.87357
| 24>    C       -4.17891        -2.35318         1.21672
| 25>    C       -5.13384        -2.49338         2.21165
| 26>    C       -5.18478        -3.63343         3.07299
| 27>    N       -5.23155        -4.55493         3.78028
| 28>    C       -6.17051        -1.53884         2.45716
| 29>    N       -7.02492        -0.78206         2.67890
| 30>    C       -4.04083        -1.23003         0.27976
| 31>    C       -4.60901         0.01452         0.45746
| 32>    C       -4.66859         1.19335        -0.34407
| 33>    S       -4.79266         2.69498         0.61812
| 34>    C       -4.91267         3.64961        -0.81062
| 35>    C       -4.90367         2.84004        -1.96524
| 36>    C       -4.77387         1.45184        -1.72574
| 37>    C       -4.96210         0.43266        -2.81405
| 38>    C       -6.44178         0.05322        -2.99242
| 39>    S       -5.04960         3.77990        -3.45721
| 40>    C       -5.09571         5.25085        -2.51343
| 41>    C       -4.99499         5.02065        -1.13499
| 42>    N       -5.03472         6.22213        -0.43958
| 43>    C       -5.68028         6.21979         0.87966
| 44>    C       -7.19916         6.13762         0.78223
| 45>    C       -5.12975         7.24303        -1.39767
| 46>    C       -5.20798         6.65422        -2.69520
| 47>    C       -5.39980         7.47413        -3.85636
| 48>    N       -5.55823         7.06478        -5.10776
| 49>    S       -5.80256         8.41640        -6.03173
| 50>    N       -5.70504         9.56261        -4.84107
| 51>    C       -5.48395         8.91920        -3.70296
| 52>    C       -5.26856         9.50190        -2.41203
| 53>    C       -5.06751         8.67056        -1.26528
| 54>    N       -4.73528         9.48647        -0.18480
| 55>    C       -4.07133         9.12954         1.06845
| 56>    C       -4.92766         9.38056         2.30730
| 57>    C       -4.73687        10.79681        -0.62923
| 58>    C       -5.06374        10.83800        -1.99310
| 59>    S       -4.93764        12.44230        -2.67595
| 60>    C       -4.41133        13.06377        -1.10357
| 61>    C       -4.35981        12.05653        -0.11603
| 62>    S       -3.81376        12.68103         1.39627
| 63>    C       -3.67917        14.31665         0.71294
| 64>    C       -4.00674        14.34610        -0.65724
| 65>    C       -3.72197        15.50414        -1.57742
| 66>    C       -4.85424        15.93286        -2.51762
| 67>    C       -3.19617        15.28723         1.63465
| 68>    C       -3.26974        16.65472         1.77860
| 69>    C       -4.05773        17.73655         1.20646
| 70>    C       -5.28588        17.61152         0.57379
| 71>    C       -5.96811        18.71801        -0.01713
| 72>    N       -6.51459        19.60874        -0.52685
| 73>    C       -6.00722        16.38278         0.56588
| 74>    N       -6.61202        15.39006         0.57920
| 75>    C       -3.43788        19.01799         1.62983
| 76>    C       -3.73267        20.34361         1.30730
| 77>    C       -3.00592        21.34147         1.97775
| 78>    C       -2.00680        21.05450         2.95902
| 79>    C       -1.72066        19.71025         3.26297
| 80>    C       -2.42993        18.73257         2.59428
| 81>    C       -2.30753        17.26779         2.75915
| 82>    O       -1.56280        16.67592         3.51473
| 83>    C       -1.43163        22.25120         3.50843
| 84>    C       -1.96661        23.38364         2.96948
| 85>    S       -3.19136        23.06703         1.76804
| 86>    S       -1.18227        -6.86986         1.39024
| 87>    C        0.01821        -6.88253         0.12527
| 88>    C       -0.01315        -5.76908        -0.66330
| 89>    H        0.68870        -7.73714         0.03763
| 90>    H       -1.70914        24.41420         3.21266
| 91>    H       -0.86027        -3.18810        -1.69968
| 92>    H       -3.34030        -4.98636         2.31558
| 93>    H       -5.06523         0.16946         1.43802
| 94>    H       -4.35240        -0.45118        -2.60698
| 95>    H       -4.57223         0.86050        -3.75269
| 96>    H       -6.85114        -0.38029        -2.06689
| 97>    H       -6.55850        -0.69086        -3.79560
| 98>    H       -7.05166         0.93170        -3.25423
| 99>    H       -5.38100         7.10478         1.44070
|100>    H       -5.27241         5.35919         1.43016
|101>    H       -7.60791         7.02627         0.27716
|102>    H       -7.64424         6.07621         1.78658
|103>    H       -7.51132         5.24769         0.21552
|104>    H       -3.14796         9.72747         1.13116
|105>    H       -3.74677         8.08468         0.99199
|106>    H       -5.88200         8.83592         2.26545
|107>    H       -5.16717        10.44843         2.41614
|108>    H       -4.38304         9.06086         3.20945
|109>    H       -2.85833        15.19655        -2.19491
|110>    H       -3.37324        16.36263        -0.99036
|111>    H       -5.73909        16.28196        -1.97074
|112>    H       -5.17980        15.10881        -3.16956
|113>    H       -4.50713        16.75030        -3.16720
|114>    H       -2.58497        14.85836         2.44313
|115>    H       -4.49127        20.61137         0.57334
|116>    H       -0.97170        19.43291         4.00760
|117>    H       -0.65492        22.25101         4.27403
|118>    H        0.66169        -5.60125        -1.50326
|119> *
|120> 
|121>                          ****END OF INPUT****
================================================================================

                       ****************************
                       * Single Point Calculation *
                       ****************************

---------------------------------
CARTESIAN COORDINATES (ANGSTROEM)
---------------------------------
  C     -2.965530   -1.580010   -0.695910
  O     -2.550690   -0.919750   -1.630910
  C     -2.425650   -2.891960   -0.258950
  C     -1.384290   -3.595670   -0.832900
  C     -1.036070   -4.839360   -0.267850
  C     -1.770590   -5.309370    0.863790
  C     -2.820980   -4.587210    1.448080
  C     -3.147980   -3.357160    0.873570
  C     -4.178910   -2.353180    1.216720
  C     -5.133840   -2.493380    2.211650
  C     -5.184780   -3.633430    3.072990
  N     -5.231550   -4.554930    3.780280
  C     -6.170510   -1.538840    2.457160
  N     -7.024920   -0.782060    2.678900
  C     -4.040830   -1.230030    0.279760
  C     -4.609010    0.014520    0.457460
  C     -4.668590    1.193350   -0.344070
  S     -4.792660    2.694980    0.618120
  C     -4.912670    3.649610   -0.810620
  C     -4.903670    2.840040   -1.965240
  C     -4.773870    1.451840   -1.725740
  C     -4.962100    0.432660   -2.814050
  C     -6.441780    0.053220   -2.992420
  S     -5.049600    3.779900   -3.457210
  C     -5.095710    5.250850   -2.513430
  C     -4.994990    5.020650   -1.134990
  N     -5.034720    6.222130   -0.439580
  C     -5.680280    6.219790    0.879660
  C     -7.199160    6.137620    0.782230
  C     -5.129750    7.243030   -1.397670
  C     -5.207980    6.654220   -2.695200
  C     -5.399800    7.474130   -3.856360
  N     -5.558230    7.064780   -5.107760
  S     -5.802560    8.416400   -6.031730
  N     -5.705040    9.562610   -4.841070
  C     -5.483950    8.919200   -3.702960
  C     -5.268560    9.501900   -2.412030
  C     -5.067510    8.670560   -1.265280
  N     -4.735280    9.486470   -0.184800
  C     -4.071330    9.129540    1.068450
  C     -4.927660    9.380560    2.307300
  C     -4.736870   10.796810   -0.629230
  C     -5.063740   10.838000   -1.993100
  S     -4.937640   12.442300   -2.675950
  C     -4.411330   13.063770   -1.103570
  C     -4.359810   12.056530   -0.116030
  S     -3.813760   12.681030    1.396270
  C     -3.679170   14.316650    0.712940
  C     -4.006740   14.346100   -0.657240
  C     -3.721970   15.504140   -1.577420
  C     -4.854240   15.932860   -2.517620
  C     -3.196170   15.287230    1.634650
  C     -3.269740   16.654720    1.778600
  C     -4.057730   17.736550    1.206460
  C     -5.285880   17.611520    0.573790
  C     -5.968110   18.718010   -0.017130
  N     -6.514590   19.608740   -0.526850
  C     -6.007220   16.382780    0.565880
  N     -6.612020   15.390060    0.579200
  C     -3.437880   19.017990    1.629830
  C     -3.732670   20.343610    1.307300
  C     -3.005920   21.341470    1.977750
  C     -2.006800   21.054500    2.959020
  C     -1.720660   19.710250    3.262970
  C     -2.429930   18.732570    2.594280
  C     -2.307530   17.267790    2.759150
  O     -1.562800   16.675920    3.514730
  C     -1.431630   22.251200    3.508430
  C     -1.966610   23.383640    2.969480
  S     -3.191360   23.067030    1.768040
  S     -1.182270   -6.869860    1.390240
  C      0.018210   -6.882530    0.125270
  C     -0.013150   -5.769080   -0.663300
  H      0.688700   -7.737140    0.037630
  H     -1.709140   24.414200    3.212660
  H     -0.860270   -3.188100   -1.699680
  H     -3.340300   -4.986360    2.315580
  H     -5.065230    0.169460    1.438020
  H     -4.352400   -0.451180   -2.606980
  H     -4.572230    0.860500   -3.752690
  H     -6.851140   -0.380290   -2.066890
  H     -6.558500   -0.690860   -3.795600
  H     -7.051660    0.931700   -3.254230
  H     -5.381000    7.104780    1.440700
  H     -5.272410    5.359190    1.430160
  H     -7.607910    7.026270    0.277160
  H     -7.644240    6.076210    1.786580
  H     -7.511320    5.247690    0.215520
  H     -3.147960    9.727470    1.131160
  H     -3.746770    8.084680    0.991990
  H     -5.882000    8.835920    2.265450
  H     -5.167170   10.448430    2.416140
  H     -4.383040    9.060860    3.209450
  H     -2.858330   15.196550   -2.194910
  H     -3.373240   16.362630   -0.990360
  H     -5.739090   16.281960   -1.970740
  H     -5.179800   15.108810   -3.169560
  H     -4.507130   16.750300   -3.167200
  H     -2.584970   14.858360    2.443130
  H     -4.491270   20.611370    0.573340
  H     -0.971700   19.432910    4.007600
  H     -0.654920   22.251010    4.274030
  H      0.661690   -5.601250   -1.503260

----------------------------
CARTESIAN COORDINATES (A.U.)
----------------------------
  NO LB      ZA    FRAG     MASS         X           Y           Z
   0 C     6.0000    0    12.011   -5.604040   -2.985786   -1.315079
   1 O     8.0000    0    15.999   -4.820106   -1.738076   -3.081973
   2 C     6.0000    0    12.011   -4.583814   -5.465012   -0.489345
   3 C     6.0000    0    12.011   -2.615929   -6.794832   -1.573953
   4 C     6.0000    0    12.011   -1.957889   -9.145065   -0.506163
   5 C     6.0000    0    12.011   -3.345930  -10.033255    1.632327
   6 C     6.0000    0    12.011   -5.330880   -8.668571    2.736475
   7 C     6.0000    0    12.011   -5.948820   -6.344113    1.650808
   8 C     6.0000    0    12.011   -7.896995   -4.446866    2.299268
   9 C     6.0000    0    12.011   -9.701552   -4.711805    4.179413
  10 C     6.0000    0    12.011   -9.797814   -6.866188    5.807110
  11 N     7.0000    0    14.007   -9.886197   -8.607570    7.143694
  12 C     6.0000    0    12.011  -11.660574   -2.907986    4.643359
  13 N     7.0000    0    14.007  -13.275175   -1.477879    5.062387
  14 C     6.0000    0    12.011   -7.636062   -2.324420    0.528670
  15 C     6.0000    0    12.011   -8.709767    0.027439    0.864474
  16 C     6.0000    0    12.011   -8.822357    2.255105   -0.650198
  17 S    16.0000    0    32.060   -9.056815    5.092774    1.168078
  18 C     6.0000    0    12.011   -9.283601    6.896763   -1.531850
  19 C     6.0000    0    12.011   -9.266593    5.366898   -3.713765
  20 C     6.0000    0    12.011   -9.021307    2.743580   -3.261176
  21 C     6.0000    0    12.011   -9.377010    0.817609   -5.317784
  22 C     6.0000    0    12.011  -12.173200    0.100571   -5.654854
  23 S    16.0000    0    32.060   -9.542361    7.142976   -6.533180
  24 C     6.0000    0    12.011   -9.629496    9.922668   -4.749694
  25 C     6.0000    0    12.011   -9.439163    9.487654   -2.144820
  26 N     7.0000    0    14.007   -9.514242   11.758122   -0.830686
  27 C     6.0000    0    12.011  -10.734174   11.753700    1.662316
  28 C     6.0000    0    12.011  -13.604441   11.598421    1.478200
  29 C     6.0000    0    12.011   -9.693823   13.687343   -2.641214
  30 C     6.0000    0    12.011   -9.841656   12.574653   -5.093190
  31 C     6.0000    0    12.011  -10.204143   14.124059   -7.287464
  32 N     7.0000    0    14.007  -10.503532   13.350499   -9.652268
  33 S    16.0000    0    32.060  -10.965249   15.904691  -11.398318
  34 N     7.0000    0    14.007  -10.780963   18.070714   -9.148296
  35 C     6.0000    0    12.011  -10.363164   16.854845   -6.997580
  36 C     6.0000    0    12.011   -9.956136   17.955989   -4.558076
  37 C     6.0000    0    12.011   -9.576206   16.384984   -2.391033
  38 N     7.0000    0    14.007   -8.948382   17.926830   -0.349221
  39 C     6.0000    0    12.011   -7.693699   17.252330    2.019078
  40 C     6.0000    0    12.011   -9.311928   17.726689    4.360165
  41 C     6.0000    0    12.011   -8.951387   20.403014   -1.189072
  42 C     6.0000    0    12.011   -9.569082   20.480852   -3.766413
  43 S    16.0000    0    32.060   -9.330787   23.512539   -5.056813
  44 C     6.0000    0    12.011   -8.336206   24.686948   -2.085445
  45 C     6.0000    0    12.011   -8.238847   22.783540   -0.219265
  46 S    16.0000    0    32.060   -7.206962   23.963674    2.638568
  47 C     6.0000    0    12.011   -6.952624   27.054548    1.347261
  48 C     6.0000    0    12.011   -7.571641   27.110200   -1.242004
  49 C     6.0000    0    12.011   -7.033504   29.298579   -2.980892
  50 C     6.0000    0    12.011   -9.173184   30.108742   -4.757612
  51 C     6.0000    0    12.011   -6.039886   28.888678    3.089041
  52 C     6.0000    0    12.011   -6.178913   31.472860    3.361067
  53 C     6.0000    0    12.011   -7.667998   33.517222    2.279879
  54 C     6.0000    0    12.011   -9.988866   33.280950    1.084306
  55 C     6.0000    0    12.011  -11.278093   35.371913   -0.032371
  56 N     7.0000    0    14.007  -12.310791   37.055148   -0.995602
  57 C     6.0000    0    12.011  -11.352001   30.958968    1.069358
  58 N     7.0000    0    14.007  -12.494907   29.082999    1.094529
  59 C     6.0000    0    12.011   -6.496652   35.938793    3.079932
  60 C     6.0000    0    12.011   -7.053724   38.443851    2.470439
  61 C     6.0000    0    12.011   -5.680366   40.329534    3.737406
  62 C     6.0000    0    12.011   -3.792302   39.787239    5.591737
  63 C     6.0000    0    12.011   -3.251576   37.246975    6.166120
  64 C     6.0000    0    12.011   -4.591902   35.399427    4.902479
  65 C     6.0000    0    12.011   -4.360600   32.631394    5.214038
  66 O     8.0000    0    15.999   -2.953264   31.512922    6.641877
  67 C     6.0000    0    12.011   -2.705389   42.048674    6.629972
  68 C     6.0000    0    12.011   -3.716354   44.188676    5.611504
  69 S    16.0000    0    32.060   -6.030796   43.590369    3.341111
  70 S    16.0000    0    32.060   -2.234167  -12.982154    2.627173
  71 C     6.0000    0    12.011    0.034412  -13.006097    0.236726
  72 C     6.0000    0    12.011   -0.024850  -10.901981   -1.253455
  73 H     1.0000    0     1.008    1.301454  -14.621076    0.071110
  74 H     1.0000    0     1.008   -3.229807   46.136152    6.071048
  75 H     1.0000    0     1.008   -1.625675   -6.024636   -3.211930
  76 H     1.0000    0     1.008   -6.312252   -9.422855    4.375812
  77 H     1.0000    0     1.008   -9.571898    0.320233    2.717464
  78 H     1.0000    0     1.008   -8.224844   -0.852607   -4.926478
  79 H     1.0000    0     1.008   -8.640263    1.626109   -7.091556
  80 H     1.0000    0     1.008  -12.946778   -0.718644   -3.905856
  81 H     1.0000    0     1.008  -12.393769   -1.305536   -7.172645
  82 H     1.0000    0     1.008  -13.325706    1.760658   -6.149603
  83 H     1.0000    0     1.008  -10.168616   13.426088    2.722528
  84 H     1.0000    0     1.008   -9.963411   10.127401    2.702611
  85 H     1.0000    0     1.008  -14.376866   13.277726    0.523756
  86 H     1.0000    0     1.008  -14.445520   11.482373    3.376147
  87 H     1.0000    0     1.008  -14.194338    9.916697    0.407274
  88 H     1.0000    0     1.008   -5.948782   18.382254    2.137583
  89 H     1.0000    0     1.008   -7.080369   15.277831    1.874589
  90 H     1.0000    0     1.008  -11.115369   16.697469    4.281080
  91 H     1.0000    0     1.008   -9.764536   19.744671    4.565843
  92 H     1.0000    0     1.008   -8.282745   17.122544    6.064982
  93 H     1.0000    0     1.008   -5.401461   28.717318   -4.147779
  94 H     1.0000    0     1.008   -6.374500   30.920890   -1.871509
  95 H     1.0000    0     1.008  -10.845308   30.768445   -3.724159
  96 H     1.0000    0     1.008   -9.788403   28.551513   -5.989600
  97 H     1.0000    0     1.008   -8.517241   31.653480   -5.985141
  98 H     1.0000    0     1.008   -4.884885   28.078231    4.616847
  99 H     1.0000    0     1.008   -8.487270   38.949845    1.083456
 100 H     1.0000    0     1.008   -1.836247   36.722878    7.573266
 101 H     1.0000    0     1.008   -1.237619   42.048315    8.076746
 102 H     1.0000    0     1.008    1.250413  -10.584829   -2.840750

--------------------------------
INTERNAL COORDINATES (ANGSTROEM)
--------------------------------
 C      0   0   0     0.000000000000     0.00000000     0.00000000
 O      1   0   0     1.217481208561     0.00000000     0.00000000
 C      1   2   0     1.484458574195   125.55130909     0.00000000
 C      3   1   2     1.381686294424   127.01022217   359.19549114
 C      4   3   1     1.409717520286   117.96929542   180.69420907
 C      5   4   3     1.428649054212   118.73371265   359.96182816
 C      6   5   4     1.402222885921   123.07673356   359.60460268
 C      7   6   5     1.396428925008   117.23436617     0.30784304
 C      8   7   6     1.479372984680   131.72443360   179.74235401
 C      9   8   7     1.386157656906   125.30471901   356.13367108
 C     10   9   8     1.429760637904   122.52030221     2.87451966
 N     11  10   9     1.162587126628   179.49094926   158.58493078
 C     10   9   8     1.430421777169   123.70854490   184.26923053
 N     13  10   9     1.162712795191   178.44521003   176.29302358
 C      9   8   7     1.469158279594   107.78181630   178.70828850
 C     15   9   8     1.379605198925   124.66614808   195.31134392
 C     16  15   9     1.426758664316   133.64467776   184.39736596
 S     17  16  15     1.787762740942   113.23677221   208.68479144
 C     18  17  16     1.722503650098    91.37085855   183.01157898
 C     19  18  17     1.410188614796   111.13236097     1.95431245
 C     17  16  15     1.409578996509   134.85334314    35.65132584
 C     21  17  16     1.502856300982   126.49949090     4.90162750
 C     22  21  17     1.537934807754   111.82721009    83.77952296
 S     20  19  18     1.769352103285   112.63979163   179.14535483
 C     24  20  19     1.748296520331    89.65038060     0.83043384
 C     25  24  20     1.401154306991   113.01370325     0.38331954
 N     26  25  24     1.388786423969   110.39091800   179.88794052
 C     27  26  25     1.468723039514   117.44937474   146.26133759
 C     28  27  26     1.524218149807   112.37514477   285.95817940
 C     27  26  25     1.403283278244   106.82513434   358.54998938
 C     25  24  20     1.419539447391   139.88385595   180.50647025
 C     31  25  24     1.434343008523   132.79317137     3.23497140
 N     32  31  25     1.326148350450   127.11671180     1.88495094
 S     33  32  31     1.655383440234   106.99565194   177.65014812
 N     34  33  32     1.655590151608    98.92696500     0.17442478
 C     35  34  33     1.325953086764   106.92783065   359.86661714
 C     36  35  34     1.432631287876   126.95155905   176.98265165
 C     37  36  35     1.430588291788   120.46929945   178.78119006
 N     38  37  36     1.394102912772   108.33976753   173.39857229
 C     39  38  37     1.462485620408   129.01372764   199.67673794
 C     40  39  38     1.526781396206   113.61383930   241.53957826
 C     39  38  37     1.383658725481   107.76003295     0.50154529
 C     42  39  38     1.403097284546   109.89440882   359.80642852
 S     43  42  39     1.748131523227   112.94409857   185.58274124
 C     44  43  42     1.770764253479    89.80921284     0.83771062
 C     45  44  43     1.411531784835   112.43601982   359.39115266
 S     46  45  44     1.724883225758   111.50600063   178.82817379
 C     47  46  45     1.777725271632    91.14992099     0.97810056
 C     48  47  46     1.409099939607   112.04884619   357.97400360
 C     49  48  47     1.506280792847   124.48156295   193.16041068
 C     50  49  48     1.532909727055   116.74771311   225.14796374
 C     48  47  46     1.422977111727   113.84559590   181.36996409
 C     52  48  47     1.377012362871   136.63032675   203.59129772
 C     53  52  48     1.455550950190   136.54687559    13.55826470
 C     54  53  52     1.387175638591   126.27000201    20.51193729
 C     55  54  53     1.427916082758   122.81356286   182.98466805
 N     56  55  54     1.162692909456   178.44008279   103.44528752
 C     55  54  53     1.424849448644   121.90274684     8.26890371
 N     58  55  54     1.162520305543   178.64882354   101.57773596
 C     54  53  52     1.485107623373   107.65617666   190.58299452
 C     60  54  53     1.395777607429   131.71794657   175.64571752
 C     61  60  54     1.404775193616   117.07022876   174.93476830
 C     62  61  60     1.429504588380   123.13413051   359.61852756
 C     63  62  61     1.407575846837   118.81789498     0.74559029
 C     64  63  62     1.380604371788   117.85720499   359.78340058
 C     65  64  63     1.479102540495   127.21407850   180.60607735
 O     66  65  64     1.214839086546   127.05201973     0.18702572
 C     63  62  61     1.436928240031   112.02673760   181.03020970
 C     68  63  62     1.363484894122   112.55119764   359.92198063
 S     69  68  63     1.744623893050   113.38604353   359.90331515
 S      6   5   4     1.748827911774   111.04167877   179.52793575
 C     71   6   5     1.743978744194    91.12900557     0.13891818
 C     72  71   6     1.364769942884   113.41310010     0.00000000
 H     72  71   6     1.089768719408   119.17949106   180.22984125
 H     69  68  63     1.089716122162   127.19631611   179.83997556
 H      4   3   1     1.091795692289   120.09263427     0.46536144
 H      7   6   5     1.087000568031   120.08691033   180.66296443
 H     16  15   9     1.092538789060   114.55162576     8.67549902
 H     22  21  17     1.093519647972   109.94787995   319.94755297
 H     22  21  17     1.102765039390   107.99880186   204.57676571
 H     23  22  21     1.100959722515   110.93969527   299.58492159
 H     23  22  21     1.101079796018   110.69040762   179.80265339
 H     23  22  21     1.101010990363   111.32573924    59.81922546
 H     28  27  26     1.089743869035   109.90319796   162.45373628
 H     28  27  26     1.100018430255   106.72535547    47.92444383
 H     29  28  27     1.100850166871   110.84325856   296.50244183
 H     29  28  27     1.100266475450   110.35057864   176.55638807
 H     29  28  27     1.100263375106   111.05401714    56.73075964
 H     40  39  38     1.101846171614   107.26438764   120.32125556
 H     40  39  38     1.096776068667   107.88513860     6.70319608
 H     41  40  39     1.099613108189   111.99091727    57.56005929
 H     41  40  39     1.099798855519   111.22818308   297.62846831
 H     41  40  39     1.101223708835   109.85337692   178.14691272
 H     50  49  48     1.105341376137   105.96475964   104.62074192
 H     50  49  48     1.096930780223   109.56359499   351.17395725
 H     51  50  49     1.097227445382   112.26878711    62.39816567
 H     51  50  49     1.100033399357   111.87574940   301.86762482
 H     51  50  49     1.100294361569   109.68568999   182.72326888
 H     52  48  47     1.100515709702   113.48789442    25.04064572
 H     61  60  54     1.088975049852   122.43843826   355.12081639
 H     64  63  62     1.091939739226   121.95484255   180.35035772
 H     68  63  62     1.090606170989   123.59599231   179.76109402
 H     73  72  71     1.090462624807   123.80826667   179.98962293

---------------------------
INTERNAL COORDINATES (A.U.)
---------------------------
 C      0   0   0     0.000000000000     0.00000000     0.00000000
 O      1   0   0     2.300706057376     0.00000000     0.00000000
 C      1   2   0     2.805220162379   125.55130909     0.00000000
 C      3   1   2     2.611008699454   127.01022217   359.19549114
 C      4   3   1     2.663980039530   117.96929542   180.69420907
 C      5   4   3     2.699755453946   118.73371265   359.96182816
 C      6   5   4     2.649817233107   123.07673356   359.60460268
 C      7   6   5     2.638868233752   117.23436617     0.30784304
 C      8   7   6     2.795609790966   131.72443360   179.74235401
 C      9   8   7     2.619458349991   125.30471901   356.13367108
 C     10   9   8     2.701856042699   122.52030221     2.87451966
 N     11  10   9     2.196971276148   179.49094926   158.58493078
 C     10   9   8     2.703105414847   123.70854490   184.26923053
 N     13  10   9     2.197208755316   178.44521003   176.29302358
 C      9   8   7     2.776306795816   107.78181630   178.70828850
 C     15   9   8     2.607075998902   124.66614808   195.31134392
 C     16  15   9     2.696183134756   133.64467776   184.39736596
 S     17  16  15     3.378381972809   113.23677221   208.68479144
 C     18  17  16     3.255060163364    91.37085855   183.01157898
 C     19  18  17     2.664870279138   111.13236097     1.95431245
 C     17  16  15     2.663718267530   134.85334314    35.65132584
 C     21  17  16     2.839986827493   126.49949090     4.90162750
 C     22  21  17     2.906275598479   111.82721009    83.77952296
 S     20  19  18     3.343590909687   112.63979163   179.14535483
 C     24  20  19     3.303801624312    89.65038060     0.83043384
 C     25  24  20     2.647797911578   113.01370325     0.38331954
 N     26  25  24     2.624425999809   110.39091800   179.88794052
 C     27  26  25     2.775484311262   117.44937474   146.26133759
 C     28  27  26     2.880354871487   112.37514477   285.95817940
 C     27  26  25     2.651821084193   106.82513434   358.54998938
 C     25  24  20     2.682540791867   139.88385595   180.50647025
 C     31  25  24     2.710515468214   132.79317137     3.23497140
 N     32  31  25     2.506057195301   127.11671180     1.88495094
 S     33  32  31     3.128221348670   106.99565194   177.65014812
 N     34  33  32     3.128611976555    98.92696500     0.17442478
 C     35  34  33     2.505688200412   106.92783065   359.86661714
 C     36  35  34     2.707280784972   126.95155905   176.98265165
 C     37  36  35     2.703420081873   120.46929945   178.78119006
 N     38  37  36     2.634472707641   108.33976753   173.39857229
 C     39  38  37     2.763697297369   129.01372764   199.67673794
 C     40  39  38     2.885198705195   113.61383930   241.53957826
 C     39  38  37     2.614736053970   107.76003295     0.50154529
 C     42  39  38     2.651469607040   109.89440882   359.80642852
 S     43  42  39     3.303489824974   112.94409857   185.58274124
 C     44  43  42     3.346259486813    89.80921284     0.83771062
 C     45  44  43     2.667408502664   112.43601982   359.39115266
 S     46  45  44     3.259556909677   111.50600063   178.82817379
 C     47  46  45     3.359413904736    91.14992099     0.97810056
 C     48  47  46     2.662812981182   112.04884619   357.97400360
 C     49  48  47     2.846458179267   124.48156295   193.16041068
 C     50  49  48     2.896779572158   116.74771311   225.14796374
 C     48  47  46     2.689037036003   113.84559590   181.36996409
 C     52  48  47     2.602176248850   136.63032675   203.59129772
 C     53  52  48     2.750592669829   136.54687559    13.55826470
 C     54  53  52     2.621382056584   126.27000201    20.51193729
 C     55  54  53     2.698370338635   122.81356286   182.98466805
 N     56  55  54     2.197171176725   178.44008279   103.44528752
 C     55  54  53     2.692575240005   121.90274684     8.26890371
 N     58  55  54     2.196845002599   178.64882354   101.57773596
 C     54  53  52     2.806446687573   107.65617666   190.58299452
 C     60  54  53     2.637637421901   131.71794657   175.64571752
 C     61  60  54     2.654640395661   117.07022876   174.93476830
 C     62  61  60     2.701372179222   123.13413051   359.61852756
 C     63  62  61     2.659932863245   118.81789498     0.74559029
 C     64  63  62     2.608964161974   117.85720499   359.78340058
 C     65  64  63     2.795098725524   127.21407850   180.60607735
 O     66  65  64     2.295713170355   127.05201973     0.18702572
 C     63  62  61     2.715400847757   112.02673760   181.03020970
 C     68  63  62     2.576613037630   112.55119764   359.92198063
 S     69  68  63     3.296861364560   113.38604353   359.90331515
 S      6   5   4     3.304805808610   111.04167877   179.52793575
 C     71   6   5     3.295642209906    91.12900557     0.13891818
 C     72  71   6     2.579041427858   113.41310010     0.00000000
 H     72  71   6     2.059364428995   119.17949106   180.22984125
 H     69  68  63     2.059265034605   127.19631611   179.83997556
 H      4   3   1     2.063194852620   120.09263427     0.46536144
 H      7   6   5     2.054133380996   120.08691033   180.66296443
 H     16  15   9     2.064599102009   114.55162576     8.67549902
 H     22  21  17     2.066452656728   109.94787995   319.94755297
 H     22  21  17     2.083923914509   107.99880186   204.57676571
 H     23  22  21     2.080512360031   110.93969527   299.58492159
 H     23  22  21     2.080739266069   110.69040762   179.80265339
 H     23  22  21     2.080609242223   111.32573924    59.81922546
 H     28  27  26     2.059317468596   109.90319796   162.45373628
 H     28  27  26     2.078733575447   106.72535547    47.92444383
 H     29  28  27     2.080305329868   110.84325856   296.50244183
 H     29  28  27     2.079202312936   110.35057864   176.55638807
 H     29  28  27     2.079196454135   111.05401714    56.73075964
 H     40  39  38     2.082187506060   107.26438764   120.32125556
 H     40  39  38     2.072606400019   107.88513860     6.70319608
 H     41  40  39     2.077967627746   111.99091727    57.56005929
 H     41  40  39     2.078318639330   111.22818308   297.62846831
 H     41  40  39     2.081011221879   109.85337692   178.14691272
 H     50  49  48     2.088792485390   105.96475964   104.62074192
 H     50  49  48     2.072898762489   109.56359499   351.17395725
 H     51  50  49     2.073459378394   112.26878711    62.39816567
 H     51  50  49     2.078761862950   111.87574940   301.86762482
 H     51  50  49     2.079255010063   109.68568999   182.72326888
 H     52  48  47     2.079673297414   113.48789442    25.04064572
 H     61  60  54     2.057864610893   122.43843826   355.12081639
 H     64  63  62     2.063467061882   121.95484255   180.35035772
 H     68  63  62     2.060946983134   123.59599231   179.76109402
 H     73  72  71     2.060675720161   123.80826667   179.98962293

---------------------
BASIS SET INFORMATION
---------------------
There are 5 groups of distinct atoms

 Group   1 Type C   : 11s6p2d1f contracted to 5s3p2d1f pattern {62111/411/11/1}
 Group   2 Type O   : 11s6p2d1f contracted to 5s3p2d1f pattern {62111/411/11/1}
 Group   3 Type N   : 11s6p2d1f contracted to 5s3p2d1f pattern {62111/411/11/1}
 Group   4 Type S   : 14s9p3d1f contracted to 5s5p2d1f pattern {73211/51111/21/1}
 Group   5 Type H   : 5s1p contracted to 3s1p pattern {311/1}

Atom   0C    basis set group =>   1
Atom   1O    basis set group =>   2
Atom   2C    basis set group =>   1
Atom   3C    basis set group =>   1
Atom   4C    basis set group =>   1
Atom   5C    basis set group =>   1
Atom   6C    basis set group =>   1
Atom   7C    basis set group =>   1
Atom   8C    basis set group =>   1
Atom   9C    basis set group =>   1
Atom  10C    basis set group =>   1
Atom  11N    basis set group =>   3
Atom  12C    basis set group =>   1
Atom  13N    basis set group =>   3
Atom  14C    basis set group =>   1
Atom  15C    basis set group =>   1
Atom  16C    basis set group =>   1
Atom  17S    basis set group =>   4
Atom  18C    basis set group =>   1
Atom  19C    basis set group =>   1
Atom  20C    basis set group =>   1
Atom  21C    basis set group =>   1
Atom  22C    basis set group =>   1
Atom  23S    basis set group =>   4
Atom  24C    basis set group =>   1
Atom  25C    basis set group =>   1
Atom  26N    basis set group =>   3
Atom  27C    basis set group =>   1
Atom  28C    basis set group =>   1
Atom  29C    basis set group =>   1
Atom  30C    basis set group =>   1
Atom  31C    basis set group =>   1
Atom  32N    basis set group =>   3
Atom  33S    basis set group =>   4
Atom  34N    basis set group =>   3
Atom  35C    basis set group =>   1
Atom  36C    basis set group =>   1
Atom  37C    basis set group =>   1
Atom  38N    basis set group =>   3
Atom  39C    basis set group =>   1
Atom  40C    basis set group =>   1
Atom  41C    basis set group =>   1
Atom  42C    basis set group =>   1
Atom  43S    basis set group =>   4
Atom  44C    basis set group =>   1
Atom  45C    basis set group =>   1
Atom  46S    basis set group =>   4
Atom  47C    basis set group =>   1
Atom  48C    basis set group =>   1
Atom  49C    basis set group =>   1
Atom  50C    basis set group =>   1
Atom  51C    basis set group =>   1
Atom  52C    basis set group =>   1
Atom  53C    basis set group =>   1
Atom  54C    basis set group =>   1
Atom  55C    basis set group =>   1
Atom  56N    basis set group =>   3
Atom  57C    basis set group =>   1
Atom  58N    basis set group =>   3
Atom  59C    basis set group =>   1
Atom  60C    basis set group =>   1
Atom  61C    basis set group =>   1
Atom  62C    basis set group =>   1
Atom  63C    basis set group =>   1
Atom  64C    basis set group =>   1
Atom  65C    basis set group =>   1
Atom  66O    basis set group =>   2
Atom  67C    basis set group =>   1
Atom  68C    basis set group =>   1
Atom  69S    basis set group =>   4
Atom  70S    basis set group =>   4
Atom  71C    basis set group =>   1
Atom  72C    basis set group =>   1
Atom  73H    basis set group =>   5
Atom  74H    basis set group =>   5
Atom  75H    basis set group =>   5
Atom  76H    basis set group =>   5
Atom  77H    basis set group =>   5
Atom  78H    basis set group =>   5
Atom  79H    basis set group =>   5
Atom  80H    basis set group =>   5
Atom  81H    basis set group =>   5
Atom  82H    basis set group =>   5
Atom  83H    basis set group =>   5
Atom  84H    basis set group =>   5
Atom  85H    basis set group =>   5
Atom  86H    basis set group =>   5
Atom  87H    basis set group =>   5
Atom  88H    basis set group =>   5
Atom  89H    basis set group =>   5
Atom  90H    basis set group =>   5
Atom  91H    basis set group =>   5
Atom  92H    basis set group =>   5
Atom  93H    basis set group =>   5
Atom  94H    basis set group =>   5
Atom  95H    basis set group =>   5
Atom  96H    basis set group =>   5
Atom  97H    basis set group =>   5
Atom  98H    basis set group =>   5
Atom  99H    basis set group =>   5
Atom 100H    basis set group =>   5
Atom 101H    basis set group =>   5
Atom 102H    basis set group =>   5
---------------------------------
AUXILIARY/J BASIS SET INFORMATION
---------------------------------
There are 5 groups of distinct atoms

 Group   1 Type C   : 12s5p4d2f1g contracted to 6s4p3d1f1g pattern {711111/2111/211/2/1}
 Group   2 Type O   : 12s5p4d2f1g contracted to 6s4p3d1f1g pattern {711111/2111/211/2/1}
 Group   3 Type N   : 12s5p4d2f1g contracted to 6s4p3d1f1g pattern {711111/2111/211/2/1}
 Group   4 Type S   : 14s5p5d2f1g contracted to 8s4p3d1f1g pattern {71111111/2111/311/2/1}
 Group   5 Type H   : 5s2p1d contracted to 3s1p1d pattern {311/2/1}

Atom   0C    basis set group =>   1
Atom   1O    basis set group =>   2
Atom   2C    basis set group =>   1
Atom   3C    basis set group =>   1
Atom   4C    basis set group =>   1
Atom   5C    basis set group =>   1
Atom   6C    basis set group =>   1
Atom   7C    basis set group =>   1
Atom   8C    basis set group =>   1
Atom   9C    basis set group =>   1
Atom  10C    basis set group =>   1
Atom  11N    basis set group =>   3
Atom  12C    basis set group =>   1
Atom  13N    basis set group =>   3
Atom  14C    basis set group =>   1
Atom  15C    basis set group =>   1
Atom  16C    basis set group =>   1
Atom  17S    basis set group =>   4
Atom  18C    basis set group =>   1
Atom  19C    basis set group =>   1
Atom  20C    basis set group =>   1
Atom  21C    basis set group =>   1
Atom  22C    basis set group =>   1
Atom  23S    basis set group =>   4
Atom  24C    basis set group =>   1
Atom  25C    basis set group =>   1
Atom  26N    basis set group =>   3
Atom  27C    basis set group =>   1
Atom  28C    basis set group =>   1
Atom  29C    basis set group =>   1
Atom  30C    basis set group =>   1
Atom  31C    basis set group =>   1
Atom  32N    basis set group =>   3
Atom  33S    basis set group =>   4
Atom  34N    basis set group =>   3
Atom  35C    basis set group =>   1
Atom  36C    basis set group =>   1
Atom  37C    basis set group =>   1
Atom  38N    basis set group =>   3
Atom  39C    basis set group =>   1
Atom  40C    basis set group =>   1
Atom  41C    basis set group =>   1
Atom  42C    basis set group =>   1
Atom  43S    basis set group =>   4
Atom  44C    basis set group =>   1
Atom  45C    basis set group =>   1
Atom  46S    basis set group =>   4
Atom  47C    basis set group =>   1
Atom  48C    basis set group =>   1
Atom  49C    basis set group =>   1
Atom  50C    basis set group =>   1
Atom  51C    basis set group =>   1
Atom  52C    basis set group =>   1
Atom  53C    basis set group =>   1
Atom  54C    basis set group =>   1
Atom  55C    basis set group =>   1
Atom  56N    basis set group =>   3
Atom  57C    basis set group =>   1
Atom  58N    basis set group =>   3
Atom  59C    basis set group =>   1
Atom  60C    basis set group =>   1
Atom  61C    basis set group =>   1
Atom  62C    basis set group =>   1
Atom  63C    basis set group =>   1
Atom  64C    basis set group =>   1
Atom  65C    basis set group =>   1
Atom  66O    basis set group =>   2
Atom  67C    basis set group =>   1
Atom  68C    basis set group =>   1
Atom  69S    basis set group =>   4
Atom  70S    basis set group =>   4
Atom  71C    basis set group =>   1
Atom  72C    basis set group =>   1
Atom  73H    basis set group =>   5
Atom  74H    basis set group =>   5
Atom  75H    basis set group =>   5
Atom  76H    basis set group =>   5
Atom  77H    basis set group =>   5
Atom  78H    basis set group =>   5
Atom  79H    basis set group =>   5
Atom  80H    basis set group =>   5
Atom  81H    basis set group =>   5
Atom  82H    basis set group =>   5
Atom  83H    basis set group =>   5
Atom  84H    basis set group =>   5
Atom  85H    basis set group =>   5
Atom  86H    basis set group =>   5
Atom  87H    basis set group =>   5
Atom  88H    basis set group =>   5
Atom  89H    basis set group =>   5
Atom  90H    basis set group =>   5
Atom  91H    basis set group =>   5
Atom  92H    basis set group =>   5
Atom  93H    basis set group =>   5
Atom  94H    basis set group =>   5
Atom  95H    basis set group =>   5
Atom  96H    basis set group =>   5
Atom  97H    basis set group =>   5
Atom  98H    basis set group =>   5
Atom  99H    basis set group =>   5
Atom 100H    basis set group =>   5
Atom 101H    basis set group =>   5
Atom 102H    basis set group =>   5


           ************************************************************
           *        Program running with 6 parallel MPI-processes     *
           *              working on a common directory               *
           ************************************************************
------------------------------------------------------------------------------
                           ORCA GTO INTEGRAL CALCULATION
                           -- RI-GTO INTEGRALS CHOSEN --
------------------------------------------------------------------------------

                         BASIS SET STATISTICS AND STARTUP INFO

Gaussian basis set:
 # of primitive gaussian shells          ... 1689
 # of primitive gaussian functions       ... 3717
 # of contracted shells                  ...  937
 # of contracted basis functions         ... 2485
 Highest angular momentum                ...    3
 Maximum contraction depth               ...    7
Auxiliary gaussian basis set:
 # of primitive gaussian shells          ... 2013
 # of primitive gaussian functions       ... 5639
 # of contracted shells                  ... 1259
 # of contracted aux-basis functions     ... 3921
 Highest angular momentum                ...    4
 Maximum contraction depth               ...    7
Ratio of auxiliary to basis functions    ...  1.58
Integral package used                  ... LIBINT
 One Electron integrals                  ... done
 Ordering auxiliary basis shells         ... done
 Integral threshhold             Thresh  ...  2.500e-11
 Primitive cut-off               TCut    ...  2.500e-12
 Pre-screening matrix                    ... done
 Shell pair data                         ... 
 Ordering of the shell pairs             ... done (   0.032 sec) 139420 of 439453 pairs
 Determination of significant pairs      ... done (   0.001 sec)
 Creation of shell pair data             ... done (   0.012 sec)
 Storage of shell pair data              ... done (   0.038 sec)
 Shell pair data done in (   0.082 sec)
 Computing two index integrals           ... done
 Cholesky decomposition of the V-matrix  ... done


Timings:
 Total evaluation time                   ...   6.556 sec (  0.109 min)
 One electron matrix time                ...   1.887 sec (  0.031 min) = 28.8%
 Schwartz matrix evaluation time         ...   3.388 sec (  0.056 min) = 51.7%
 Two index repulsion integral time       ...   0.258 sec (  0.004 min) =  3.9%
 Cholesky decomposition of V             ...   0.924 sec (  0.015 min) = 14.1%
 Three index repulsion integral time     ...   0.000 sec (  0.000 min) =  0.0%



           ************************************************************
           *        Program running with 6 parallel MPI-processes     *
           *              working on a common directory               *
           ************************************************************
-------------------------------------------------------------------------------
                                 ORCA SCF
-------------------------------------------------------------------------------

------------
SCF SETTINGS
------------
Hamiltonian:
 Density Functional     Method          .... DFT(GTOs)
 Exchange Functional    Exchange        .... B88
   X-Alpha parameter    XAlpha          ....  0.666667
   Becke's b parameter  XBeta           ....  0.004200
 Correlation Functional Correlation     .... LYP
 LDA part of GGA corr.  LDAOpt          .... VWN-5
 Gradients option       PostSCFGGA      .... off
 Hybrid DFT is turned on
   Fraction HF Exchange ScalHFX         ....  0.200000
   Scaling of DF-GGA-X  ScalDFX         ....  0.720000
   Scaling of DF-GGA-C  ScalDFC         ....  0.810000
   Scaling of DF-LDA-C  ScalLDAC        ....  1.000000
   Perturbative correction              ....  0.000000
   Density functional embedding theory  .... OFF
   NL short-range parameter             ....  4.800000
 RI-approximation to the Coulomb term is turned on
   Number of auxiliary basis functions  .... 3921
   RIJ-COSX (HFX calculated with COS-X)).... on


General Settings:
 Integral files         IntName         .... BTTPC
 Hartree-Fock type      HFTyp           .... RHF
 Total Charge           Charge          ....    0
 Multiplicity           Mult            ....    1
 Number of Electrons    NEL             ....  550
 Basis Dimension        Dim             .... 2485
 Nuclear Repulsion      ENuc            ....  11420.5114611780 Eh

Convergence Acceleration:
 DIIS                   CNVDIIS         .... on
   Start iteration      DIISMaxIt       ....    12
   Startup error        DIISStart       ....  0.200000
   # of expansion vecs  DIISMaxEq       ....     5
   Bias factor          DIISBfac        ....   1.050
   Max. coefficient     DIISMaxC        ....  10.000
 Newton-Raphson         CNVNR           .... off
 SOSCF                  CNVSOSCF        .... on
   Start iteration      SOSCFMaxIt      ....   150
   Startup grad/error   SOSCFStart      ....  0.003300
 Level Shifting         CNVShift        .... on
   Level shift para.    LevelShift      ....    0.2500
   Turn off err/grad.   ShiftErr        ....    0.0010
 Zerner damping         CNVZerner       .... off
 Static damping         CNVDamp         .... on
   Fraction old density DampFac         ....    0.7000
   Max. Damping (<1)    DampMax         ....    0.9800
   Min. Damping (>=0)   DampMin         ....    0.0000
   Turn off err/grad.   DampErr         ....    0.1000
 Fernandez-Rico         CNVRico         .... off

SCF Procedure:
 Maximum # iterations   MaxIter         ....   125
 SCF integral mode      SCFMode         .... Direct
   Integral package                     .... LIBINT
 Reset frequency        DirectResetFreq ....    20
 Integral Threshold     Thresh          ....  2.500e-11 Eh
 Primitive CutOff       TCut            ....  2.500e-12 Eh

Convergence Tolerance:
 Convergence Check Mode ConvCheckMode   .... Total+1el-Energy
 Convergence forced     ConvForced      .... 1
 Energy Change          TolE            ....  1.000e-08 Eh
 1-El. energy change                    ....  1.000e-05 Eh
 Orbital Gradient       TolG            ....  1.000e-05
 Orbital Rotation angle TolX            ....  1.000e-05
 DIIS Error             TolErr          ....  5.000e-07


Diagonalization of the overlap matrix:
Smallest eigenvalue                        ... 2.698e-06
Time for diagonalization                   ...    1.813 sec
Threshold for overlap eigenvalues          ... 1.000e-08
Number of eigenvalues below threshold      ... 0
Time for construction of square roots      ...    1.588 sec
Total time needed                          ...    3.407 sec

-------------------
DFT GRID GENERATION
-------------------

General Integration Accuracy     IntAcc      ...  4.670
Radial Grid Type                 RadialGrid  ... Gauss-Chebyshev
Angular Grid (max. acc.)         AngularGrid ... Lebedev-302
Angular grid pruning method      GridPruning ... 3 (G Style)
Weight generation scheme         WeightScheme... Becke
Basis function cutoff            BFCut       ...    1.0000e-11
Integration weight cutoff        WCut        ...    1.0000e-14
Grids for H and He will be reduced by one unit

# of grid points (after initial pruning)     ... 559734 (   0.0 sec)
# of grid points (after weights+screening)   ... 478193 (   5.9 sec)
nearest neighbour list constructed           ...    0.0 sec
Grid point re-assignment to atoms done       ...    0.1 sec
Grid point division into batches done        ...    1.8 sec
Reduced shell lists constructed in    3.3 sec

Total number of grid points                  ...   478193
Total number of batches                      ...     7525
Average number of points per batch           ...       63
Average number of grid points per atom       ...     4643
Average number of shells per batch           ...   156.93 (16.75%)
Average number of basis functions per batch  ...   409.30 (16.47%)
Average number of large shells per batch     ...   100.12 (63.80%)
Average number of large basis fcns per batch ...   264.77 (64.69%)
Maximum spatial batch extension              ...  22.02, 21.07, 17.64 au
Average spatial batch extension              ...   0.35,  0.33,  0.34 au

Time for grid setup =    9.671 sec

------------------------------
INITIAL GUESS: MODEL POTENTIAL
------------------------------
Loading Hartree-Fock densities                     ... done
Calculating cut-offs                               ... done
Setting up the integral package                    ... done
Initializing the effective Hamiltonian             ... done
Starting the Coulomb interaction                   ... done (   5.1 sec)
Reading the grid                                   ... done
Mapping shells                                     ... done
Starting the XC term evaluation                    ... done (   3.4 sec)
  promolecular density results
     # of electrons  =    549.986160912
     EX              =   -541.037522193
     EC              =    -19.732642840
     EX+EC           =   -560.770165033
Transforming the Hamiltonian                       ... done (   1.5 sec)
Diagonalizing the Hamiltonian                      ... done (   1.8 sec)
Back transforming the eigenvectors                 ... done (   0.7 sec)
Now organizing SCF variables                       ... done
                      ------------------
                      INITIAL GUESS DONE (  22.4 sec)
                      ------------------
--------------------
COSX GRID GENERATION
--------------------

General Integration Accuracy     IntAcc      ...  3.340
Radial Grid Type                 RadialGrid  ... Gauss-Chebyshev
Angular Grid (max. acc.)         AngularGrid ... Lebedev-50
Angular grid pruning method      GridPruning ... 3 (G Style)
Weight generation scheme         WeightScheme... Becke
Basis function cutoff            BFCut       ...    1.0000e-11
Integration weight cutoff        WCut        ...    1.0000e-14
Grids for H and He will be reduced by one unit

# of grid points (after initial pruning)     ...  52710 (   0.0 sec)
# of grid points (after weights+screening)   ...  47077 (   0.6 sec)
nearest neighbour list constructed           ...    0.0 sec
Grid point re-assignment to atoms done       ...    0.0 sec
Grid point division into batches done        ...    0.0 sec
Reduced shell lists constructed in    0.2 sec

Total number of grid points                  ...    47077
Total number of batches                      ...      787
Average number of points per batch           ...       59
Average number of grid points per atom       ...      457
Average number of shells per batch           ...   186.00 (19.85%)
Average number of basis functions per batch  ...   490.62 (19.74%)
Average number of large shells per batch     ...   119.98 (64.51%)
Average number of large basis fcns per batch ...   321.01 (65.43%)
Maximum spatial batch extension              ...  19.50, 16.53, 17.44 au
Average spatial batch extension              ...   0.77,  0.68,  0.73 au

Overlap Fitting                  UseSFitting ... on
Constructing numerical overlap ... done (      0.6 sec)
Inverting numerical overlap    ... done (      0.5 sec)
Obtaining analytic overlap     ... done (      0.0 sec)
Final contraction and storage  ... done (      3.2 sec)


General Integration Accuracy     IntAcc      ...  3.670
Radial Grid Type                 RadialGrid  ... Gauss-Chebyshev
Angular Grid (max. acc.)         AngularGrid ... Lebedev-50
Angular grid pruning method      GridPruning ... 3 (G Style)
Weight generation scheme         WeightScheme... Becke
Basis function cutoff            BFCut       ...    1.0000e-11
Integration weight cutoff        WCut        ...    1.0000e-14
Grids for H and He will be reduced by one unit

# of grid points (after initial pruning)     ...  65814 (   0.0 sec)
# of grid points (after weights+screening)   ...  58540 (   0.7 sec)
nearest neighbour list constructed           ...    0.0 sec
Grid point re-assignment to atoms done       ...    0.0 sec
Grid point division into batches done        ...    0.0 sec
Reduced shell lists constructed in    0.2 sec

Total number of grid points                  ...    58540
Total number of batches                      ...      971
Average number of points per batch           ...       60
Average number of grid points per atom       ...      568
Average number of shells per batch           ...   181.72 (19.39%)
Average number of basis functions per batch  ...   479.13 (19.28%)
Average number of large shells per batch     ...   116.85 (64.30%)
Average number of large basis fcns per batch ...   313.09 (65.34%)
Maximum spatial batch extension              ...  16.81, 15.30, 15.99 au
Average spatial batch extension              ...   0.70,  0.64,  0.68 au

Overlap Fitting                  UseSFitting ... on
Constructing numerical overlap ... done (      0.7 sec)
Inverting numerical overlap    ... done (      0.5 sec)
Obtaining analytic overlap     ... done (      0.0 sec)
Final contraction and storage  ... done (      3.2 sec)


General Integration Accuracy     IntAcc      ...  4.010
Radial Grid Type                 RadialGrid  ... Gauss-Chebyshev
Angular Grid (max. acc.)         AngularGrid ... Lebedev-110
Angular grid pruning method      GridPruning ... 3 (G Style)
Weight generation scheme         WeightScheme... Becke
Basis function cutoff            BFCut       ...    1.0000e-11
Integration weight cutoff        WCut        ...    1.0000e-14
Grids for H and He will be reduced by one unit

# of grid points (after initial pruning)     ... 128260 (   0.0 sec)
# of grid points (after weights+screening)   ... 112952 (   1.4 sec)
nearest neighbour list constructed           ...    0.0 sec
Grid point re-assignment to atoms done       ...    0.0 sec
Grid point division into batches done        ...    0.1 sec
Reduced shell lists constructed in    0.5 sec

Total number of grid points                  ...   112952
Total number of batches                      ...     1814
Average number of points per batch           ...       62
Average number of grid points per atom       ...     1097
Average number of shells per batch           ...   172.22 (18.38%)
Average number of basis functions per batch  ...   453.34 (18.24%)
Average number of large shells per batch     ...   111.34 (64.65%)
Average number of large basis fcns per batch ...   297.64 (65.65%)
Maximum spatial batch extension              ...  18.47, 16.29, 18.86 au
Average spatial batch extension              ...   0.60,  0.53,  0.59 au

Overlap Fitting                  UseSFitting ... on
Constructing numerical overlap ... done (      1.2 sec)
Inverting numerical overlap    ... done (      0.5 sec)
Obtaining analytic overlap     ... done (      0.0 sec)
Final contraction and storage  ... done (      3.2 sec)

Time for X-Grid setup             =   17.741 sec
--------------
SCF ITERATIONS
--------------
ITER       Energy         Delta-E        Max-DP      RMS-DP      [F,P]     Damp
               ***  Starting incremental Fock matrix formation  ***
  0  -5524.9956230748   0.000000000000 0.18587257  0.00097645  0.2938500 0.7000
  1  -5525.9008990253  -0.905275950512 0.15971377  0.00081618  0.0977738 0.7000
                               ***Turning on DIIS***
  2  -5526.2052001699  -0.304301144626 0.17906397  0.00110034  0.0452241 0.0000
  3  -5526.7298139701  -0.524613800177 0.17996965  0.00078449  0.0565852 0.0000
  4  -5526.8405239338  -0.110709963714 0.05429614  0.00025994  0.0368476 0.0000
  5  -5526.8553092424  -0.014785308575 0.02416222  0.00012230  0.0104252 0.0000
                      *** Initiating the SOSCF procedure ***
                           *** Shutting down DIIS ***
                      *** Re-Reading the Fockian *** 
                      *** Removing any level shift *** 
ITER      Energy       Delta-E        Grad      Rot      Max-DP    RMS-DP
  6  -5526.85644530  -0.0011360582  0.001153  0.001153  0.008136  0.000038
               *** Restarting incremental Fock matrix formation ***
  7  -5526.85660659  -0.0001612857  0.000692  0.008458  0.013765  0.000065
  8  -5526.85663058  -0.0000239936  0.000398  0.006159  0.007742  0.000033
  9  -5526.85664995  -0.0000193732  0.000527  0.005088  0.006707  0.000030
 10  -5526.85665824  -0.0000082915  0.000221  0.001143  0.002335  0.000012
 11  -5526.85666172  -0.0000034794  0.000182  0.001162  0.002410  0.000011
 12  -5526.85666261  -0.0000008878  0.000152  0.000460  0.000844  0.000005
 13  -5526.85666415  -0.0000015349  0.000051  0.000582  0.001780  0.000006
 14  -5526.85666466  -0.0000005085  0.000030  0.000095  0.000253  0.000001
 15  -5526.85666486  -0.0000002083  0.000023  0.000320  0.000624  0.000003
 16  -5526.85666482   0.0000000392  0.000018  0.000033  0.000272  0.000001
 17  -5526.85666489  -0.0000000698  0.000011  0.000177  0.000338  0.000002
 18  -5526.85666507  -0.0000001796  0.000010  0.000058  0.000248  0.000001
 19  -5526.85666492   0.0000001491  0.000006  0.000051  0.000583  0.000001
 20  -5526.85666479   0.0000001347  0.000004  0.000029  0.000345  0.000001
 21  -5526.85666486  -0.0000000747  0.000003  0.000022  0.000164  0.000001
                  ***Gradient check signals convergence***
              ***Rediagonalizing the Fockian in SOSCF/NRSCF***

               *****************************************************
               *                     SUCCESS                       *
               *           SCF CONVERGED AFTER  22 CYCLES          *
               *****************************************************

Setting up the final grid:

General Integration Accuracy     IntAcc      ...  5.010
Radial Grid Type                 RadialGrid  ... Gauss-Chebyshev
Angular Grid (max. acc.)         AngularGrid ... Lebedev-434
Angular grid pruning method      GridPruning ... 3 (G Style)
Weight generation scheme         WeightScheme... Becke
Basis function cutoff            BFCut       ...    1.0000e-11
Integration weight cutoff        WCut        ...    1.0000e-14
Grids for H and He will be reduced by one unit

# of grid points (after initial pruning)     ... 988432 (   0.0 sec)
# of grid points (after weights+screening)   ... 841578 (  10.2 sec)
nearest neighbour list constructed           ...    0.0 sec
Grid point re-assignment to atoms done       ...    0.1 sec
Grid point division into batches done        ...    5.9 sec
Reduced shell lists constructed in    8.3 sec

Total number of grid points                  ...   841578
Total number of batches                      ...    13200
Average number of points per batch           ...       63
Average number of grid points per atom       ...     8171
Average number of shells per batch           ...   153.87 (16.42%)
Average number of basis functions per batch  ...   399.89 (16.09%)
Average number of large shells per batch     ...    97.79 (63.56%)
Average number of large basis fcns per batch ...   258.18 (64.56%)
Maximum spatial batch extension              ...  22.45, 18.79, 17.81 au
Average spatial batch extension              ...   0.28,  0.26,  0.27 au

Final grid set up in   19.1 sec
Final integration                            ... done (   8.8 sec)
Change in XC energy                          ...    -0.000072588
Integrated number of electrons               ...   550.000135016
Previous integrated no of electrons          ...   550.000289412
Old exchange energy                            =   -109.080044695 Eh
New exchange energy                            =   -109.082183144 Eh
Exchange energy change after final integration =     -0.002138450 Eh
Total energy after final integration           =  -5526.858876002 Eh
Final COS-X integration done in                =   264.974 sec

----------------
TOTAL SCF ENERGY
----------------

Total Energy       :        -5526.85887600 Eh         -150393.47587 eV

Components:
Nuclear Repulsion  :        11420.51146118 Eh          310767.91599 eV
Electronic Energy  :       -16947.37033718 Eh         -461161.39187 eV
One Electron Energy:       -30324.06543240 Eh         -825159.77073 eV
Two Electron Energy:        13376.69509522 Eh          363998.37886 eV

Virial components:
Potential Energy   :       -11035.70673876 Eh         -300296.84716 eV
Kinetic Energy     :         5508.84786276 Eh          149903.37129 eV
Virial Ratio       :            2.00326947


DFT components:
N(Alpha)           :      275.000067508138 electrons
N(Beta)            :      275.000067508138 electrons
N(Total)           :      550.000135016276 electrons
E(X)               :     -433.618992222767 Eh       
E(C)               :      -23.159011555661 Eh       
E(XC)              :     -456.778003778428 Eh       
DFET-embed. en.    :        0.000000000000 Eh       

---------------
SCF CONVERGENCE
---------------

  Last Energy change         ...   -1.0010e-07  Tolerance :   1.0000e-08
  Last MAX-Density change    ...    3.9968e-15  Tolerance :   1.0000e-07
  Last RMS-Density change    ...    1.3515e-17  Tolerance :   5.0000e-09
  Last Orbital Gradient      ...    2.3953e-06  Tolerance :   1.0000e-05
  Last Orbital Rotation      ...    2.4736e-05  Tolerance :   1.0000e-05

             **** THE GBW FILE WAS UPDATED (BTTPC.gbw) ****
             **** DENSITY FILE WAS UPDATED (BTTPC.scfp) ****
             **** ENERGY FILE WAS UPDATED (BTTPC.en.tmp) ****
             **** THE GBW FILE WAS UPDATED (BTTPC.gbw) ****
             **** DENSITY FILE WAS UPDATED (BTTPC.scfp) ****
----------------
ORBITAL ENERGIES
----------------

  NO   OCC          E(Eh)            E(eV) 
   0   2.0000     -88.941673     -2420.2260 
   1   2.0000     -88.908168     -2419.3142 
   2   2.0000     -88.907853     -2419.3057 
   3   2.0000     -88.906557     -2419.2704 
   4   2.0000     -88.905147     -2419.2320 
   5   2.0000     -88.905141     -2419.2319 
   6   2.0000     -88.904398     -2419.2117 
   7   2.0000     -19.125445      -520.4298 
   8   2.0000     -19.125077      -520.4198 
   9   2.0000     -14.403951      -391.9514 
  10   2.0000     -14.398824      -391.8119 
  11   2.0000     -14.356504      -390.6603 
  12   2.0000     -14.355707      -390.6387 
  13   2.0000     -14.328524      -389.8990 
  14   2.0000     -14.327437      -389.8694 
  15   2.0000     -14.327218      -389.8634 
  16   2.0000     -14.326442      -389.8423 
  17   2.0000     -10.272715      -279.5348 
  18   2.0000     -10.270137      -279.4646 
  19   2.0000     -10.259061      -279.1632 
  20   2.0000     -10.257844      -279.1301 
  21   2.0000     -10.255045      -279.0540 
  22   2.0000     -10.254949      -279.0514 
  23   2.0000     -10.253890      -279.0225 
  24   2.0000     -10.252726      -278.9908 
  25   2.0000     -10.251554      -278.9590 
  26   2.0000     -10.246258      -278.8149 
  27   2.0000     -10.242535      -278.7135 
  28   2.0000     -10.242073      -278.7010 
  29   2.0000     -10.241702      -278.6909 
  30   2.0000     -10.241149      -278.6758 
  31   2.0000     -10.241073      -278.6738 
  32   2.0000     -10.240887      -278.6687 
  33   2.0000     -10.237993      -278.5899 
  34   2.0000     -10.237910      -278.5877 
  35   2.0000     -10.237256      -278.5699 
  36   2.0000     -10.236296      -278.5438 
  37   2.0000     -10.231089      -278.4021 
  38   2.0000     -10.230963      -278.3987 
  39   2.0000     -10.230804      -278.3943 
  40   2.0000     -10.230567      -278.3879 
  41   2.0000     -10.229669      -278.3634 
  42   2.0000     -10.229645      -278.3628 
  43   2.0000     -10.228876      -278.3419 
  44   2.0000     -10.228451      -278.3303 
  45   2.0000     -10.228098      -278.3207 
  46   2.0000     -10.227938      -278.3164 
  47   2.0000     -10.227675      -278.3092 
  48   2.0000     -10.226923      -278.2887 
  49   2.0000     -10.225732      -278.2563 
  50   2.0000     -10.225048      -278.2377 
  51   2.0000     -10.222554      -278.1698 
  52   2.0000     -10.220161      -278.1047 
  53   2.0000     -10.218750      -278.0663 
  54   2.0000     -10.217433      -278.0305 
  55   2.0000     -10.217317      -278.0273 
  56   2.0000     -10.215686      -277.9829 
  57   2.0000     -10.215081      -277.9665 
  58   2.0000     -10.214246      -277.9438 
  59   2.0000     -10.213318      -277.9185 
  60   2.0000     -10.212309      -277.8911 
  61   2.0000     -10.209879      -277.8249 
  62   2.0000     -10.209011      -277.8013 
  63   2.0000     -10.204336      -277.6741 
  64   2.0000     -10.204087      -277.6673 
  65   2.0000     -10.203621      -277.6546 
  66   2.0000     -10.203084      -277.6400 
  67   2.0000     -10.200089      -277.5585 
  68   2.0000     -10.198441      -277.5137 
  69   2.0000     -10.192647      -277.3560 
  70   2.0000     -10.185256      -277.1549 
  71   2.0000     -10.175097      -276.8785 
  72   2.0000     -10.173296      -276.8295 
  73   2.0000      -8.012151      -218.0217 
  74   2.0000      -7.984207      -217.2613 
  75   2.0000      -7.983791      -217.2500 
  76   2.0000      -7.981358      -217.1838 
  77   2.0000      -7.981088      -217.1765 
  78   2.0000      -7.980366      -217.1568 
  79   2.0000      -7.979925      -217.1448 
  80   2.0000      -5.976892      -162.6395 
  81   2.0000      -5.969820      -162.4471 
  82   2.0000      -5.968582      -162.4134 
  83   2.0000      -5.946939      -161.8244 
  84   2.0000      -5.946525      -161.8132 
  85   2.0000      -5.944400      -161.7553 
  86   2.0000      -5.943789      -161.7387 
  87   2.0000      -5.943161      -161.7216 
  88   2.0000      -5.943064      -161.7190 
  89   2.0000      -5.943018      -161.7177 
  90   2.0000      -5.942777      -161.7112 
  91   2.0000      -5.940666      -161.6537 
  92   2.0000      -5.940381      -161.6460 
  93   2.0000      -5.939950      -161.6343 
  94   2.0000      -5.939779      -161.6296 
  95   2.0000      -5.939241      -161.6150 
  96   2.0000      -5.939070      -161.6103 
  97   2.0000      -5.937608      -161.5705 
  98   2.0000      -5.937073      -161.5560 
  99   2.0000      -5.936886      -161.5509 
 100   2.0000      -5.935577      -161.5153 
 101   2.0000      -1.053445       -28.6657 
 102   2.0000      -1.052806       -28.6483 
 103   2.0000      -1.032157       -28.0864 
 104   2.0000      -1.018930       -27.7265 
 105   2.0000      -1.017365       -27.6839 
 106   2.0000      -0.933307       -25.3966 
 107   2.0000      -0.932054       -25.3625 
 108   2.0000      -0.925613       -25.1872 
 109   2.0000      -0.924277       -25.1508 
 110   2.0000      -0.919526       -25.0216 
 111   2.0000      -0.918791       -25.0016 
 112   2.0000      -0.914668       -24.8894 
 113   2.0000      -0.914045       -24.8724 
 114   2.0000      -0.899044       -24.4642 
 115   2.0000      -0.894509       -24.3408 
 116   2.0000      -0.894043       -24.3281 
 117   2.0000      -0.880853       -23.9692 
 118   2.0000      -0.870151       -23.6780 
 119   2.0000      -0.861108       -23.4319 
 120   2.0000      -0.843579       -22.9550 
 121   2.0000      -0.842063       -22.9137 
 122   2.0000      -0.828127       -22.5345 
 123   2.0000      -0.816601       -22.2208 
 124   2.0000      -0.813557       -22.1380 
 125   2.0000      -0.811739       -22.0885 
 126   2.0000      -0.810420       -22.0526 
 127   2.0000      -0.805284       -21.9129 
 128   2.0000      -0.797622       -21.7044 
 129   2.0000      -0.796209       -21.6659 
 130   2.0000      -0.785434       -21.3728 
 131   2.0000      -0.784252       -21.3406 
 132   2.0000      -0.775220       -21.0948 
 133   2.0000      -0.768094       -20.9009 
 134   2.0000      -0.752817       -20.4852 
 135   2.0000      -0.749367       -20.3913 
 136   2.0000      -0.740831       -20.1590 
 137   2.0000      -0.740059       -20.1380 
 138   2.0000      -0.739587       -20.1252 
 139   2.0000      -0.727367       -19.7927 
 140   2.0000      -0.724729       -19.7209 
 141   2.0000      -0.716919       -19.5083 
 142   2.0000      -0.702687       -19.1211 
 143   2.0000      -0.686398       -18.6778 
 144   2.0000      -0.677780       -18.4433 
 145   2.0000      -0.674599       -18.3568 
 146   2.0000      -0.673535       -18.3278 
 147   2.0000      -0.671357       -18.2686 
 148   2.0000      -0.654271       -17.8036 
 149   2.0000      -0.647828       -17.6283 
 150   2.0000      -0.645488       -17.5646 
 151   2.0000      -0.641756       -17.4631 
 152   2.0000      -0.631254       -17.1773 
 153   2.0000      -0.622929       -16.9507 
 154   2.0000      -0.619537       -16.8585 
 155   2.0000      -0.609669       -16.5899 
 156   2.0000      -0.607107       -16.5202 
 157   2.0000      -0.603902       -16.4330 
 158   2.0000      -0.596385       -16.2285 
 159   2.0000      -0.586937       -15.9714 
 160   2.0000      -0.585792       -15.9402 
 161   2.0000      -0.584667       -15.9096 
 162   2.0000      -0.583806       -15.8862 
 163   2.0000      -0.576247       -15.6805 
 164   2.0000      -0.565809       -15.3964 
 165   2.0000      -0.558796       -15.2056 
 166   2.0000      -0.557133       -15.1604 
 167   2.0000      -0.543006       -14.7760 
 168   2.0000      -0.541674       -14.7397 
 169   2.0000      -0.540175       -14.6989 
 170   2.0000      -0.534310       -14.5393 
 171   2.0000      -0.523805       -14.2535 
 172   2.0000      -0.519373       -14.1329 
 173   2.0000      -0.517428       -14.0799 
 174   2.0000      -0.515492       -14.0272 
 175   2.0000      -0.509390       -13.8612 
 176   2.0000      -0.507777       -13.8173 
 177   2.0000      -0.503625       -13.7043 
 178   2.0000      -0.498753       -13.5717 
 179   2.0000      -0.495779       -13.4908 
 180   2.0000      -0.487737       -13.2720 
 181   2.0000      -0.482035       -13.1168 
 182   2.0000      -0.478666       -13.0252 
 183   2.0000      -0.474620       -12.9151 
 184   2.0000      -0.472441       -12.8558 
 185   2.0000      -0.470843       -12.8123 
 186   2.0000      -0.468218       -12.7409 
 187   2.0000      -0.465142       -12.6572 
 188   2.0000      -0.462468       -12.5844 
 189   2.0000      -0.461090       -12.5469 
 190   2.0000      -0.459604       -12.5065 
 191   2.0000      -0.458660       -12.4808 
 192   2.0000      -0.456789       -12.4299 
 193   2.0000      -0.453418       -12.3381 
 194   2.0000      -0.452945       -12.3253 
 195   2.0000      -0.452531       -12.3140 
 196   2.0000      -0.447785       -12.1848 
 197   2.0000      -0.443562       -12.0699 
 198   2.0000      -0.441686       -12.0189 
 199   2.0000      -0.440294       -11.9810 
 200   2.0000      -0.436893       -11.8885 
 201   2.0000      -0.433356       -11.7922 
 202   2.0000      -0.432756       -11.7759 
 203   2.0000      -0.430011       -11.7012 
 204   2.0000      -0.423609       -11.5270 
 205   2.0000      -0.421758       -11.4766 
 206   2.0000      -0.420929       -11.4541 
 207   2.0000      -0.420438       -11.4407 
 208   2.0000      -0.419532       -11.4160 
 209   2.0000      -0.418163       -11.3788 
 210   2.0000      -0.416915       -11.3448 
 211   2.0000      -0.415100       -11.2954 
 212   2.0000      -0.413158       -11.2426 
 213   2.0000      -0.412083       -11.2134 
 214   2.0000      -0.409157       -11.1337 
 215   2.0000      -0.407969       -11.1014 
 216   2.0000      -0.406071       -11.0498 
 217   2.0000      -0.401759       -10.9324 
 218   2.0000      -0.399662       -10.8754 
 219   2.0000      -0.398628       -10.8472 
 220   2.0000      -0.397288       -10.8108 
 221   2.0000      -0.394567       -10.7367 
 222   2.0000      -0.391442       -10.6517 
 223   2.0000      -0.387957       -10.5569 
 224   2.0000      -0.385885       -10.5005 
 225   2.0000      -0.384647       -10.4668 
 226   2.0000      -0.384521       -10.4633 
 227   2.0000      -0.383002       -10.4220 
 228   2.0000      -0.382220       -10.4007 
 229   2.0000      -0.381295       -10.3756 
 230   2.0000      -0.377063       -10.2604 
 231   2.0000      -0.376498       -10.2450 
 232   2.0000      -0.375850       -10.2274 
 233   2.0000      -0.369611       -10.0576 
 234   2.0000      -0.366146        -9.9633 
 235   2.0000      -0.366033        -9.9603 
 236   2.0000      -0.365135        -9.9358 
 237   2.0000      -0.363999        -9.9049 
 238   2.0000      -0.361733        -9.8432 
 239   2.0000      -0.360598        -9.8124 
 240   2.0000      -0.360111        -9.7991 
 241   2.0000      -0.357050        -9.7158 
 242   2.0000      -0.355732        -9.6800 
 243   2.0000      -0.354611        -9.6494 
 244   2.0000      -0.352064        -9.5802 
 245   2.0000      -0.351530        -9.5656 
 246   2.0000      -0.349923        -9.5219 
 247   2.0000      -0.347112        -9.4454 
 248   2.0000      -0.343084        -9.3358 
 249   2.0000      -0.342362        -9.3161 
 250   2.0000      -0.340544        -9.2667 
[...]
   265a -> 276a  :     0.025481 (c=  0.15962628)
   266a -> 276a  :     0.078082 (c=  0.27943081)
   267a -> 275a  :     0.010661 (c=  0.10325421)
   267a -> 276a  :     0.014445 (c= -0.12018665)
   268a -> 276a  :     0.010812 (c= -0.10397923)
   269a -> 278a  :     0.133313 (c=  0.36512035)
   269a -> 279a  :     0.010610 (c=  0.10300519)
   270a -> 278a  :     0.224491 (c= -0.47380441)
   271a -> 278a  :     0.017761 (c=  0.13327147)
   272a -> 279a  :     0.019329 (c=  0.13902951)
   274a -> 280a  :     0.020960 (c= -0.14477613)
   274a -> 281a  :     0.113665 (c= -0.33714251)

STATE 44:  E=   0.140188 au      3.815 eV    30767.7 cm**-1
   263a -> 275a  :     0.248214 (c= -0.49821112)
   263a -> 276a  :     0.011040 (c=  0.10507132)
   264a -> 275a  :     0.032953 (c=  0.18152996)
   264a -> 276a  :     0.503012 (c=  0.70923370)
   264a -> 278a  :     0.012110 (c= -0.11004421)
   267a -> 276a  :     0.010326 (c= -0.10161596)
   269a -> 278a  :     0.028068 (c=  0.16753626)
   270a -> 278a  :     0.018719 (c= -0.13681873)

STATE 45:  E=   0.140896 au      3.834 eV    30923.1 cm**-1
   263a -> 275a  :     0.019381 (c=  0.13921722)
   263a -> 276a  :     0.536170 (c= -0.73223655)
   264a -> 275a  :     0.214647 (c=  0.46329980)
   264a -> 276a  :     0.016699 (c=  0.12922357)
   272a -> 279a  :     0.014157 (c= -0.11898349)
   274a -> 281a  :     0.057357 (c=  0.23949344)

STATE 46:  E=   0.144052 au      3.920 eV    31615.7 cm**-1
   260a -> 275a  :     0.037861 (c=  0.19457912)
   261a -> 275a  :     0.289137 (c=  0.53771424)
   262a -> 276a  :     0.435076 (c=  0.65960278)
   266a -> 277a  :     0.024801 (c= -0.15748458)
   266a -> 278a  :     0.033342 (c=  0.18259677)
   267a -> 277a  :     0.019058 (c= -0.13805113)
   272a -> 280a  :     0.011457 (c= -0.10703606)
   273a -> 279a  :     0.010698 (c= -0.10343100)
   274a -> 281a  :     0.019393 (c= -0.13925972)

STATE 47:  E=   0.145376 au      3.956 eV    31906.4 cm**-1
   260a -> 275a  :     0.018854 (c=  0.13730919)
   261a -> 275a  :     0.034615 (c= -0.18605119)
   261a -> 276a  :     0.016327 (c=  0.12777904)
   265a -> 277a  :     0.011967 (c= -0.10939591)
   265a -> 278a  :     0.022684 (c= -0.15061343)
   266a -> 277a  :     0.195122 (c= -0.44172670)
   266a -> 278a  :     0.012459 (c= -0.11162083)
   267a -> 277a  :     0.074386 (c=  0.27273773)
   267a -> 278a  :     0.105074 (c=  0.32415186)
   269a -> 279a  :     0.064809 (c=  0.25457540)
   269a -> 281a  :     0.013593 (c=  0.11659049)
   270a -> 279a  :     0.275629 (c= -0.52500347)
   271a -> 279a  :     0.011943 (c=  0.10928285)

STATE 48:  E=   0.145854 au      3.969 eV    32011.2 cm**-1
   260a -> 275a  :     0.032108 (c=  0.17918618)
   261a -> 275a  :     0.055079 (c= -0.23468817)
   262a -> 276a  :     0.190076 (c=  0.43597709)
   265a -> 277a  :     0.061300 (c= -0.24758741)
   266a -> 277a  :     0.155834 (c=  0.39475862)
   266a -> 278a  :     0.077980 (c= -0.27924871)
   267a -> 277a  :     0.038525 (c=  0.19627809)
   268a -> 277a  :     0.040496 (c=  0.20123560)
   269a -> 278a  :     0.021103 (c= -0.14526837)
   269a -> 279a  :     0.092666 (c=  0.30441107)
   270a -> 279a  :     0.023457 (c=  0.15315769)
   274a -> 282a  :     0.053075 (c= -0.23037917)

STATE 49:  E=   0.146252 au      3.980 eV    32098.7 cm**-1
   266a -> 277a  :     0.118933 (c=  0.34486721)
   267a -> 277a  :     0.020864 (c= -0.14444335)
   267a -> 278a  :     0.026445 (c= -0.16261976)
   268a -> 277a  :     0.076777 (c=  0.27708700)
   269a -> 278a  :     0.030200 (c= -0.17378031)
   270a -> 278a  :     0.057372 (c= -0.23952462)
   270a -> 279a  :     0.512068 (c= -0.71558892)
   271a -> 279a  :     0.011730 (c=  0.10830592)
   274a -> 282a  :     0.039640 (c= -0.19909809)

STATE 50:  E=   0.147143 au      4.004 eV    32294.1 cm**-1
   261a -> 275a  :     0.044030 (c=  0.20983387)
   262a -> 276a  :     0.092173 (c= -0.30359960)
   265a -> 277a  :     0.015369 (c=  0.12397089)
   266a -> 278a  :     0.028953 (c=  0.17015587)
   269a -> 278a  :     0.029536 (c= -0.17186069)
   269a -> 279a  :     0.677644 (c=  0.82319155)
   270a -> 279a  :     0.018895 (c=  0.13745729)
   271a -> 279a  :     0.019340 (c=  0.13906959)


-----------------------------
TD-DFT/TDA-EXCITATION SPECTRA
-----------------------------

Center of mass = ( -7.8519, 14.9312, -0.2985)
Calculating the Dipole integrals                  ... done
Transforming integrals                            ... done
Calculating the Linear Momentum integrals         ... done
Transforming integrals                            ... done
Calculating angular momentum integrals            ... done
Transforming integrals                            ... done

-----------------------------------------------------------------------------
         ABSORPTION SPECTRUM VIA TRANSITION ELECTRIC DIPOLE MOMENTS
-----------------------------------------------------------------------------
State   Energy    Wavelength  fosc         T2        TX        TY        TZ  
        (cm-1)      (nm)                 (au**2)    (au)      (au)      (au) 
-----------------------------------------------------------------------------
   1   14693.5    680.6   2.554595071  57.23653   0.06914  -7.56140  -0.23861
   2   16718.3    598.1   0.115313397   2.27071   0.30996  -0.87823   1.18463
   3   19712.4    507.3   0.082447573   1.37694   0.05362  -1.10414   0.39362
   4   19836.4    504.1   0.377184757   6.25990  -0.02824  -2.46264  -0.44104
   5   20403.5    490.1   0.006941624   0.11200  -0.22914  -0.22222   0.10058
   6   20866.3    479.2   0.097511554   1.53846   0.03758  -1.21762  -0.23334
   7   21598.4    463.0   0.082211920   1.25311  -0.00153  -1.11604  -0.08692
   8   21967.1    455.2   0.195210875   2.92554   0.33987   0.10589   1.67297
   9   22163.3    451.2   0.039253563   0.58307  -0.14830  -0.18625  -0.72553
  10   22660.7    441.3   0.138662755   2.01448  -0.45181   1.27444  -0.43146
  11   22784.4    438.9   0.068358277   0.98771  -0.72545  -0.49878  -0.46114
  12   22998.0    434.8   0.035996968   0.51529  -0.30877   0.37427  -0.52903
  13   23304.1    429.1   0.018612691   0.26294   0.11983  -0.25803   0.42661
  14   24754.7    404.0   0.005124092   0.06815   0.03688  -0.16021  -0.20277
  15   24847.2    402.5   0.005897285   0.07814   0.00394  -0.27804  -0.02856
  16   24994.9    400.1   0.046820478   0.61668   0.25412  -0.73869   0.08023
  17   25380.6    394.0   0.004243082   0.05504   0.19390   0.12805   0.03229
  18   25605.8    390.5   0.021434183   0.27558   0.00970   0.21563  -0.47853
  19   25917.1    385.8   0.008251256   0.10481  -0.00489  -0.30819   0.09902
  20   26159.8    382.3   0.022797568   0.28690   0.03396   0.35522  -0.39945
  21   26432.1    378.3   0.007937011   0.09886  -0.12114  -0.03379  -0.28816
  22   26501.0    377.3   0.016988630   0.21104  -0.45706   0.03282   0.03263
  23   26686.1    374.7   0.088787835   1.09533   0.00117   1.04342   0.08124
  24   26751.0    373.8   0.051356738   0.63202  -0.56655   0.15837  -0.53475
  25   27346.0    365.7   0.356455026   4.29128  -0.28956   2.04339   0.17891
  26   27629.2    361.9   0.047731675   0.56874  -0.06903   0.74799  -0.06703
  27   27883.4    358.6   0.070845081   0.83645   0.40197  -0.71234   0.40919
  28   27974.7    357.5   0.049606371   0.58378  -0.11161  -0.73738  -0.16609
  29   28111.9    355.7   0.031178349   0.36512  -0.23644  -0.48286  -0.27579
  30   28152.7    355.2   0.055074004   0.64402   0.40771   0.43551   0.53678
  31   28410.8    352.0   0.046197830   0.53532  -0.16475   0.29510   0.64892
  32   28500.5    350.9   0.016740224   0.19337   0.36145   0.18616  -0.16752
  33   28558.5    350.2   0.043942195   0.50655  -0.19953   0.09804  -0.67611
  34   28796.7    347.3   0.009087608   0.10389   0.30088   0.10862  -0.03959
  35   28954.8    345.4   0.031305541   0.35594  -0.19719  -0.09731  -0.55460
  36   29126.0    343.3   0.051351904   0.58043  -0.01011   0.53966   0.53768
  37   29396.8    340.2   0.298682334   3.34492  -1.50510  -0.45194  -0.93560
  38   29739.3    336.3   0.174781243   1.93482  -0.28588   1.35272   0.15248
  39   30226.8    330.8   0.088159463   0.96018  -0.00394   0.89871   0.39049
  40   30274.8    330.3   0.098975346   1.07627  -0.58603   0.70107   0.49125
  41   30404.0    328.9   0.013189290   0.14281  -0.33811  -0.14695   0.08309
  42   30560.8    327.2   0.160817206   1.73238  -0.99086   0.45139   0.73947
  43   30666.7    326.1   0.169434916   1.81891   1.16658   0.67576   0.03679
  44   30767.7    325.0   0.039537090   0.42304   0.35751   0.42031   0.34434
  45   30923.1    323.4   0.027171028   0.28927  -0.31732   0.33058   0.28159
  46   31615.7    316.3   0.007929358   0.08257   0.08036   0.24465   0.12750
  47   31906.4    313.4   0.066912553   0.69041  -0.16867   0.81163  -0.05662
  48   32011.2    312.4   0.062291922   0.64063  -0.18917  -0.77605   0.05081
  49   32098.7    311.5   0.067617099   0.69350   0.19130  -0.79771  -0.14339
  50   32294.1    309.7   0.013572857   0.13836   0.02921  -0.13398  -0.34578

-----------------------------------------------------------------------------
         ABSORPTION SPECTRUM VIA TRANSITION VELOCITY DIPOLE MOMENTS
-----------------------------------------------------------------------------
State   Energy    Wavelength   fosc        P2         PX        PY        PZ  
        (cm-1)      (nm)                 (au**2)     (au)      (au)      (au) 
-----------------------------------------------------------------------------
   1   14693.5    680.6   0.809072316   0.08125  -0.00194   0.28444   0.01849
   2   16718.3    598.1   0.044766246   0.00512  -0.03156   0.04431   0.04643
   3   19712.4    507.3   0.106593411   0.01436   0.01670   0.04986   0.10768
   4   19836.4    504.1   0.220065268   0.02983  -0.01208   0.16040  -0.06294
   5   20403.5    490.1   0.027161230   0.00379  -0.04341   0.03063  -0.03107
   6   20866.3    479.2   0.026854384   0.00383   0.00013   0.05343  -0.03122
   7   21598.4    463.0   0.007474015   0.00110   0.01944   0.01709   0.02082
   8   21967.1    455.2   0.017063863   0.00256  -0.04857   0.01423   0.00066
   9   22163.3    451.2   0.024624165   0.00373   0.01510   0.05514   0.02148
  10   22660.7    441.3   0.044602453   0.00691   0.02960  -0.07404  -0.02345
  11   22784.4    438.9   0.019990998   0.00311   0.01613   0.05333   0.00304
  12   22998.0    434.8   0.051982412   0.00817   0.00857  -0.08914   0.01227
  13   23304.1    429.1   0.015211671   0.00242  -0.01729   0.01992  -0.04156
  14   24754.7    404.0   0.002001661   0.00034  -0.00050  -0.00424   0.01790
  15   24847.2    402.5   0.009787439   0.00166   0.02393   0.00824   0.03196
  16   24994.9    400.1   0.018555656   0.00317   0.00478   0.05310   0.01808
  17   25380.6    394.0   0.004855798   0.00084   0.02468  -0.00863   0.01260
  18   25605.8    390.5   0.002217055   0.00039   0.01431  -0.01350  -0.00105
  19   25917.1    385.8   0.007896974   0.00140  -0.01135   0.02685  -0.02344
  20   26159.8    382.3   0.015738422   0.00281  -0.00705  -0.01025  -0.05157
  21   26432.1    378.3   0.027706585   0.00501   0.00020   0.00921  -0.07015
  22   26501.0    377.3   0.003926991   0.00071   0.01261   0.01562   0.01755
  23   26686.1    374.7   0.033134153   0.00604   0.00032  -0.07754  -0.00550
  24   26751.0    373.8   0.005893830   0.00108   0.00963  -0.01848   0.02536
  25   27346.0    365.7   0.237931606   0.04447  -0.00298  -0.21069  -0.00841
  26   27629.2    361.9   0.031043027   0.00586  -0.00078  -0.07638  -0.00522
  27   27883.4    358.6   0.037437502   0.00713  -0.03321   0.07384  -0.02406
  28   27974.7    357.5   0.005703340   0.00109  -0.01394   0.02989   0.00157
  29   28111.9    355.7   0.027318600   0.00525  -0.01387   0.07101   0.00369
  30   28152.7    355.2   0.008751771   0.00168  -0.00399  -0.02992  -0.02780
  31   28410.8    352.0   0.001243017   0.00024   0.00576  -0.00512  -0.01349
  32   28500.5    350.9   0.003040964   0.00059  -0.00759  -0.01662  -0.01608
  33   28558.5    350.2   0.003959670   0.00077  -0.00295   0.00116  -0.02762
  34   28796.7    347.3   0.001402742   0.00028   0.01448  -0.00693  -0.00428
  35   28954.8    345.4   0.003991586   0.00079   0.01098  -0.00996   0.02388
  36   29126.0    343.3   0.020789664   0.00414   0.01533  -0.05569   0.02832
  37   29396.8    340.2   0.021458633   0.00431  -0.00122   0.06525  -0.00720
  38   29739.3    336.3   0.089359677   0.01816   0.00477  -0.13185  -0.02748
  39   30226.8    330.8   0.019291328   0.00399   0.02184  -0.05920  -0.00184
  40   30274.8    330.3   0.017144794   0.00355   0.01259  -0.05815   0.00266
  41   30404.0    328.9   0.003818726   0.00079   0.00393   0.02003   0.01942
  42   30560.8    327.2   0.006416067   0.00134   0.01853  -0.01569   0.02740
  43   30666.7    326.1   0.016214571   0.00340   0.00148  -0.04919  -0.03125
  44   30767.7    325.0   0.006055974   0.00127   0.00046  -0.03500  -0.00693
  45   30923.1    323.4   0.013200224   0.00279   0.02108  -0.03867   0.02916
  46   31615.7    316.3   0.002109241   0.00046   0.00725  -0.01591  -0.01224
  47   31906.4    313.4   0.015988273   0.00349  -0.01020  -0.04638  -0.03508
  48   32011.2    312.4   0.041511383   0.00908  -0.04745   0.07739   0.02901
  49   32098.7    311.5   0.027981630   0.00614  -0.00378   0.07369   0.02634
  50   32294.1    309.7   0.004418795   0.00098   0.02504   0.01850  -0.00247

-------------------------------------------------------------------
                             CD SPECTRUM
-------------------------------------------------------------------
State  Energy     Wavelength     R         MX        MY        MZ   
       (cm-1)       (nm)     (1e40*cgs)   (au)      (au)      (au)  
-------------------------------------------------------------------
   1   14693.5    680.6    -388.85266  -0.12440   0.09098   0.53747
   2   16718.3    598.1     88.34301   0.08058   0.00033   0.13734
   3   19712.4    507.3     17.77302  -0.19895  -0.04382  -0.00003
   4   19836.4    504.1     23.89657  -0.08585   0.00517  -0.13827
   5   20403.5    490.1    -44.33879   0.31774   0.06570  -0.06602
   6   20866.3    479.2    -64.79118  -0.81360   0.05717   0.15960
   7   21598.4    463.0    -44.47308   0.10087   0.06769   0.21433
   8   21967.1    455.2    136.58842  -0.26428  -0.06090   0.23072
   9   22163.3    451.2     11.04026   0.25643   0.00191  -0.08518
  10   22660.7    441.3     29.01087   0.17676   0.00450  -0.31442
  11   22784.4    438.9    107.86995  -0.31832  -0.00512   0.01014
  12   22998.0    434.8     53.53586  -0.03873  -0.04729  -0.22550
  13   23304.1    429.1     11.29641  -0.13471  -0.01762   0.08335
  14   24754.7    404.0    -20.68490   0.18073   0.03753   0.21959
  15   24847.2    402.5      1.29379  -0.25288  -0.05018   0.35750
  16   24994.9    400.1    -12.10068  -0.03864   0.03525   0.12705
  17   25380.6    394.0      6.22416   0.05448  -0.03212   0.20913
  18   25605.8    390.5      7.30384   0.03510   0.00884  -0.02768
  19   25917.1    385.8      3.63003   0.00795  -0.01257   0.03904
  20   26159.8    382.3     18.79727   0.07718   0.05575  -0.04368
  21   26432.1    378.3      2.59507  -0.07476   0.03919   0.00773
  22   26501.0    377.3    -25.37949   0.12533   0.11574  -0.01072
  23   26686.1    374.7    -21.27074   0.40528  -0.03327  -0.13389
  24   26751.0    373.8     29.49734   0.16746   0.03435  -0.28425
  25   27346.0    365.7    -80.80055   0.34249  -0.01395  -0.24436
  26   27629.2    361.9    -26.51733   0.37098  -0.04817  -0.08041
  27   27883.4    358.6    -20.50140  -0.04292   0.06414   0.04755
  28   27974.7    357.5     19.61597  -0.09159  -0.05356   0.04881
  29   28111.9    355.7      5.25566   0.13833  -0.11725   0.04627
  30   28152.7    355.2      0.66977  -0.08165  -0.01083   0.07345
  31   28410.8    352.0    -40.55861  -0.12425  -0.02133  -0.15442
  32   28500.5    350.9     15.56332   0.06235   0.05356  -0.00301
  33   28558.5    350.2     14.84503  -0.00388   0.02987  -0.04110
  34   28796.7    347.3      6.16756   0.04444   0.02130   0.06572
  35   28954.8    345.4      5.55985   0.23446  -0.01092  -0.10271
  36   29126.0    343.3    -15.58731   0.09986  -0.01130  -0.04827
  37   29396.8    340.2    202.01942  -0.13580  -0.03220  -0.22399
  38   29739.3    336.3    -52.72019   0.31222   0.00353  -0.17933
  39   30226.8    330.8     -1.63378   0.15965   0.02677  -0.06888
  40   30274.8    330.3    -80.39358   0.14795  -0.02834  -0.13019
  41   30404.0    328.9      8.16525  -0.03824  -0.02291   0.01232
  42   30560.8    327.2     10.74005  -0.18983  -0.04532  -0.19590
  43   30666.7    326.1     27.01701   0.01296   0.05501   0.13617
  44   30767.7    325.0     11.23390  -0.01515   0.02852   0.05011
  45   30923.1    323.4    -11.32311   0.02912  -0.00285  -0.04913
  46   31615.7    316.3     -9.26575  -0.08694   0.02775  -0.15260
  47   31906.4    313.4      7.71007   0.11091   0.03025  -0.18566
  48   32011.2    312.4     31.86536   0.02491  -0.08121   0.18265
  49   32098.7    311.5    -28.43157  -0.22908  -0.01899   0.22059
  50   32294.1    309.7     -7.06262  -0.22178   0.01358   0.01933

Total run time:    18587.468 sec

           *** ORCA-CIS/TD-DFT FINISHED WITHOUT ERROR ***

-----------------------
CIS/TD-DFT TOTAL ENERGY
-----------------------

    E(SCF)  =  -5526.858876002 Eh
    DE(CIS) =      0.066948368 Eh (Root  1)
    ----------------------------- ---------
    E(tot)  =  -5526.791927634 Eh


-------------------------   --------------------
FINAL SINGLE POINT ENERGY     -5526.791927633690
-------------------------   --------------------


                            ***************************************
                            *     ORCA property calculations      *
                            ***************************************

                                    ---------------------
                                    Active property flags
                                    ---------------------
   (+) Dipole Moment


------------------------------------------------------------------------------
                       ORCA ELECTRIC PROPERTIES CALCULATION
------------------------------------------------------------------------------

Dipole Moment Calculation                       ... on
Quadrupole Moment Calculation                   ... off
Polarizability Calculation                      ... off
GBWName                                         ... BTTPC.gbw
Electron density file                           ... BTTPC.scfp
The origin for moment calculation is the CENTER OF MASS  = (-7.851930, 14.931211 -0.298522)

-------------
DIPOLE MOMENT
-------------
                                X             Y             Z
Electronic contribution:      3.53344       0.53363      -7.97025
Nuclear contribution   :     -0.45389       0.08694       7.72422
                        -----------------------------------------
Total Dipole Moment    :      3.07955       0.62057      -0.24603
                        -----------------------------------------
Magnitude (a.u.)       :      3.15108
Magnitude (Debye)      :      8.00940



--------------------
Rotational spectrum 
--------------------
 
Rotational constants in cm-1:     0.001982     0.000202     0.000192 
Rotational constants in MHz :    59.407612     6.064395     5.760381 

 Dipole components along the rotational axes: 
x,y,z [a.u.] :     0.569593     1.065981     2.910075 
x,y,z [Debye]:     1.447791     2.709508     7.396823 

 

Timings for individual modules:

Sum of individual times         ...    21782.266 sec (= 363.038 min)
GTO integral calculation        ...        8.921 sec (=   0.149 min)   0.0 %
SCF iterations                  ...     3185.078 sec (=  53.085 min)  14.6 %
CIS module                      ...    18588.267 sec (= 309.804 min)  85.3 %
                             ****ORCA TERMINATED NORMALLY****
TOTAL RUN TIME: 0 days 6 hours 3 minutes 4 seconds 140 msec
