
                                 *****************
                                 * O   R   C   A *
                                 *****************

           --- An Ab Initio, DFT and Semiempirical electronic structure package ---

                  #######################################################
                  #                        -***-                        #
                  #          Department of theory and spectroscopy      #
                  #               Directorship: Frank Neese             #
                  #        Max Planck Institute fuer Kohlenforschung    #
                  #                Kaiser Wilhelm Platz 1               #
                  #                 D-45470 Muelheim/Ruhr               #
                  #                      Germany                        #
                  #                                                     #
                  #                  All rights reserved                #
                  #                        -***-                        #
                  #######################################################


                         Program Version 4.2.0 -  RELEASE  -


 With contributions from (in alphabetic order):
   Daniel Aravena         : Magnetic Suceptibility
   Michael Atanasov       : Ab Initio Ligand Field Theory (pilot matlab implementation)
   Alexander A. Auer      : GIAO ZORA, VPT2
   Ute Becker             : Parallelization
   Giovanni Bistoni       : ED, misc. LED, open-shell LED, HFLED
   Martin Brehm           : Molecular dynamics
   Dmytro Bykov           : SCF Hessian
   Vijay G. Chilkuri      : MRCI spin determinant printing, contributions to CSF-ICE
   Dipayan Datta          : RHF DLPNO-CCSD density
   Achintya Kumar Dutta   : EOM-CC, STEOM-CC
   Dmitry Ganyushin       : Spin-Orbit,Spin-Spin,Magnetic field MRCI
   Miquel Garcia          : C-PCM Hessian, Gaussian charge scheme
   Yang Guo               : DLPNO-NEVPT2, CIM, IAO-localization
   Andreas Hansen         : Spin unrestricted coupled pair/coupled cluster methods
   Benjamin Helmich-Paris : CASSCF linear response (MC-RPA)
   Lee Huntington         : MR-EOM, pCC
   Robert Izsak           : Overlap fitted RIJCOSX, COSX-SCS-MP3, EOM
   Christian Kollmar      : KDIIS, OOCD, Brueckner-CCSD(T), CCSD density
   Simone Kossmann        : Meta GGA functionals, TD-DFT gradient, OOMP2, MP2 Hessian
   Martin Krupicka        : AUTO-CI
   Lucas Lang             : DCDCAS
   Dagmar Lenk            : GEPOL surface, SMD
   Dimitrios Liakos       : Extrapolation schemes; Compound Job, initial MDCI parallelization
   Dimitrios Manganas     : Further ROCIS development; embedding schemes
   Dimitrios Pantazis     : SARC Basis sets
   Taras Petrenko         : DFT Hessian,TD-DFT gradient, ASA, ECA, R-Raman, ABS, FL, XAS/XES, NRVS
   Peter Pinski           : DLPNO-MP2, DLPNO-MP2 Gradient
   Christoph Reimann      : Effective Core Potentials
   Marius Retegan         : Local ZFS, SOC
   Christoph Riplinger    : Optimizer, TS searches, QM/MM, DLPNO-CCSD(T), (RO)-DLPNO pert. Triples
   Tobias Risthaus        : Range-separated hybrids, TD-DFT gradient, RPA, STAB
   Michael Roemelt        : Original ROCIS implementation
   Masaaki Saitow         : Open-shell DLPNO-CCSD energy and density
   Barbara Sandhoefer     : DKH picture change effects
   Avijit Sen             : IP-ROCIS
   Kantharuban Sivalingam : CASSCF convergence, NEVPT2, FIC-MRCI
   Bernardo de Souza      : ESD, SOC TD-DFT
   Georgi Stoychev        : AutoAux, RI-MP2 NMR
   Willem Van den Heuvel  : Paramagnetic NMR
   Boris Wezisla          : Elementary symmetry handling
   Frank Wennmohs         : Technical directorship


 We gratefully acknowledge several colleagues who have allowed us to
 interface, adapt or use parts of their codes:
   Stefan Grimme, W. Hujo, H. Kruse,             : VdW corrections, initial TS optimization,
                  C. Bannwarth                     DFT functionals, gCP, sTDA/sTD-DF
   Ed Valeev, F. Pavosevic, A. Kumar             : LibInt (2-el integral package), F12 methods
   Garnet Chan, S. Sharma, J. Yang, R. Olivares  : DMRG
   Ulf Ekstrom                                   : XCFun DFT Library
   Mihaly Kallay                                 : mrcc  (arbitrary order and MRCC methods)
   Andreas Klamt, Michael Diedenhofen            : otool_cosmo (COSMO solvation model)
   Jiri Pittner, Ondrej Demel                    : Mk-CCSD
   Frank Weinhold                                : gennbo (NPA and NBO analysis)
   Christopher J. Cramer and Donald G. Truhlar   : smd solvation model
   Lars Goerigk                                  : TD-DFT with DH, B97 family of functionals
   V. Asgeirsson, H. Jonsson                     : NEB implementation
   FAccTs GmbH                                   : IRC, NEB, NEB-TS, Multilevel, MM, QM/MM, CI optimization
   S Lehtola, MJT Oliveira, MAL Marques          : LibXC Library


 Your calculation uses the libint2 library for the computation of 2-el integrals
 For citations please refer to: http://libint.valeyev.net

 Your ORCA version has been built with support for libXC version: 4.2.3
 For citations please refer to: https://tddft.org/programs/libxc/

 This ORCA versions uses:
   CBLAS   interface :  Fast vector & matrix operations
   LAPACKE interface :  Fast linear algebra routines
   SCALAPACK package :  Parallel linear algebra routines


----- Orbital basis set information -----
Your calculation utilizes the basis: def2-TZVP
   F. Weigend and R. Ahlrichs, Phys. Chem. Chem. Phys. 7, 3297 (2005).

----- AuxJ basis set information -----
Your calculation utilizes the auxiliary basis: def2/J
   F. Weigend, Phys. Chem. Chem. Phys. 8, 1057 (2006).

================================================================================
                                        WARNINGS
                       Please study these warnings very carefully!
================================================================================

INFO   : Checking CIS options ...

WARNING: CIS/ROCIS methods need fully converged wavefunctions
  ===> : Setting SCFConvForced true
         You can overwrite this default with %scf ConvForced false 


INFO   : the flag for use of LIBINT has been found!

================================================================================
                                       INPUT FILE
================================================================================
NAME = CH1007.inp
|  1> # ORCA input file
|  2> # CH1007.out
|  3> ! B3LYP def2-TZVP def2/J RIJCOSX Grid4 TightSCF
|  4> %maxcore 1000
|  5> %tddft
|  6>   maxdim 5
|  7>   nroots 50
|  8>   end
|  9> * xyz 0 1
| 10>    C        5.54516         2.90251        -1.76395
| 11>    O        6.65977         2.39299        -1.76954
| 12>    C        5.01277         3.82663        -2.78320
| 13>    C        5.62726         4.30199        -3.92398
| 14>    C        4.90344         5.16802        -4.72857
| 15>    F        5.45905         5.65451        -5.84548
| 16>    C        3.60299         5.53633        -4.38620
| 17>    F        2.92654         6.37230        -5.18240
| 18>    C        2.98687         5.05872        -3.23759
| 19>    C        3.70333         4.19385        -2.42704
| 20>    C        3.35343         3.52334        -1.17134
| 21>    C        2.14910         3.64487        -0.52564
| 22>    C        1.79043         3.00320         0.67802
| 23>    N        1.41519         2.52056         1.65117
| 24>    C        1.08122         4.44332        -0.98705
| 25>    N        0.17336         5.07104        -1.30213
| 26>    C        4.49779         2.73225        -0.77436
| 27>    C        4.57918         1.94862         0.36100
| 28>    C        5.59666         1.12882         0.84274
| 29>   Se        7.30024         0.83239         0.03046
| 30>    C        7.64617        -0.34213         1.43672
| 31>    C        6.55488        -0.40724         2.32700
| 32>    C        5.45329         0.37967         2.03045
| 33>    C        4.22597         0.34706         2.88427
| 34>    C        3.20760        -0.65614         2.33489
| 35>    S        6.79986        -1.51781         3.66768
| 36>    C        8.35701        -1.89483         3.02850
| 37>    C        8.67094        -1.19206         1.85866
| 38>    N        9.91742        -1.55674         1.41803
| 39>    C       10.32738        -1.21168         0.07548
| 40>    C       10.33093        -2.42984        -0.84348
| 41>    C       10.41534        -2.50956         2.28519
| 42>    C        9.43213        -2.74973         3.29566
| 43>    C        9.58103        -3.76914         4.25968
| 44>    N        8.75477        -4.12446         5.23181
| 45>    S        9.36906        -5.41788         5.98388
| 46>    N       10.71504        -5.57873         5.10072
| 47>    C       10.73137        -4.61904         4.18797
| 48>    C       11.73356        -4.33291         3.23822
| 49>    C       11.63582        -3.22973         2.33368
| 50>    N       12.82933        -3.13445         1.60182
| 51>    C       13.40109        -2.01295         0.88201
| 52>    C       13.45225        -0.76264         1.75289
| 53>    C       13.60812        -4.16580         1.98925
| 54>    C       12.95861        -4.94128         2.95394
| 55>    S       16.50450        -3.59119         0.06649
| 56>    C       16.02416        -4.83459         1.06862
| 57>    C       14.84468        -4.84323         1.77091
| 58>   Se       14.46333        -6.10319         3.26037
| 59>    C       15.97093        -7.13001         0.96213
| 60>    C       16.77616        -6.11911         1.17998
| 61>    C       18.22526        -6.13081         1.52313
| 62>    C       18.80471        -7.53758         1.53557
| 63>    C       14.98845        -7.83661         0.47071
| 64>    C       13.78776        -8.29624         1.23989
| 65>    C       13.26114        -9.71747         0.96880
| 66>    C       13.81236       -10.92998         1.18414
| 67>    C       13.14335       -12.12596         0.83523
| 68>    N       12.59230       -13.08776         0.54706
| 69>    C       15.09750       -11.03302         1.76739
| 70>    N       16.14262       -11.07661         2.23436
| 71>    C       12.03163        -9.17653         0.42274
| 72>    C       10.80625        -9.48760        -0.13502
| 73>    C       10.02296        -8.38690        -0.46697
| 74>    F        8.81596        -8.59050        -1.00456
| 75>    C       10.44727        -7.06938        -0.26309
| 76>    F        9.63578        -6.06261        -0.60756
| 77>    C       11.68962        -6.75909         0.29539
| 78>    C       12.44533        -7.84763         0.62734
| 79>    C       13.73726        -7.94416         2.68454
| 80>    O       13.26450        -8.55868         3.57753
| 81>    H        6.63286         4.01362        -4.18530
| 82>    H        1.98021         5.37540        -3.01972
| 83>    H        3.69900         1.95991         0.99005
| 84>    H        3.76361         1.33261         2.95291
| 85>    H        4.51808         0.03867         3.89048
| 86>    H        2.90075        -0.38355         1.32774
| 87>    H        2.32679        -0.66916         2.97017
| 88>    H        3.63682        -1.65509         2.30963
| 89>    H        9.59541        -0.48526        -0.29696
| 90>    H       11.29561        -0.71025         0.08606
| 91>    H        9.33680        -2.86887        -0.88894
| 92>    H       11.02003        -3.19225        -0.48798
| 93>    H       10.62391        -2.13307        -1.84672
| 94>    H       12.86303        -1.83552        -0.04899
| 95>    H       14.41956        -2.31566         0.61524
| 96>    H       12.46011        -0.46446         2.08532
| 97>    H       13.89606         0.05428         1.19073
| 98>    H       14.06522        -0.94746         2.63224
| 99>    H       18.35906        -5.65265         2.49898
|100>    H       18.74095        -5.50516         0.78813
|101>    H       18.28411        -8.16059         2.26023
|102>    H       19.85868        -7.50769         1.79821
|103>    H       18.70355        -7.99921         0.55606
|104>    H       14.97401        -8.10619        -0.57885
|105>    H       10.45099       -10.49012        -0.30907
|106>    H       11.98891        -5.73379         0.43458
|107> *
|108> 
|109>                          ****END OF INPUT****
================================================================================

                       ****************************
                       * Single Point Calculation *
                       ****************************

---------------------------------
CARTESIAN COORDINATES (ANGSTROEM)
---------------------------------
  C      5.545160    2.902510   -1.763950
  O      6.659770    2.392990   -1.769540
  C      5.012770    3.826630   -2.783200
  C      5.627260    4.301990   -3.923980
  C      4.903440    5.168020   -4.728570
  F      5.459050    5.654510   -5.845480
  C      3.602990    5.536330   -4.386200
  F      2.926540    6.372300   -5.182400
  C      2.986870    5.058720   -3.237590
  C      3.703330    4.193850   -2.427040
  C      3.353430    3.523340   -1.171340
  C      2.149100    3.644870   -0.525640
  C      1.790430    3.003200    0.678020
  N      1.415190    2.520560    1.651170
  C      1.081220    4.443320   -0.987050
  N      0.173360    5.071040   -1.302130
  C      4.497790    2.732250   -0.774360
  C      4.579180    1.948620    0.361000
  C      5.596660    1.128820    0.842740
  Se     7.300240    0.832390    0.030460
  C      7.646170   -0.342130    1.436720
  C      6.554880   -0.407240    2.327000
  C      5.453290    0.379670    2.030450
  C      4.225970    0.347060    2.884270
  C      3.207600   -0.656140    2.334890
  S      6.799860   -1.517810    3.667680
  C      8.357010   -1.894830    3.028500
  C      8.670940   -1.192060    1.858660
  N      9.917420   -1.556740    1.418030
  C     10.327380   -1.211680    0.075480
  C     10.330930   -2.429840   -0.843480
  C     10.415340   -2.509560    2.285190
  C      9.432130   -2.749730    3.295660
  C      9.581030   -3.769140    4.259680
  N      8.754770   -4.124460    5.231810
  S      9.369060   -5.417880    5.983880
  N     10.715040   -5.578730    5.100720
  C     10.731370   -4.619040    4.187970
  C     11.733560   -4.332910    3.238220
  C     11.635820   -3.229730    2.333680
  N     12.829330   -3.134450    1.601820
  C     13.401090   -2.012950    0.882010
  C     13.452250   -0.762640    1.752890
  C     13.608120   -4.165800    1.989250
  C     12.958610   -4.941280    2.953940
  S     16.504500   -3.591190    0.066490
  C     16.024160   -4.834590    1.068620
  C     14.844680   -4.843230    1.770910
  Se    14.463330   -6.103190    3.260370
  C     15.970930   -7.130010    0.962130
  C     16.776160   -6.119110    1.179980
  C     18.225260   -6.130810    1.523130
  C     18.804710   -7.537580    1.535570
  C     14.988450   -7.836610    0.470710
  C     13.787760   -8.296240    1.239890
  C     13.261140   -9.717470    0.968800
  C     13.812360  -10.929980    1.184140
  C     13.143350  -12.125960    0.835230
  N     12.592300  -13.087760    0.547060
  C     15.097500  -11.033020    1.767390
  N     16.142620  -11.076610    2.234360
  C     12.031630   -9.176530    0.422740
  C     10.806250   -9.487600   -0.135020
  C     10.022960   -8.386900   -0.466970
  F      8.815960   -8.590500   -1.004560
  C     10.447270   -7.069380   -0.263090
  F      9.635780   -6.062610   -0.607560
  C     11.689620   -6.759090    0.295390
  C     12.445330   -7.847630    0.627340
  C     13.737260   -7.944160    2.684540
  O     13.264500   -8.558680    3.577530
  H      6.632860    4.013620   -4.185300
  H      1.980210    5.375400   -3.019720
  H      3.699000    1.959910    0.990050
  H      3.763610    1.332610    2.952910
  H      4.518080    0.038670    3.890480
  H      2.900750   -0.383550    1.327740
  H      2.326790   -0.669160    2.970170
  H      3.636820   -1.655090    2.309630
  H      9.595410   -0.485260   -0.296960
  H     11.295610   -0.710250    0.086060
  H      9.336800   -2.868870   -0.888940
  H     11.020030   -3.192250   -0.487980
  H     10.623910   -2.133070   -1.846720
  H     12.863030   -1.835520   -0.048990
  H     14.419560   -2.315660    0.615240
  H     12.460110   -0.464460    2.085320
  H     13.896060    0.054280    1.190730
  H     14.065220   -0.947460    2.632240
  H     18.359060   -5.652650    2.498980
  H     18.740950   -5.505160    0.788130
  H     18.284110   -8.160590    2.260230
  H     19.858680   -7.507690    1.798210
  H     18.703550   -7.999210    0.556060
  H     14.974010   -8.106190   -0.578850
  H     10.450990  -10.490120   -0.309070
  H     11.988910   -5.733790    0.434580

----------------------------
CARTESIAN COORDINATES (A.U.)
----------------------------
  NO LB      ZA    FRAG     MASS         X           Y           Z
   0 C     6.0000    0    12.011   10.478834    5.484949   -3.333382
   1 O     8.0000    0    15.999   12.585141    4.522096   -3.343946
   2 C     6.0000    0    12.011    9.472762    7.231283   -5.259486
   3 C     6.0000    0    12.011   10.633980    8.129583   -7.415248
   4 C     6.0000    0    12.011    9.266159    9.766142   -8.935702
   5 F     9.0000    0    18.998   10.316109   10.685475  -11.046356
   6 C     6.0000    0    12.011    6.808664   10.462147   -8.288717
   7 F     9.0000    0    18.998    5.530359   12.041902   -9.793317
   8 C     6.0000    0    12.011    5.644366    9.559595   -6.118158
   9 C     6.0000    0    12.011    6.998279    7.925228   -4.586441
  10 C     6.0000    0    12.011    6.337064    6.658148   -2.213512
  11 C     6.0000    0    12.011    4.061210    6.887806   -0.993316
  12 C     6.0000    0    12.011    3.383422    5.675226    1.281272
  13 N     7.0000    0    14.007    2.674322    4.763168    3.120259
  14 C     6.0000    0    12.011    2.043210    8.396658   -1.865254
  15 N     7.0000    0    14.007    0.327603    9.582877   -2.460669
  16 C     6.0000    0    12.011    8.499591    5.163204   -1.463328
  17 C     6.0000    0    12.011    8.653396    3.682358    0.682191
  18 C     6.0000    0    12.011   10.576155    2.133161    1.592548
  19 Se   34.0000    0    78.960   13.795454    1.572989    0.057561
  20 C     6.0000    0    12.011   14.449167   -0.646532    2.715007
  21 C     6.0000    0    12.011   12.386928   -0.769572    4.397393
  22 C     6.0000    0    12.011   10.305225    0.717472    3.836994
  23 C     6.0000    0    12.011    7.985926    0.655848    5.450480
  24 C     6.0000    0    12.011    6.061486   -1.239925    4.412303
  25 S    16.0000    0    32.060   12.849873   -2.868245    6.930911
  26 C     6.0000    0    12.011   15.792460   -3.580710    5.723036
  27 C     6.0000    0    12.011   16.385702   -2.252667    3.512358
  28 N     7.0000    0    14.007   18.741208   -2.941812    2.679688
  29 C     6.0000    0    12.011   19.515920   -2.289743    0.142637
  30 C     6.0000    0    12.011   19.522628   -4.591732   -1.593946
  31 C     6.0000    0    12.011   19.682140   -4.742381    4.318383
  32 C     6.0000    0    12.011   17.824143   -5.196237    6.227895
  33 C     6.0000    0    12.011   18.105523   -7.122642    8.049629
  34 N     7.0000    0    14.007   16.544118   -7.794100    9.886688
  35 S    16.0000    0    32.060   17.704958  -10.238309   11.307894
  36 N     7.0000    0    14.007   20.248491  -10.542272    9.638964
  37 C     6.0000    0    12.011   20.279350   -8.728721    7.914116
  38 C     6.0000    0    12.011   22.173215   -8.188013    6.119349
  39 C     6.0000    0    12.011   21.988513   -6.103305    4.410016
  40 N     7.0000    0    14.007   24.243920   -5.923252    3.027001
  41 C     6.0000    0    12.011   25.324390   -3.803924    1.666757
  42 C     6.0000    0    12.011   25.421068   -1.441181    3.312482
  43 C     6.0000    0    12.011   25.715620   -7.872221    3.759138
  44 C     6.0000    0    12.011   24.488224   -9.337666    5.582138
  45 S    16.0000    0    32.060   31.188985   -6.786366    0.125648
  46 C     6.0000    0    12.011   30.281274   -9.136051    2.019399
  47 C     6.0000    0    12.011   28.052380   -9.152378    3.346535
  48 Se   34.0000    0    78.960   27.331733  -11.533358    6.161206
  49 C     6.0000    0    12.011   30.180684  -13.473766    1.818162
  50 C     6.0000    0    12.011   31.702348  -11.563442    2.229839
  51 C     6.0000    0    12.011   34.440750  -11.585552    2.878299
  52 C     6.0000    0    12.011   35.535752  -14.243962    2.901807
  53 C     6.0000    0    12.011   28.324066  -14.809047    0.889513
  54 C     6.0000    0    12.011   26.055090  -15.677622    2.343053
  55 C     6.0000    0    12.011   25.059923  -18.363357    1.830767
  56 C     6.0000    0    12.011   26.101578  -20.654669    2.237700
  57 C     6.0000    0    12.011   24.837332  -22.914744    1.578356
  58 N     7.0000    0    14.007   23.795998  -24.732282    1.033794
  59 C     6.0000    0    12.011   28.530140  -20.849386    3.339883
  60 N     7.0000    0    14.007   30.505131  -20.931759    4.222328
  61 C     6.0000    0    12.011   22.736486  -17.341129    0.798863
  62 C     6.0000    0    12.011   20.420853  -17.928966   -0.255151
  63 C     6.0000    0    12.011   18.940649  -15.848944   -0.882445
  64 F     9.0000    0    18.998   16.659750  -16.233692   -1.898343
  65 C     6.0000    0    12.011   19.742479  -13.359192   -0.497168
  66 F     9.0000    0    18.998   18.208985  -11.456673   -1.148122
  67 C     6.0000    0    12.011   22.090180  -12.772829    0.558206
  68 C     6.0000    0    12.011   23.518265  -14.829872    1.185501
  69 C     6.0000    0    12.011   25.959659  -15.012287    5.073045
  70 O     8.0000    0    15.999   25.066272  -16.173561    6.760552
  71 H     1.0000    0     1.008   12.534289    7.584643   -7.909071
  72 H     1.0000    0     1.008    3.742055   10.158034   -5.706444
  73 H     1.0000    0     1.008    6.990097    3.703693    1.870923
  74 H     1.0000    0     1.008    7.112192    2.518268    5.580191
  75 H     1.0000    0     1.008    8.537934    0.073076    7.351942
  76 H     1.0000    0     1.008    5.481623   -0.724804    2.509065
  77 H     1.0000    0     1.008    4.396996   -1.264529    5.612808
  78 H     1.0000    0     1.008    6.872594   -3.127667    4.364568
  79 H     1.0000    0     1.008   18.132697   -0.917009   -0.561173
  80 H     1.0000    0     1.008   21.345609   -1.342178    0.162630
  81 H     1.0000    0     1.008   17.643995   -5.421379   -1.679853
  82 H     1.0000    0     1.008   20.824839   -6.032478   -0.922149
  83 H     1.0000    0     1.008   20.076280   -4.030918   -3.489795
  84 H     1.0000    0     1.008   24.307604   -3.468630   -0.092578
  85 H     1.0000    0     1.008   27.249019   -4.375963    1.162635
  86 H     1.0000    0     1.008   23.546195   -0.877702    3.940684
  87 H     1.0000    0     1.008   26.259748    0.102574    2.250154
  88 H     1.0000    0     1.008   26.579414   -1.790440    4.974213
  89 H     1.0000    0     1.008   34.693595  -10.681960    4.722388
  90 H     1.0000    0     1.008   35.415263  -10.403245    1.489350
  91 H     1.0000    0     1.008   34.551961  -15.421280    4.271216
  92 H     1.0000    0     1.008   37.527467  -14.187478    3.398124
  93 H     1.0000    0     1.008   35.344587  -15.116316    1.050801
  94 H     1.0000    0     1.008   28.296778  -15.318479   -1.093868
  95 H     1.0000    0     1.008   19.749509  -19.823454   -0.584058
  96 H     1.0000    0     1.008   22.655757  -10.835293    0.821237

--------------------------------
INTERNAL COORDINATES (ANGSTROEM)
--------------------------------
 C      0   0   0     0.000000000000     0.00000000     0.00000000
 O      1   0   0     1.225560006936     0.00000000     0.00000000
 C      1   2   0     1.475231320505   125.83801972     0.00000000
 C      3   1   2     1.380197122914   128.76560037     0.06677113
 C      4   3   1     1.386105487111   117.54678445   179.86787071
 F      5   4   3     1.338978319578   119.63796195   180.00121002
 C      5   4   3     1.394288232576   120.63454382   359.96678978
 F      7   5   4     1.338045172406   119.37005300   180.10657163
 C      7   5   4     1.388171494665   121.75283333     0.11770175
 C      9   7   5     1.385029368281   118.00059637   359.94855464
 C     10   9   7     1.465877266384   131.56469116   179.99896458
 C     11  10   9     1.371899697427   124.90372393     0.13403320
 C     12  11  10     1.410383619233   125.77593280   179.62738464
 N     13  12  11     1.149246426882   175.38564462   181.48878569
 C     12  11  10     1.410953324884   124.09863497   359.71555822
 N     15  12  11     1.147831688184   176.25013504   180.28399238
 C     11  10   9     1.446712244401   107.23963183   179.88050332
 C     17  11  10     1.381934382885   125.59860956   179.75530117
 C     18  17  11     1.392627379452   131.37909548   178.64019097
 Se    19  18  17     1.910459201265   126.56710367     0.47207161
 C     20  19  18     1.864599684356    86.70422899   181.65720068
 C     21  20  19     1.409876467851   111.20630171   359.75811016
 C     22  21  20     1.385882310552   116.99484939   359.76953277
 C     23  22  21     1.495455244031   121.18442533   177.83347344
 C     24  23  22     1.531439218938   110.80650453   266.45494654
 S     22  21  20     1.758068197682   113.75691683   179.06991904
 C     26  22  21     1.724938049699    88.92757512   359.77988531
 C     21  20  19     1.396627338054   138.35815458   178.79962252
 N     28  21  20     1.371444016247   137.02440358   359.96423539
 C     29  28  21     1.445535924043   119.51735327   347.09953399
 C     30  29  28     1.525914109542   111.68023191   253.78017993
 C     29  28  21     1.381215676279   108.02119790   182.46161137
 C     27  26  22     1.399325369598   139.14472868   183.60777592
 C     33  27  26     1.410922577075   130.76367822     4.61288334
 N     34  33  27     1.324384621966   129.01533811   355.09251913
 S     35  34  33     1.617373421755   108.59734420   176.24199582
 N     36  35  34     1.617870967815    98.14366220     0.00000000
 C     37  36  35     1.324531663457   108.32413262     0.24467118
 C     38  37  36     1.410063911849   128.31175974   177.08036444
 C     32  29  28     1.417944829463   133.01028200   180.32880833
 N     40  32  29     1.403268847406   132.82456280     7.80262576
 C     41  40  32     1.450102818320   130.29688778    24.25147314
 C     42  41  40     1.524573519415   111.34268189    50.79143801
 C     41  40  32     1.349184454217   106.81477305   185.96832663
 C     39  38  37     1.397024222338   132.21715601     0.85063100
 S     44  41  40     3.523662834906   101.13500161   181.49102288
 C     46  44  41     1.667643430863    46.66572073   186.70660158
 C     47  46  44     1.372755973981   124.02832664   357.90697079
 Se    45  39  38     1.925647026690   156.29064369   346.42091223
 C     47  46  44     2.298505281569   136.33854157   132.59139267
 C     50  47  46     1.310638312198    37.60867828    79.18387469
 C     51  50  47     1.489221146271   129.05516547   178.70564521
 C     52  51  50     1.521485750508   112.31711881     3.46011308
 C     50  47  46     1.306156241343   125.10671117   272.24486465
 C     54  50  47     1.498183595358   125.14410877   272.56135361
 C     55  54  50     1.539712026776   117.83322216   219.97993724
 C     56  55  54     1.349220257816   131.42865895    65.14257243
 C     57  56  55     1.414100678382   121.82951718   180.86922198
 N     58  57  56     1.145319733262   179.36173164     6.30555931
 C     57  56  55     1.415055696324   120.14974475     0.52072686
 N     60  57  56     1.145529084485   177.97712836   348.91617733
 C     56  55  54     1.449997395618    90.68563747   245.53650454
 C     62  56  55     1.381816524326   145.08181054   180.36938918
 C     63  62  56     1.391141443779   114.67752151   179.83908853
 F     64  63  62     1.336901255927   118.93392388   180.44015669
 C     64  63  62     1.399094343102   122.65342263     0.53830787
 F     66  64  63     1.338193346979   119.14694480   180.04978145
 C     66  64  63     1.397001545096   122.48768863   359.72716393
 C     68  66  64     1.366092141182   114.33733295   359.74438359
 C     55  54  50     1.487791718924   116.94422286   358.36326233
 O     70  55  54     1.182610666323   128.59456403   212.92765479
 H      4   3   1     1.078274899689   121.56148114   359.89711580
 H      9   7   5     1.077551815413   118.73888753   179.98093661
 H     18  17  11     1.081918758041   115.07779976   359.23879839
 H     24  23  22     1.090778172545   111.35249063   144.41184880
 H     24  23  22     1.092195590680   108.21922130    25.74772996
 H     25  24  23     1.087572228912   110.83253150   299.40551547
 H     25  24  23     1.086083079189   109.71322798   179.71337189
 H     25  24  23     1.087551827960   110.34002625    59.82217445
 H     30  29  28     1.096438621584   106.51703119    12.70622735
 H     30  29  28     1.090418870985   110.64536603   128.58981736
 H     31  30  29     1.087707869513   110.19806075    59.37364215
 H     31  30  29     1.087431868257   111.36452227   299.47757343
 H     31  30  29     1.086462245501   109.79589192   178.89031981
 H     42  41  40     1.089839882047   110.81108312   285.71545308
 H     42  41  40     1.095481956903   105.88701690   169.77947076
 H     43  42  41     1.088008638247   111.63492186   300.04108885
 H     43  42  41     1.086438892943   109.55988777   179.28213858
 H     43  42  41     1.087725643625   109.95983680    60.22577533
 H     52  51  50     1.094907597973   108.71407753   240.88109034
 H     52  51  50     1.094348709781   107.41459389   125.50006743
 H     53  52  51     1.088254536264   110.64504143   300.65938051
 H     53  52  51     1.086612139910   110.23960657   180.52515537
 H     53  52  51     1.087554799815   110.46736589    60.44629469
 H     54  50  47     1.083724173210   120.59493196    90.07250201
 H     63  62  56     1.077752021803   124.53440740     0.12812445
 H     68  66  64     1.077120443683   120.67628042   179.68046698

---------------------------
INTERNAL COORDINATES (A.U.)
---------------------------
 C      0   0   0     0.000000000000     0.00000000     0.00000000
 O      1   0   0     2.315972773795     0.00000000     0.00000000
 C      1   2   0     2.787783179938   125.83801972     0.00000000
 C      3   1   2     2.608194573133   128.76560037     0.06677113
 C      4   3   1     2.619359763366   117.54678445   179.86787071
 F      5   4   3     2.530302323261   119.63796195   180.00121002
 C      5   4   3     2.634822911318   120.63454382   359.96678978
 F      7   5   4     2.528538930663   119.37005300   180.10657163
 C      7   5   4     2.623263951833   121.75283333     0.11770175
 C      9   7   5     2.617326193488   118.00059637   359.94855464
 C     10   9   7     2.770106579406   131.56469116   179.99896458
 C     11  10   9     2.592514711346   124.90372393     0.13403320
 C     12  11  10     2.665238784119   125.77593280   179.62738464
 N     13  12  11     2.171761007194   175.38564462   181.48878569
 C     12  11  10     2.666315371776   124.09863497   359.71555822
 N     15  12  11     2.169087538505   176.25013504   180.28399238
 C     11  10   9     2.733889936509   107.23963183   179.88050332
 C     17  11  10     2.611477518702   125.59860956   179.75530117
 C     18  17  11     2.631684353765   131.37909548   178.64019097
 Se    19  18  17     3.610244680422   126.56710367     0.47207161
 C     20  19  18     3.523582752829    86.70422899   181.65720068
 C     21  20  19     2.664280406899   111.20630171   359.75811016
 C     22  21  20     2.618938020789   116.99484939   359.76953277
 C     23  22  21     2.826000856755   121.18442533   177.83347344
 C     24  23  22     2.894000714538   110.80650453   266.45494654
 S     22  21  20     3.322267418375   113.75691683   179.06991904
 C     26  22  21     3.259660511912    88.92757512   359.77988531
 C     21  20  19     2.639243180070   138.35815458   178.79962252
 N     28  21  20     2.591653598712   137.02440358   359.96423539
 C     29  28  21     2.731667013187   119.51735327   347.09953399
 C     30  29  28     2.883559770921   111.68023191   253.78017993
 C     29  28  21     2.610119360047   108.02119790   182.46161137
 C     27  26  22     2.644341720788   139.14472868   183.60777592
 C     33  27  26     2.666257266838   130.76367822     4.61288334
 N     34  33  27     2.502724231493   129.01533811   355.09251913
 S     35  34  33     3.056392823400   108.59734420   176.24199582
 N     36  35  34     3.057333049193    98.14366220     0.00000000
 C     37  36  35     2.503002099641   108.32413262     0.24467118
 C     38  37  36     2.664634624721   128.31175974   177.08036444
 C     32  29  28     2.679527400694   133.01028200   180.32880833
 N     40  32  29     2.651793813861   132.82456280     7.80262576
 C     41  40  32     2.740297192652   130.29688778    24.25147314
 C     42  41  40     2.881026422722   111.34268189    50.79143801
 C     41  40  32     2.549589122614   106.81477305   185.96832663
 C     39  38  37     2.639993182674   132.21715601     0.85063100
 S     44  41  40     6.658757746250   101.13500161   181.49102288
 C     46  44  41     3.151389373364    46.66572073   186.70660158
 C     47  46  44     2.594132839528   124.02832664   357.90697079
 Se    45  39  38     3.638945511044   156.29064369   346.42091223
 C     47  46  44     4.343545499537   136.33854157   132.59139267
 C     50  47  46     2.476747470678    37.60867828    79.18387469
 C     51  50  47     2.814220119296   129.05516547   178.70564521
 C     52  51  50     2.875191385124   112.31711881     3.46011308
 C     50  47  46     2.468277584251   125.10671117   272.24486465
 C     54  50  47     2.831156693560   125.14410877   272.56135361
 C     55  54  50     2.909634055712   117.83322216   219.97993724
 C     56  55  54     2.549656781610   131.42865895    65.14257243
 C     57  56  55     2.672263007934   121.82951718   180.86922198
 N     58  57  56     2.164340631641   179.36173164     6.30555931
 C     57  56  55     2.674067730298   120.14974475     0.52072686
 N     60  57  56     2.164736248117   177.97712836   348.91617733
 C     56  55  54     2.740097972618    90.68563747   245.53650454
 C     62  56  55     2.611254798303   145.08181054   180.36938918
 C     63  62  56     2.628876342290   114.67752151   179.83908853
 F     64  63  62     2.526377241798   118.93392388   180.44015669
 C     64  63  62     2.643905143981   122.65342263     0.53830787
 F     66  64  63     2.528818940027   119.14694480   180.04978145
 C     66  64  63     2.639950328896   122.48768863   359.72716393
 C     68  66  64     2.581540020537   114.33733295   359.74438359
 C     55  54  50     2.811518893083   116.94422286   358.36326233
 O     70  55  54     2.234810282404   128.59456403   212.92765479
 H      4   3   1     2.037644257494   121.56148114   359.89711580
 H      9   7   5     2.036277826240   118.73888753   179.98093661
 H     18  17  11     2.044530151849   115.07779976   359.23879839
 H     24  23  22     2.061272018969   111.35249063   144.41184880
 H     24  23  22     2.063950551061   108.21922130    25.74772996
 H     25  24  23     2.055213663501   110.83253150   299.40551547
 H     25  24  23     2.052399578353   109.71322798   179.71337189
 H     25  24  23     2.055175111291   110.34002625    59.82217445
 H     30  29  28     2.071968717447   106.51703119    12.70622735
 H     30  29  28     2.060593037421   110.64536603   128.58981736
 H     31  30  29     2.055469987090   110.19806075    59.37364215
 H     31  30  29     2.054948420303   111.36452227   299.47757343
 H     31  30  29     2.053116098843   109.79589192   178.89031981
 H     42  41  40     2.059498906894   110.81108312   285.71545308
 H     42  41  40     2.070160883199   105.88701690   169.77947076
 H     43  42  41     2.056038357627   111.63492186   300.04108885
 H     43  42  41     2.053071968904   109.55988777   179.28213858
 H     43  42  41     2.055503575295   109.95983680    60.22577533
 H     52  51  50     2.069075502119   108.71407753   240.88109034
 H     52  51  50     2.068019356497   107.41459389   125.50006743
 H     53  52  51     2.056503037537   110.64504143   300.65938051
 H     53  52  51     2.053399358224   110.23960657   180.52515537
 H     53  52  51     2.055180727281   110.46736589    60.44629469
 H     54  50  47     2.047941892077   120.59493196    90.07250201
 H     63  62  56     2.036656161487   124.53440740     0.12812445
 H     68  66  64     2.035462651809   120.67628042   179.68046698

---------------------
BASIS SET INFORMATION
---------------------
There are 7 groups of distinct atoms

 Group   1 Type C   : 11s6p2d1f contracted to 5s3p2d1f pattern {62111/411/11/1}
 Group   2 Type O   : 11s6p2d1f contracted to 5s3p2d1f pattern {62111/411/11/1}
 Group   3 Type F   : 11s6p2d1f contracted to 5s3p2d1f pattern {62111/411/11/1}
 Group   4 Type N   : 11s6p2d1f contracted to 5s3p2d1f pattern {62111/411/11/1}
 Group   5 Type Se  : 17s13p8d1f contracted to 6s5p4d1f pattern {842111/64111/5111/1}
 Group   6 Type S   : 14s9p3d1f contracted to 5s5p2d1f pattern {73211/51111/21/1}
 Group   7 Type H   : 5s1p contracted to 3s1p pattern {311/1}

Atom   0C    basis set group =>   1
Atom   1O    basis set group =>   2
Atom   2C    basis set group =>   1
Atom   3C    basis set group =>   1
Atom   4C    basis set group =>   1
Atom   5F    basis set group =>   3
Atom   6C    basis set group =>   1
Atom   7F    basis set group =>   3
Atom   8C    basis set group =>   1
Atom   9C    basis set group =>   1
Atom  10C    basis set group =>   1
Atom  11C    basis set group =>   1
Atom  12C    basis set group =>   1
Atom  13N    basis set group =>   4
Atom  14C    basis set group =>   1
Atom  15N    basis set group =>   4
Atom  16C    basis set group =>   1
Atom  17C    basis set group =>   1
Atom  18C    basis set group =>   1
Atom  19Se   basis set group =>   5
Atom  20C    basis set group =>   1
Atom  21C    basis set group =>   1
Atom  22C    basis set group =>   1
Atom  23C    basis set group =>   1
Atom  24C    basis set group =>   1
Atom  25S    basis set group =>   6
Atom  26C    basis set group =>   1
Atom  27C    basis set group =>   1
Atom  28N    basis set group =>   4
Atom  29C    basis set group =>   1
Atom  30C    basis set group =>   1
Atom  31C    basis set group =>   1
Atom  32C    basis set group =>   1
Atom  33C    basis set group =>   1
Atom  34N    basis set group =>   4
Atom  35S    basis set group =>   6
Atom  36N    basis set group =>   4
Atom  37C    basis set group =>   1
Atom  38C    basis set group =>   1
Atom  39C    basis set group =>   1
Atom  40N    basis set group =>   4
Atom  41C    basis set group =>   1
Atom  42C    basis set group =>   1
Atom  43C    basis set group =>   1
Atom  44C    basis set group =>   1
Atom  45S    basis set group =>   6
Atom  46C    basis set group =>   1
Atom  47C    basis set group =>   1
Atom  48Se   basis set group =>   5
Atom  49C    basis set group =>   1
Atom  50C    basis set group =>   1
Atom  51C    basis set group =>   1
Atom  52C    basis set group =>   1
Atom  53C    basis set group =>   1
Atom  54C    basis set group =>   1
Atom  55C    basis set group =>   1
Atom  56C    basis set group =>   1
Atom  57C    basis set group =>   1
Atom  58N    basis set group =>   4
Atom  59C    basis set group =>   1
Atom  60N    basis set group =>   4
Atom  61C    basis set group =>   1
Atom  62C    basis set group =>   1
Atom  63C    basis set group =>   1
Atom  64F    basis set group =>   3
Atom  65C    basis set group =>   1
Atom  66F    basis set group =>   3
Atom  67C    basis set group =>   1
Atom  68C    basis set group =>   1
Atom  69C    basis set group =>   1
Atom  70O    basis set group =>   2
Atom  71H    basis set group =>   7
Atom  72H    basis set group =>   7
Atom  73H    basis set group =>   7
Atom  74H    basis set group =>   7
Atom  75H    basis set group =>   7
Atom  76H    basis set group =>   7
Atom  77H    basis set group =>   7
Atom  78H    basis set group =>   7
Atom  79H    basis set group =>   7
Atom  80H    basis set group =>   7
Atom  81H    basis set group =>   7
Atom  82H    basis set group =>   7
Atom  83H    basis set group =>   7
Atom  84H    basis set group =>   7
Atom  85H    basis set group =>   7
Atom  86H    basis set group =>   7
Atom  87H    basis set group =>   7
Atom  88H    basis set group =>   7
Atom  89H    basis set group =>   7
Atom  90H    basis set group =>   7
Atom  91H    basis set group =>   7
Atom  92H    basis set group =>   7
Atom  93H    basis set group =>   7
Atom  94H    basis set group =>   7
Atom  95H    basis set group =>   7
Atom  96H    basis set group =>   7
---------------------------------
AUXILIARY/J BASIS SET INFORMATION
---------------------------------
There are 7 groups of distinct atoms

 Group   1 Type C   : 12s5p4d2f1g contracted to 6s4p3d1f1g pattern {711111/2111/211/2/1}
 Group   2 Type O   : 12s5p4d2f1g contracted to 6s4p3d1f1g pattern {711111/2111/211/2/1}
 Group   3 Type F   : 12s5p4d2f1g contracted to 6s4p3d1f1g pattern {711111/2111/211/2/1}
 Group   4 Type N   : 12s5p4d2f1g contracted to 6s4p3d1f1g pattern {711111/2111/211/2/1}
 Group   5 Type Se  : 19s5p5d3f1g contracted to 8s4p3d2f1g pattern {121111111/2111/311/21/1}
 Group   6 Type S   : 14s5p5d2f1g contracted to 8s4p3d1f1g pattern {71111111/2111/311/2/1}
 Group   7 Type H   : 5s2p1d contracted to 3s1p1d pattern {311/2/1}

Atom   0C    basis set group =>   1
Atom   1O    basis set group =>   2
Atom   2C    basis set group =>   1
Atom   3C    basis set group =>   1
Atom   4C    basis set group =>   1
Atom   5F    basis set group =>   3
Atom   6C    basis set group =>   1
Atom   7F    basis set group =>   3
Atom   8C    basis set group =>   1
Atom   9C    basis set group =>   1
Atom  10C    basis set group =>   1
Atom  11C    basis set group =>   1
Atom  12C    basis set group =>   1
Atom  13N    basis set group =>   4
Atom  14C    basis set group =>   1
Atom  15N    basis set group =>   4
Atom  16C    basis set group =>   1
Atom  17C    basis set group =>   1
Atom  18C    basis set group =>   1
Atom  19Se   basis set group =>   5
Atom  20C    basis set group =>   1
Atom  21C    basis set group =>   1
Atom  22C    basis set group =>   1
Atom  23C    basis set group =>   1
Atom  24C    basis set group =>   1
Atom  25S    basis set group =>   6
Atom  26C    basis set group =>   1
Atom  27C    basis set group =>   1
Atom  28N    basis set group =>   4
Atom  29C    basis set group =>   1
Atom  30C    basis set group =>   1
Atom  31C    basis set group =>   1
Atom  32C    basis set group =>   1
Atom  33C    basis set group =>   1
Atom  34N    basis set group =>   4
Atom  35S    basis set group =>   6
Atom  36N    basis set group =>   4
Atom  37C    basis set group =>   1
Atom  38C    basis set group =>   1
Atom  39C    basis set group =>   1
Atom  40N    basis set group =>   4
Atom  41C    basis set group =>   1
Atom  42C    basis set group =>   1
Atom  43C    basis set group =>   1
Atom  44C    basis set group =>   1
Atom  45S    basis set group =>   6
Atom  46C    basis set group =>   1
Atom  47C    basis set group =>   1
Atom  48Se   basis set group =>   5
Atom  49C    basis set group =>   1
Atom  50C    basis set group =>   1
Atom  51C    basis set group =>   1
Atom  52C    basis set group =>   1
Atom  53C    basis set group =>   1
Atom  54C    basis set group =>   1
Atom  55C    basis set group =>   1
Atom  56C    basis set group =>   1
Atom  57C    basis set group =>   1
Atom  58N    basis set group =>   4
Atom  59C    basis set group =>   1
Atom  60N    basis set group =>   4
Atom  61C    basis set group =>   1
Atom  62C    basis set group =>   1
Atom  63C    basis set group =>   1
Atom  64F    basis set group =>   3
Atom  65C    basis set group =>   1
Atom  66F    basis set group =>   3
Atom  67C    basis set group =>   1
Atom  68C    basis set group =>   1
Atom  69C    basis set group =>   1
Atom  70O    basis set group =>   2
Atom  71H    basis set group =>   7
Atom  72H    basis set group =>   7
Atom  73H    basis set group =>   7
Atom  74H    basis set group =>   7
Atom  75H    basis set group =>   7
Atom  76H    basis set group =>   7
Atom  77H    basis set group =>   7
Atom  78H    basis set group =>   7
Atom  79H    basis set group =>   7
Atom  80H    basis set group =>   7
Atom  81H    basis set group =>   7
Atom  82H    basis set group =>   7
Atom  83H    basis set group =>   7
Atom  84H    basis set group =>   7
Atom  85H    basis set group =>   7
Atom  86H    basis set group =>   7
Atom  87H    basis set group =>   7
Atom  88H    basis set group =>   7
Atom  89H    basis set group =>   7
Atom  90H    basis set group =>   7
Atom  91H    basis set group =>   7
Atom  92H    basis set group =>   7
Atom  93H    basis set group =>   7
Atom  94H    basis set group =>   7
Atom  95H    basis set group =>   7
Atom  96H    basis set group =>   7
------------------------------------------------------------------------------
                           ORCA GTO INTEGRAL CALCULATION
                           -- RI-GTO INTEGRALS CHOSEN --
------------------------------------------------------------------------------

                         BASIS SET STATISTICS AND STARTUP INFO

Gaussian basis set:
 # of primitive gaussian shells          ... 1635
 # of primitive gaussian functions       ... 3639
 # of contracted shells                  ...  901
 # of contracted basis functions         ... 2409
 Highest angular momentum                ...    3
 Maximum contraction depth               ...    8
Auxiliary gaussian basis set:
 # of primitive gaussian shells          ... 1939
 # of primitive gaussian functions       ... 5445
 # of contracted shells                  ... 1207
 # of contracted aux-basis functions     ... 3789
 Highest angular momentum                ...    4
 Maximum contraction depth               ...   12
Ratio of auxiliary to basis functions    ...  1.57
Integral package used                  ... LIBINT
 One Electron integrals                  ... done
 Ordering auxiliary basis shells         ... done
 Integral threshhold             Thresh  ...  2.500e-11
 Primitive cut-off               TCut    ...  2.500e-12
 Pre-screening matrix                    ... done
 Shell pair data                         ... 
 Ordering of the shell pairs             ... done (   0.036 sec) 150942 of 406351 pairs
 Determination of significant pairs      ... done (   0.001 sec)
 Creation of shell pair data             ... done (   0.020 sec)
 Storage of shell pair data              ... done (   0.025 sec)
 Shell pair data done in (   0.081 sec)
 Computing two index integrals           ... done
 Cholesky decomposition of the V-matrix  ... done


Timings:
 Total evaluation time                   ...   7.253 sec (  0.121 min)
 One electron matrix time                ...   2.341 sec (  0.039 min) = 32.3%
 Schwartz matrix evaluation time         ...   3.985 sec (  0.066 min) = 54.9%
 Two index repulsion integral time       ...   0.351 sec (  0.006 min) =  4.8%
 Cholesky decomposition of V             ...   0.475 sec (  0.008 min) =  6.5%
 Three index repulsion integral time     ...   0.000 sec (  0.000 min) =  0.0%

-------------------------------------------------------------------------------
                                 ORCA SCF
-------------------------------------------------------------------------------

------------
SCF SETTINGS
------------
Hamiltonian:
 Density Functional     Method          .... DFT(GTOs)
 Exchange Functional    Exchange        .... B88
   X-Alpha parameter    XAlpha          ....  0.666667
   Becke's b parameter  XBeta           ....  0.004200
 Correlation Functional Correlation     .... LYP
 LDA part of GGA corr.  LDAOpt          .... VWN-5
 Gradients option       PostSCFGGA      .... off
 Hybrid DFT is turned on
   Fraction HF Exchange ScalHFX         ....  0.200000
   Scaling of DF-GGA-X  ScalDFX         ....  0.720000
   Scaling of DF-GGA-C  ScalDFC         ....  0.810000
   Scaling of DF-LDA-C  ScalLDAC        ....  1.000000
   Perturbative correction              ....  0.000000
   Density functional embedding theory  .... OFF
   NL short-range parameter             ....  4.800000
 RI-approximation to the Coulomb term is turned on
   Number of auxiliary basis functions  .... 3789
   RIJ-COSX (HFX calculated with COS-X)).... on


General Settings:
 Integral files         IntName         .... CH1007
 Hartree-Fock type      HFTyp           .... RHF
 Total Charge           Charge          ....    0
 Multiplicity           Mult            ....    1
 Number of Electrons    NEL             ....  562
 Basis Dimension        Dim             .... 2409
 Nuclear Repulsion      ENuc            ....  13245.2694775749 Eh

Convergence Acceleration:
 DIIS                   CNVDIIS         .... on
   Start iteration      DIISMaxIt       ....    12
   Startup error        DIISStart       ....  0.200000
   # of expansion vecs  DIISMaxEq       ....     5
   Bias factor          DIISBfac        ....   1.050
   Max. coefficient     DIISMaxC        ....  10.000
 Newton-Raphson         CNVNR           .... off
 SOSCF                  CNVSOSCF        .... on
   Start iteration      SOSCFMaxIt      ....   150
   Startup grad/error   SOSCFStart      ....  0.003300
 Level Shifting         CNVShift        .... on
   Level shift para.    LevelShift      ....    0.2500
   Turn off err/grad.   ShiftErr        ....    0.0010
 Zerner damping         CNVZerner       .... off
 Static damping         CNVDamp         .... on
   Fraction old density DampFac         ....    0.7000
   Max. Damping (<1)    DampMax         ....    0.9800
   Min. Damping (>=0)   DampMin         ....    0.0000
   Turn off err/grad.   DampErr         ....    0.1000
 Fernandez-Rico         CNVRico         .... off

SCF Procedure:
 Maximum # iterations   MaxIter         ....   125
 SCF integral mode      SCFMode         .... Direct
   Integral package                     .... LIBINT
 Reset frequency        DirectResetFreq ....    20
 Integral Threshold     Thresh          ....  2.500e-11 Eh
 Primitive CutOff       TCut            ....  2.500e-12 Eh

Convergence Tolerance:
 Convergence Check Mode ConvCheckMode   .... Total+1el-Energy
 Convergence forced     ConvForced      .... 1
 Energy Change          TolE            ....  1.000e-08 Eh
 1-El. energy change                    ....  1.000e-05 Eh
 Orbital Gradient       TolG            ....  1.000e-05
 Orbital Rotation angle TolX            ....  1.000e-05
 DIIS Error             TolErr          ....  5.000e-07


Diagonalization of the overlap matrix:
Smallest eigenvalue                        ... 2.243e-06
Time for diagonalization                   ...    2.905 sec
Threshold for overlap eigenvalues          ... 1.000e-08
Number of eigenvalues below threshold      ... 0
Time for construction of square roots      ...    1.045 sec
Total time needed                          ...    3.967 sec

-------------------
DFT GRID GENERATION
-------------------

General Integration Accuracy     IntAcc      ...  4.670
Radial Grid Type                 RadialGrid  ... Gauss-Chebyshev
Angular Grid (max. acc.)         AngularGrid ... Lebedev-302
Angular grid pruning method      GridPruning ... 3 (G Style)
Weight generation scheme         WeightScheme... Becke
Basis function cutoff            BFCut       ...    1.0000e-11
Integration weight cutoff        WCut        ...    1.0000e-14
Grids for H and He will be reduced by one unit

# of grid points (after initial pruning)     ... 538294 (   1.2 sec)
# of grid points (after weights+screening)   ... 457044 (  22.8 sec)
nearest neighbour list constructed           ...    0.0 sec
Grid point re-assignment to atoms done       ...    0.1 sec
Grid point division into batches done        ...    1.8 sec
Reduced shell lists constructed in   17.6 sec

Total number of grid points                  ...   457044
Total number of batches                      ...     7203
Average number of points per batch           ...       63
Average number of grid points per atom       ...     4712
Average number of shells per batch           ...   178.38 (19.80%)
Average number of basis functions per batch  ...   450.44 (18.70%)
Average number of large shells per batch     ...   104.67 (58.68%)
Average number of large basis fcns per batch ...   268.80 (59.67%)
Maximum spatial batch extension              ...  19.43, 21.64, 25.10 au
Average spatial batch extension              ...   2.07,  2.12,  2.16 au

Time for grid setup =   41.768 sec

------------------------------
INITIAL GUESS: MODEL POTENTIAL
------------------------------
Loading Hartree-Fock densities                     ... done
Calculating cut-offs                               ... done
Setting up the integral package                    ... done
Initializing the effective Hamiltonian             ... done
Starting the Coulomb interaction                   ... done (  32.4 sec)
Reading the grid                                   ... done
Mapping shells                                     ... done
Starting the XC term evaluation                    ... done (  26.0 sec)
  promolecular density results
     # of electrons  =    561.987733796
     EX              =   -630.908579192
     EC              =    -20.861476903
     EX+EC           =   -651.770056095
Transforming the Hamiltonian                       ... done (   1.0 sec)
Diagonalizing the Hamiltonian                      ... done (   2.9 sec)
Back transforming the eigenvectors                 ... done (   0.4 sec)
Now organizing SCF variables                       ... done
                      ------------------
                      INITIAL GUESS DONE ( 105.2 sec)
                      ------------------
--------------------
COSX GRID GENERATION
--------------------

General Integration Accuracy     IntAcc      ...  3.340
Radial Grid Type                 RadialGrid  ... Gauss-Chebyshev
Angular Grid (max. acc.)         AngularGrid ... Lebedev-50
Angular grid pruning method      GridPruning ... 3 (G Style)
Weight generation scheme         WeightScheme... Becke
Basis function cutoff            BFCut       ...    1.0000e-11
Integration weight cutoff        WCut        ...    1.0000e-14
Grids for H and He will be reduced by one unit

# of grid points (after initial pruning)     ...  50690 (   0.1 sec)
# of grid points (after weights+screening)   ...  45112 (   2.2 sec)
nearest neighbour list constructed           ...    0.0 sec
Grid point re-assignment to atoms done       ...    0.0 sec
Grid point division into batches done        ...    0.0 sec
Reduced shell lists constructed in    2.2 sec

Total number of grid points                  ...    45112
Total number of batches                      ...      759
Average number of points per batch           ...       59
Average number of grid points per atom       ...      465
Average number of shells per batch           ...   216.99 (24.08%)
Average number of basis functions per batch  ...   556.61 (23.11%)
Average number of large shells per batch     ...   128.26 (59.11%)
Average number of large basis fcns per batch ...   334.40 (60.08%)
Maximum spatial batch extension              ...  20.01, 25.32, 24.05 au
Average spatial batch extension              ...   4.15,  4.46,  4.55 au

Overlap Fitting                  UseSFitting ... on
Constructing numerical overlap ... done (      2.4 sec)
Inverting numerical overlap    ... done (      0.3 sec)
Obtaining analytic overlap     ... done (      0.0 sec)
Final contraction and storage  ... done (      0.5 sec)


General Integration Accuracy     IntAcc      ...  3.670
Radial Grid Type                 RadialGrid  ... Gauss-Chebyshev
Angular Grid (max. acc.)         AngularGrid ... Lebedev-50
Angular grid pruning method      GridPruning ... 3 (G Style)
Weight generation scheme         WeightScheme... Becke
Basis function cutoff            BFCut       ...    1.0000e-11
Integration weight cutoff        WCut        ...    1.0000e-14
Grids for H and He will be reduced by one unit

# of grid points (after initial pruning)     ...  63050 (   0.1 sec)
# of grid points (after weights+screening)   ...  55877 (   2.7 sec)
nearest neighbour list constructed           ...    0.0 sec
Grid point re-assignment to atoms done       ...    0.0 sec
Grid point division into batches done        ...    0.0 sec
Reduced shell lists constructed in    2.8 sec

Total number of grid points                  ...    55877
Total number of batches                      ...      921
Average number of points per batch           ...       60
Average number of grid points per atom       ...      576
Average number of shells per batch           ...   212.34 (23.57%)
Average number of basis functions per batch  ...   543.68 (22.57%)
Average number of large shells per batch     ...   125.39 (59.05%)
Average number of large basis fcns per batch ...   326.22 (60.00%)
Maximum spatial batch extension              ...  19.96, 26.68, 26.22 au
Average spatial batch extension              ...   3.97,  4.19,  4.19 au

Overlap Fitting                  UseSFitting ... on
Constructing numerical overlap ... done (      2.6 sec)
Inverting numerical overlap    ... done (      0.3 sec)
Obtaining analytic overlap     ... done (      0.0 sec)
Final contraction and storage  ... done (      0.5 sec)


General Integration Accuracy     IntAcc      ...  4.010
Radial Grid Type                 RadialGrid  ... Gauss-Chebyshev
Angular Grid (max. acc.)         AngularGrid ... Lebedev-110
Angular grid pruning method      GridPruning ... 3 (G Style)
Weight generation scheme         WeightScheme... Becke
Basis function cutoff            BFCut       ...    1.0000e-11
Integration weight cutoff        WCut        ...    1.0000e-14
Grids for H and He will be reduced by one unit

# of grid points (after initial pruning)     ... 124208 (   0.2 sec)
# of grid points (after weights+screening)   ... 108976 (   5.3 sec)
nearest neighbour list constructed           ...    0.0 sec
Grid point re-assignment to atoms done       ...    0.0 sec
Grid point division into batches done        ...    0.1 sec
Reduced shell lists constructed in    4.9 sec

Total number of grid points                  ...   108976
Total number of batches                      ...     1758
Average number of points per batch           ...       61
Average number of grid points per atom       ...     1123
Average number of shells per batch           ...   200.57 (22.26%)
Average number of basis functions per batch  ...   512.19 (21.26%)
Average number of large shells per batch     ...   118.78 (59.22%)
Average number of large basis fcns per batch ...   308.28 (60.19%)
Maximum spatial batch extension              ...  22.20, 20.68, 20.32 au
Average spatial batch extension              ...   3.26,  3.43,  3.47 au

Overlap Fitting                  UseSFitting ... on
Constructing numerical overlap ... done (      4.6 sec)
Inverting numerical overlap    ... done (      0.3 sec)
Obtaining analytic overlap     ... done (      0.0 sec)
Final contraction and storage  ... done (      0.5 sec)

Time for X-Grid setup             =   32.610 sec
--------------
SCF ITERATIONS
--------------
ITER       Energy         Delta-E        Max-DP      RMS-DP      [F,P]     Damp
               ***  Starting incremental Fock matrix formation  ***
  0  -8979.5980104740   0.000000000000 0.27475343  0.00100669  0.3148309 0.7000
  1  -8980.5163299995  -0.918319525517 0.20545247  0.00085731  0.1055670 0.7000
                               ***Turning on DIIS***
  2  -8980.8283440901  -0.312014090616 0.28137092  0.00136276  0.0424894 0.0000
  3  -8981.3624110548  -0.534066964712 0.21061074  0.00076836  0.0579837 0.0000
  4  -8981.4759121090  -0.113501054188 0.06757595  0.00028736  0.0371530 0.0000
  5  -8981.4902042925  -0.014292183507 0.03100988  0.00013185  0.0093303 0.0000
                      *** Initiating the SOSCF procedure ***
                           *** Shutting down DIIS ***
                      *** Re-Reading the Fockian *** 
                      *** Removing any level shift *** 
ITER      Energy       Delta-E        Grad      Rot      Max-DP    RMS-DP
  6  -8981.49127299  -0.0010686982  0.000907  0.000907  0.010945  0.000041
               *** Restarting incremental Fock matrix formation ***
  7  -8981.49145211  -0.0001791198  0.000513  0.007552  0.015566  0.000095
  8  -8981.49148275  -0.0000306347  0.000505  0.006550  0.010463  0.000053
  9  -8981.49150150  -0.0000187568  0.000539  0.005779  0.008639  0.000049
 10  -8981.49151619  -0.0000146848  0.000173  0.001124  0.003134  0.000020
 11  -8981.49151910  -0.0000029153  0.000196  0.001674  0.003245  0.000019
 12  -8981.49152270  -0.0000035977  0.000130  0.000436  0.001179  0.000008
 13  -8981.49152327  -0.0000005751  0.000098  0.000816  0.001530  0.000009
 14  -8981.49152449  -0.0000012128  0.000060  0.000220  0.000684  0.000003
 15  -8981.49152445   0.0000000399  0.000065  0.000173  0.000907  0.000004
 16  -8981.49152478  -0.0000003329  0.000026  0.000072  0.000586  0.000002
 17  -8981.49152468   0.0000000990  0.000022  0.000054  0.000298  0.000001
 18  -8981.49152483  -0.0000001485  0.000010  0.000037  0.001464  0.000003
 19  -8981.49152484  -0.0000000106  0.000010  0.000027  0.000431  0.000001
 20  -8981.49152479   0.0000000491  0.000003  0.000012  0.000430  0.000002
 21  -8981.49152480  -0.0000000066  0.000005  0.000009  0.000283  0.000001
                  ***Gradient check signals convergence***
              ***Rediagonalizing the Fockian in SOSCF/NRSCF***

               *****************************************************
               *                     SUCCESS                       *
               *           SCF CONVERGED AFTER  22 CYCLES          *
               *****************************************************

Setting up the final grid:

General Integration Accuracy     IntAcc      ...  5.010
Radial Grid Type                 RadialGrid  ... Gauss-Chebyshev
Angular Grid (max. acc.)         AngularGrid ... Lebedev-434
Angular grid pruning method      GridPruning ... 3 (G Style)
Weight generation scheme         WeightScheme... Becke
Basis function cutoff            BFCut       ...    1.0000e-11
Integration weight cutoff        WCut        ...    1.0000e-14
Grids for H and He will be reduced by one unit

# of grid points (after initial pruning)     ... 946892 (   1.4 sec)
# of grid points (after weights+screening)   ... 800847 (  40.8 sec)
nearest neighbour list constructed           ...    0.0 sec
Grid point re-assignment to atoms done       ...    0.1 sec
Grid point division into batches done        ...    5.8 sec
Reduced shell lists constructed in   31.9 sec

Total number of grid points                  ...   800847
Total number of batches                      ...    12568
Average number of points per batch           ...       63
Average number of grid points per atom       ...     8256
Average number of shells per batch           ...   172.33 (19.13%)
Average number of basis functions per batch  ...   433.26 (17.98%)
Average number of large shells per batch     ...   100.80 (58.49%)
Average number of large basis fcns per batch ...   258.02 (59.55%)
Maximum spatial batch extension              ...  21.94, 20.92, 24.64 au
Average spatial batch extension              ...   1.70,  1.73,  1.76 au

Final grid set up in   74.1 sec
Final integration                            ... done (  58.2 sec)
Change in XC energy                          ...    -0.000206941
Integrated number of electrons               ...   561.999618009
Previous integrated no of electrons          ...   562.000435260
Old exchange energy                            =   -126.942221146 Eh
New exchange energy                            =   -126.942381495 Eh
Exchange energy change after final integration =     -0.000160349 Eh
Total energy after final integration           =  -8981.491892146 Eh
Final COS-X integration done in                =  1698.370 sec

----------------
TOTAL SCF ENERGY
----------------

Total Energy       :        -8981.49189215 Eh         -244398.81938 eV

Components:
Nuclear Repulsion  :        13245.26947757 Eh          360422.10599 eV
Electronic Energy  :       -22226.76136972 Eh         -604820.92537 eV
One Electron Energy:       -38804.61679629 Eh        -1055927.30533 eV
Two Electron Energy:        16577.85542657 Eh          451106.37996 eV

Virial components:
Potential Energy   :       -17942.56361006 Eh         -488241.97757 eV
Kinetic Energy     :         8961.07171791 Eh          243843.15819 eV
Virial Ratio       :            2.00227876


DFT components:
N(Alpha)           :      280.999809004731 electrons
N(Beta)            :      280.999809004731 electrons
N(Total)           :      561.999618009461 electrons
E(X)               :     -505.063621147431 Eh       
E(C)               :      -24.453044969111 Eh       
E(XC)              :     -529.516666116542 Eh       
DFET-embed. en.    :        0.000000000000 Eh       

---------------
SCF CONVERGENCE
---------------

  Last Energy change         ...   -5.7977e-08  Tolerance :   1.0000e-08
  Last MAX-Density change    ...    6.2172e-15  Tolerance :   1.0000e-07
  Last RMS-Density change    ...    1.4459e-17  Tolerance :   5.0000e-09
  Last Orbital Gradient      ...    1.1143e-06  Tolerance :   1.0000e-05
  Last Orbital Rotation      ...    5.4600e-06  Tolerance :   1.0000e-05

             **** THE GBW FILE WAS UPDATED (CH1007.gbw) ****
             **** DENSITY FILE WAS UPDATED (CH1007.scfp) ****
             **** ENERGY FILE WAS UPDATED (CH1007.en.tmp) ****
             **** THE GBW FILE WAS UPDATED (CH1007.gbw) ****
             **** DENSITY FILE WAS UPDATED (CH1007.scfp) ****
----------------
ORBITAL ENERGIES
----------------

  NO   OCC          E(Eh)            E(eV) 
   0   2.0000    -454.007443    -12354.1706 
   1   2.0000    -453.928534    -12352.0234 
   2   2.0000     -88.952720     -2420.5266 
   3   2.0000     -88.903940     -2419.1992 
   4   2.0000     -88.810800     -2416.6647 
   5   2.0000     -58.187079     -1583.3509 
   6   2.0000     -58.110195     -1581.2588 
   7   2.0000     -52.239283     -1421.5032 
   8   2.0000     -52.238812     -1421.4903 
   9   2.0000     -52.238117     -1421.4714 
  10   2.0000     -52.162719     -1419.4197 
  11   2.0000     -52.161624     -1419.3899 
  12   2.0000     -52.160888     -1419.3699 
  13   2.0000     -24.750779      -673.5029 
  14   2.0000     -24.744093      -673.3210 
  15   2.0000     -24.722994      -672.7469 
  16   2.0000     -24.721117      -672.6958 
  17   2.0000     -19.215180      -522.8716 
  18   2.0000     -19.138775      -520.7925 
  19   2.0000     -14.416446      -392.2914 
  20   2.0000     -14.405181      -391.9849 
  21   2.0000     -14.360293      -390.7634 
  22   2.0000     -14.356920      -390.6717 
  23   2.0000     -14.351680      -390.5291 
  24   2.0000     -14.350243      -390.4900 
  25   2.0000     -14.328984      -389.9115 
  26   2.0000     -14.323576      -389.7643 
  27   2.0000     -10.355730      -281.7937 
  28   2.0000     -10.329165      -281.0709 
  29   2.0000     -10.324321      -280.9391 
  30   2.0000     -10.297169      -280.2002 
  31   2.0000     -10.296575      -280.1841 
  32   2.0000     -10.288594      -279.9669 
  33   2.0000     -10.288197      -279.9561 
  34   2.0000     -10.284089      -279.8443 
  35   2.0000     -10.278657      -279.6965 
  36   2.0000     -10.263402      -279.2814 
  37   2.0000     -10.262470      -279.2560 
  38   2.0000     -10.261169      -279.2206 
  39   2.0000     -10.258449      -279.1466 
  40   2.0000     -10.253001      -278.9983 
  41   2.0000     -10.252502      -278.9848 
  42   2.0000     -10.251414      -278.9552 
  43   2.0000     -10.249668      -278.9076 
  44   2.0000     -10.249457      -278.9019 
  45   2.0000     -10.248686      -278.8809 
  46   2.0000     -10.247640      -278.8525 
  47   2.0000     -10.246288      -278.8157 
  48   2.0000     -10.243219      -278.7322 
  49   2.0000     -10.242431      -278.7107 
  50   2.0000     -10.241697      -278.6907 
  51   2.0000     -10.239525      -278.6316 
  52   2.0000     -10.239309      -278.6258 
  53   2.0000     -10.235425      -278.5201 
  54   2.0000     -10.233626      -278.4711 
  55   2.0000     -10.229951      -278.3711 
  56   2.0000     -10.229454      -278.3576 
  57   2.0000     -10.228847      -278.3411 
  58   2.0000     -10.228498      -278.3316 
  59   2.0000     -10.228088      -278.3204 
  60   2.0000     -10.227967      -278.3171 
  61   2.0000     -10.227827      -278.3133 
  62   2.0000     -10.226941      -278.2892 
  63   2.0000     -10.225158      -278.2407 
  64   2.0000     -10.224815      -278.2314 
  65   2.0000     -10.222684      -278.1734 
  66   2.0000     -10.222403      -278.1657 
  67   2.0000     -10.220965      -278.1266 
  68   2.0000     -10.218521      -278.0601 
  69   2.0000     -10.216498      -278.0050 
  70   2.0000     -10.214153      -277.9412 
  71   2.0000     -10.213988      -277.9367 
  72   2.0000     -10.207178      -277.7514 
  73   2.0000     -10.197455      -277.4869 
  74   2.0000     -10.195892      -277.4443 
  75   2.0000     -10.192866      -277.3620 
  76   2.0000     -10.191182      -277.3162 
  77   2.0000     -10.171769      -276.7879 
  78   2.0000     -10.170574      -276.7554 
  79   2.0000      -8.023711      -218.3363 
  80   2.0000      -7.979708      -217.1389 
  81   2.0000      -7.924381      -215.6334 
  82   2.0000      -7.889122      -214.6739 
  83   2.0000      -7.848402      -213.5659 
  84   2.0000      -5.988386      -162.9523 
  85   2.0000      -5.980989      -162.7510 
  86   2.0000      -5.980576      -162.7397 
  87   2.0000      -5.942618      -161.7069 
  88   2.0000      -5.938925      -161.6064 
  89   2.0000      -5.935489      -161.5129 
  90   2.0000      -5.866545      -159.6368 
  91   2.0000      -5.865379      -159.6051 
  92   2.0000      -5.861598      -159.5022 
  93   2.0000      -5.851736      -159.2338 
  94   2.0000      -5.848094      -159.1347 
  95   2.0000      -5.844866      -159.0469 
  96   2.0000      -5.792666      -157.6264 
  97   2.0000      -5.788569      -157.5150 
  98   2.0000      -5.784456      -157.4030 
  99   2.0000      -2.220107       -60.4122 
 100   2.0000      -2.219917       -60.4070 
 101   2.0000      -2.216894       -60.3248 
 102   2.0000      -2.215833       -60.2959 
 103   2.0000      -2.214898       -60.2704 
 104   2.0000      -2.146125       -58.3990 
 105   2.0000      -2.145401       -58.3793 
 106   2.0000      -2.141278       -58.2671 
 107   2.0000      -2.137990       -58.1777 
 108   2.0000      -2.137708       -58.1700 
 109   2.0000      -1.291882       -35.1539 
 110   2.0000      -1.276866       -34.7453 
 111   2.0000      -1.265300       -34.4306 
 112   2.0000      -1.251932       -34.0668 
 113   2.0000      -1.150724       -31.3128 
 114   2.0000      -1.066504       -29.0211 
 115   2.0000      -1.049776       -28.5658 
 116   2.0000      -1.038495       -28.2589 
 117   2.0000      -1.034598       -28.1529 
 118   2.0000      -0.983797       -26.7705 
 119   2.0000      -0.956625       -26.0311 
 120   2.0000      -0.945398       -25.7256 
 121   2.0000      -0.943266       -25.6676 
 122   2.0000      -0.925830       -25.1931 
 123   2.0000      -0.921650       -25.0794 
 124   2.0000      -0.920523       -25.0487 
 125   2.0000      -0.916691       -24.9444 
 126   2.0000      -0.907427       -24.6924 
 127   2.0000      -0.904880       -24.6230 
 128   2.0000      -0.891193       -24.2506 
 129   2.0000      -0.880200       -23.9515 
 130   2.0000      -0.875541       -23.8247 
 131   2.0000      -0.866072       -23.5670 
 132   2.0000      -0.862895       -23.4806 
 133   2.0000      -0.836353       -22.7583 
 134   2.0000      -0.832183       -22.6448 
 135   2.0000      -0.826199       -22.4820 
 136   2.0000      -0.819802       -22.3079 
 137   2.0000      -0.817728       -22.2515 
 138   2.0000      -0.808356       -21.9965 
 139   2.0000      -0.800304       -21.7774 
 140   2.0000      -0.797703       -21.7066 
 141   2.0000      -0.793179       -21.5835 
 142   2.0000      -0.787299       -21.4235 
 143   2.0000      -0.776357       -21.1257 
 144   2.0000      -0.766229       -20.8501 
 145   2.0000      -0.755878       -20.5685 
 146   2.0000      -0.753421       -20.5016 
 147   2.0000      -0.743286       -20.2258 
 148   2.0000      -0.735304       -20.0086 
 149   2.0000      -0.722238       -19.6531 
 150   2.0000      -0.713524       -19.4160 
 151   2.0000      -0.704403       -19.1678 
 152   2.0000      -0.700297       -19.0560 
 153   2.0000      -0.691873       -18.8268 
 154   2.0000      -0.687563       -18.7095 
 155   2.0000      -0.686498       -18.6806 
 156   2.0000      -0.684457       -18.6250 
 157   2.0000      -0.665101       -18.0983 
 158   2.0000      -0.662474       -18.0268 
 159   2.0000      -0.651879       -17.7385 
 160   2.0000      -0.650047       -17.6887 
 161   2.0000      -0.641933       -17.4679 
 162   2.0000      -0.639507       -17.4019 
 163   2.0000      -0.638005       -17.3610 
 164   2.0000      -0.633333       -17.2339 
 165   2.0000      -0.630134       -17.1468 
 166   2.0000      -0.626457       -17.0468 
 167   2.0000      -0.615294       -16.7430 
 168   2.0000      -0.601079       -16.3562 
 169   2.0000      -0.600310       -16.3353 
 170   2.0000      -0.595015       -16.1912 
 171   2.0000      -0.591894       -16.1063 
 172   2.0000      -0.587100       -15.9758 
 173   2.0000      -0.579151       -15.7595 
 174   2.0000      -0.573476       -15.6051 
 175   2.0000      -0.573234       -15.5985 
 176   2.0000      -0.567133       -15.4325 
 177   2.0000      -0.554593       -15.0912 
 178   2.0000      -0.550508       -14.9801 
 179   2.0000      -0.549456       -14.9515 
 180   2.0000      -0.546149       -14.8615 
 181   2.0000      -0.546100       -14.8601 
 182   2.0000      -0.542350       -14.7581 
 183   2.0000      -0.536741       -14.6055 
 184   2.0000      -0.532477       -14.4894 
 185   2.0000      -0.525045       -14.2872 
 186   2.0000      -0.522341       -14.2136 
 187   2.0000      -0.521328       -14.1860 
 188   2.0000      -0.517470       -14.0811 
 189   2.0000      -0.516532       -14.0556 
 190   2.0000      -0.514774       -14.0077 
 191   2.0000      -0.510301       -13.8860 
 192   2.0000      -0.507198       -13.8016 
 193   2.0000      -0.506157       -13.7732 
 194   2.0000      -0.501727       -13.6527 
 195   2.0000      -0.493324       -13.4240 
 196   2.0000      -0.489119       -13.3096 
 197   2.0000      -0.487354       -13.2616 
 198   2.0000      -0.482556       -13.1310 
 199   2.0000      -0.482282       -13.1236 
 200   2.0000      -0.479548       -13.0492 
 201   2.0000      -0.477860       -13.0032 
 202   2.0000      -0.476337       -12.9618 
 203   2.0000      -0.475297       -12.9335 
 204   2.0000      -0.470610       -12.8060 
 205   2.0000      -0.467224       -12.7138 
 206   2.0000      -0.465120       -12.6566 
 207   2.0000      -0.464124       -12.6295 
 208   2.0000      -0.463143       -12.6028 
 209   2.0000      -0.460898       -12.5417 
 210   2.0000      -0.460275       -12.5247 
 211   2.0000      -0.454302       -12.3622 
 212   2.0000      -0.453443       -12.3388 
 213   2.0000      -0.448030       -12.1915 
 214   2.0000      -0.445711       -12.1284 
 215   2.0000      -0.443779       -12.0758 
 216   2.0000      -0.439906       -11.9704 
 217   2.0000      -0.436689       -11.8829 
 218   2.0000      -0.432847       -11.7784 
 219   2.0000      -0.430494       -11.7143 
 220   2.0000      -0.429031       -11.6745 
 221   2.0000      -0.426382       -11.6024 
 222   2.0000      -0.425822       -11.5872 
 223   2.0000      -0.424935       -11.5631 
 224   2.0000      -0.420065       -11.4305 
 225   2.0000      -0.419756       -11.4221 
 226   2.0000      -0.417751       -11.3676 
 227   2.0000      -0.414379       -11.2758 
 228   2.0000      -0.410130       -11.1602 
 229   2.0000      -0.407741       -11.0952 
 230   2.0000      -0.405192       -11.0258 
 231   2.0000      -0.403260       -10.9733 
 232   2.0000      -0.401787       -10.9332 
 233   2.0000      -0.400429       -10.8962 
 234   2.0000      -0.399604       -10.8738 
 235   2.0000      -0.396445       -10.7878 
 236   2.0000      -0.394842       -10.7442 
 237   2.0000      -0.391346       -10.6491 
 238   2.0000      -0.389792       -10.6068 
 239   2.0000      -0.386229       -10.5098 
 240   2.0000      -0.385701       -10.4955 
 241   2.0000      -0.385067       -10.4782 
 242   2.0000      -0.384189       -10.4543 
 243   2.0000      -0.382805       -10.4166 
 244   2.0000      -0.380656       -10.3582 
 245   2.0000      -0.377315       -10.2673 
 246   2.0000      -0.376862       -10.2549 
 247   2.0000      -0.374694       -10.1959 
 248   2.0000      -0.373582       -10.1657 
 249   2.0000      -0.369946       -10.0667 
 250   2.0000      -0.364972        -9.9314 
 251   2.0000      -0.364079        -9.9071 
 252   2.0000      -0.360749        -9.8165 
 253   2.0000      -0.360270        -9.8034 
 254   2.0000      -0.359413        -9.7801 
 255   2.0000      -0.356688        -9.7060 
 256   2.0000      -0.351694        -9.5701 
 257   2.0000      -0.349623        -9.5137 
 258   2.0000      -0.345823        -9.4103 
 259   2.0000      -0.343959        -9.3596 
 260   2.0000      -0.339150        -9.2287 
 261   2.0000      -0.337805        -9.1921 
 262   2.0000      -0.332745        -9.0544 
 263   2.0000      -0.331823        -9.0294 
 264   2.0000      -0.323856        -8.8126 
 265   2.0000      -0.312780        -8.5112 
 266   2.0000      -0.308579        -8.3969 
 267   2.0000      -0.306078        -8.3288 
 268   2.0000      -0.296430        -8.0663 
 269   2.0000      -0.292757        -7.9663 
 270   2.0000      -0.287702        -7.8288 
 271   2.0000      -0.286128        -7.7859 
 272   2.0000      -0.281016        -7.6468 
 273   2.0000      -0.278758        -7.5854 
 274   2.0000      -0.267460        -7.2779 
 275   2.0000      -0.259519        -7.0619 
 276   2.0000      -0.257016        -6.9938 
 277   2.0000      -0.233620        -6.3571 
 278   2.0000      -0.225696        -6.1415 
 279   2.0000      -0.217547        -5.9198 
 280   2.0000      -0.194027        -5.2797 
 281   0.0000      -0.140258        -3.8166 
 282   0.0000      -0.126600        -3.4450 
 283   0.0000      -0.117550        -3.1987 
 284   0.0000      -0.108764        -2.9596 
 285   0.0000      -0.095627        -2.6021 
 286   0.0000      -0.092461        -2.5160 
 287   0.0000      -0.069781        -1.8988 
 288   0.0000      -0.067135        -1.8268 
 289   0.0000      -0.060723        -1.6524 
 290   0.0000      -0.056791        -1.5454 
 291   0.0000      -0.039157        -1.0655 
 292   0.0000      -0.032153        -0.8749 
 293   0.0000      -0.027446        -0.7468 
 294   0.0000      -0.023078        -0.6280 
 295   0.0000      -0.022338        -0.6078 
 296   0.0000      -0.020514        -0.5582 
 297   0.0000      -0.016203        -0.4409 
 298   0.0000      -0.012593        -0.3427 
 299   0.0000      -0.011047        -0.3006 
 300   0.0000      -0.007731        -0.2104 
 301   0.0000      -0.002435        -0.0663 
 302   0.0000       0.000113         0.0031 
 303   0.0000       0.003250         0.0884 
 304   0.0000       0.006716         0.1827 
 305   0.0000       0.009545         0.2597 
 306   0.0000       0.012703         0.3457 
 307   0.0000       0.016166         0.4399 
[...]
   279a -> 288a  :     0.029865 (c= -0.17281491)
   280a -> 289a  :     0.015296 (c= -0.12367835)
   280a -> 290a  :     0.317226 (c=  0.56322794)
   280a -> 291a  :     0.036272 (c= -0.19045269)

STATE 43:  E=   0.130588 au      3.553 eV    28660.8 cm**-1
   272a -> 281a  :     0.014796 (c= -0.12164001)
   273a -> 281a  :     0.977370 (c=  0.98862024)

STATE 44:  E=   0.133584 au      3.635 eV    29318.4 cm**-1
   266a -> 281a  :     0.013494 (c= -0.11616572)
   267a -> 281a  :     0.266831 (c= -0.51655712)
   268a -> 281a  :     0.188503 (c= -0.43416932)
   269a -> 281a  :     0.215954 (c= -0.46470877)
   270a -> 281a  :     0.074160 (c= -0.27232289)
   271a -> 281a  :     0.127569 (c= -0.35716735)
   272a -> 281a  :     0.022517 (c= -0.15005680)
   280a -> 291a  :     0.037104 (c= -0.19262347)

STATE 45:  E=   0.134526 au      3.661 eV    29525.0 cm**-1
   267a -> 281a  :     0.014083 (c=  0.11867251)
   268a -> 283a  :     0.011308 (c=  0.10634103)
   269a -> 283a  :     0.035289 (c=  0.18785492)
   270a -> 281a  :     0.046308 (c=  0.21519358)
   270a -> 283a  :     0.015201 (c=  0.12329354)
   271a -> 283a  :     0.066066 (c= -0.25703255)
   272a -> 282a  :     0.028513 (c= -0.16885793)
   272a -> 283a  :     0.201763 (c= -0.44918067)
   275a -> 283a  :     0.069867 (c=  0.26432359)
   278a -> 291a  :     0.010457 (c=  0.10226143)
   280a -> 291a  :     0.400386 (c= -0.63276074)
   280a -> 295a  :     0.016683 (c= -0.12916369)

STATE 46:  E=   0.135894 au      3.698 eV    29825.3 cm**-1
   268a -> 281a  :     0.018844 (c= -0.13727288)
   268a -> 283a  :     0.016063 (c=  0.12674010)
   269a -> 281a  :     0.024554 (c= -0.15669817)
   269a -> 283a  :     0.028747 (c=  0.16955082)
   271a -> 283a  :     0.032365 (c= -0.17990202)
   272a -> 281a  :     0.016404 (c= -0.12807884)
   272a -> 282a  :     0.019228 (c= -0.13866573)
   272a -> 283a  :     0.183220 (c= -0.42804158)
   275a -> 283a  :     0.038319 (c=  0.19575321)
   275a -> 284a  :     0.025527 (c= -0.15977104)
   278a -> 287a  :     0.029105 (c=  0.17060185)
   280a -> 290a  :     0.024957 (c=  0.15797896)
   280a -> 291a  :     0.362821 (c=  0.60234587)
   280a -> 294a  :     0.025764 (c= -0.16051121)

STATE 47:  E=   0.136815 au      3.723 eV    30027.5 cm**-1
   268a -> 282a  :     0.010732 (c=  0.10359629)
   272a -> 283a  :     0.019563 (c= -0.13986607)
   274a -> 282a  :     0.038830 (c= -0.19705439)
   274a -> 284a  :     0.059342 (c=  0.24360130)
   275a -> 284a  :     0.561538 (c=  0.74935825)
   276a -> 284a  :     0.160122 (c=  0.40015195)
   278a -> 288a  :     0.011597 (c=  0.10768876)
   279a -> 289a  :     0.014572 (c= -0.12071396)
   280a -> 291a  :     0.010449 (c=  0.10221926)

STATE 48:  E=   0.137302 au      3.736 eV    30134.2 cm**-1
   275a -> 284a  :     0.011369 (c=  0.10662372)
   278a -> 289a  :     0.022256 (c=  0.14918314)
   279a -> 287a  :     0.042693 (c= -0.20662269)
   279a -> 289a  :     0.829212 (c=  0.91061072)
   279a -> 290a  :     0.065985 (c=  0.25687608)

STATE 49:  E=   0.139080 au      3.785 eV    30524.6 cm**-1
   268a -> 282a  :     0.018185 (c= -0.13485338)
   272a -> 282a  :     0.116416 (c= -0.34119724)
   274a -> 282a  :     0.033398 (c=  0.18275121)
   274a -> 283a  :     0.019828 (c=  0.14081135)
   274a -> 284a  :     0.257848 (c= -0.50778724)
   275a -> 284a  :     0.269762 (c=  0.51938622)
   276a -> 284a  :     0.183050 (c= -0.42784395)
   278a -> 287a  :     0.017531 (c=  0.13240449)

STATE 50:  E=   0.140107 au      3.813 eV    30750.0 cm**-1
   267a -> 281a  :     0.078076 (c=  0.27942058)
   268a -> 281a  :     0.078047 (c= -0.27936825)
   269a -> 281a  :     0.183158 (c= -0.42796985)
   270a -> 281a  :     0.150133 (c=  0.38747042)
   270a -> 283a  :     0.111566 (c= -0.33401438)
   271a -> 281a  :     0.033686 (c=  0.18353849)
   272a -> 281a  :     0.012728 (c= -0.11281789)
   272a -> 282a  :     0.014735 (c=  0.12138836)
   274a -> 283a  :     0.082944 (c= -0.28800086)
   274a -> 284a  :     0.027382 (c= -0.16547439)
   275a -> 284a  :     0.010116 (c=  0.10057664)
   276a -> 283a  :     0.012723 (c=  0.11279441)
   278a -> 287a  :     0.026786 (c= -0.16366389)
   278a -> 288a  :     0.084081 (c= -0.28996773)


-----------------------------
TD-DFT/TDA-EXCITATION SPECTRA
-----------------------------

Center of mass = ( 18.3503, -5.2237,  1.7323)
Calculating the Dipole integrals                  ... done
Transforming integrals                            ... done
Calculating the Linear Momentum integrals         ... done
Transforming integrals                            ... done
Calculating angular momentum integrals            ... done
Transforming integrals                            ... done

-----------------------------------------------------------------------------
         ABSORPTION SPECTRUM VIA TRANSITION ELECTRIC DIPOLE MOMENTS
-----------------------------------------------------------------------------
State   Energy    Wavelength  fosc         T2        TX        TY        TZ  
        (cm-1)      (nm)                 (au**2)    (au)      (au)      (au) 
-----------------------------------------------------------------------------
   1    8381.4   1193.1   0.000875161   0.03438   0.05475   0.17586  -0.02122
   2   11993.9    833.8   0.022840334   0.62693  -0.61727   0.49079  -0.07092
   3   13583.6    736.2   0.089563047   2.17066   0.89482  -1.15037   0.21583
   4   14280.8    700.2   0.961539982  22.16615   3.60759  -2.85392   1.00329
   5   16045.3    623.2   0.002920548   0.05992   0.05734   0.23646   0.02686
   6   16546.7    604.3   0.125229045   2.49155   1.12257  -1.04450   0.37471
   7   16953.5    589.8   0.114864307   2.23049   1.00696  -0.97083   0.52345
   8   17468.1    572.5   0.127356723   2.40023  -1.26718   0.86066  -0.23185
   9   17899.7    558.7   0.067201972   1.23598   0.73908  -0.77299   0.30368
  10   18011.2    555.2   0.000074744   0.00137   0.02546  -0.01341   0.02319
  11   18451.0    542.0   0.127795469   2.28019  -1.25261   0.84292  -0.02522
  12   20019.7    499.5   0.060630837   0.99704  -0.12440   0.66489  -0.73450
  13   20182.3    495.5   0.054050367   0.88167   0.75732  -0.55510  -0.00128
  14   20857.6    479.4   0.613908297   9.68981  -2.07106   2.00742  -1.17082
  15   21304.1    469.4   0.047420288   0.73279  -0.61924   0.51919  -0.28245
  16   22021.4    454.1   0.088841459   1.32814  -0.56749   0.83164  -0.56078
  17   22438.3    445.7   0.000322988   0.00474  -0.05731   0.03593  -0.01277
  18   22597.7    442.5   0.011481194   0.16726   0.16803  -0.36432  -0.07937
  19   22915.9    436.4   0.012516815   0.17982   0.19085  -0.33866   0.16942
  20   22974.9    435.3   0.055714819   0.79835  -0.37008   0.53747  -0.61034
  21   23242.9    430.2   0.000066426   0.00094  -0.01790   0.01643   0.01873
  22   23660.4    422.6   0.000685172   0.00953  -0.05977  -0.07720  -0.00086
  23   23976.5    417.1   0.173481090   2.38200   1.25125  -0.88464   0.18383
  24   24465.0    408.7   0.010069790   0.13550  -0.35325  -0.01361   0.10264
  25   24866.3    402.2   0.058774767   0.77814  -0.52198  -0.26357   0.66046
  26   25231.4    396.3   0.022643012   0.29544  -0.47124   0.26663   0.04782
  27   26077.2    383.5   0.002690495   0.03397   0.15955  -0.04923   0.07802
  28   26086.7    383.3   0.017374189   0.21926   0.04940  -0.23941   0.39938
  29   26323.5    379.9   0.071989059   0.90032   0.35371   0.28474  -0.83315
  30   26549.7    376.7   0.046896268   0.58151  -0.63059   0.09576   0.41796
  31   26614.7    375.7   0.031661356   0.39164   0.35943  -0.33653   0.38626
  32   26939.7    371.2   0.102004004   1.24652  -0.12988   0.77011  -0.79787
  33   27052.9    369.6   0.019330574   0.23524   0.35591  -0.18034   0.27576
  34   27277.2    366.6   0.000377971   0.00456  -0.02904   0.06089   0.00320
  35   27342.1    365.7   0.004980178   0.05996  -0.02349  -0.02371   0.24259
  36   27425.9    364.6   0.007627889   0.09156   0.30042  -0.03318   0.01444
  37   27804.9    359.6   0.097829385   1.15831   0.13872  -0.72093   0.78697
  38   27955.3    357.7   0.054532842   0.64220   0.34124  -0.61481   0.38441
  39   27975.5    357.5   0.000031984   0.00038  -0.01760  -0.00809   0.00110
  40   28027.0    356.8   0.020685846   0.24298  -0.14540   0.04181   0.46914
  41   28337.8    352.9   0.006792311   0.07891   0.26608   0.02187  -0.08737
  42   28423.9    351.8   0.027554707   0.31914  -0.23640   0.45755  -0.23218
  43   28660.8    348.9   0.000031237   0.00036   0.01068   0.01409  -0.00681
  44   29318.4    341.1   0.028084733   0.31536  -0.01798   0.55584   0.07800
  45   29525.0    338.7   0.030041302   0.33497  -0.16212  -0.55553   0.00842
  46   29825.3    335.3   0.026950028   0.29747   0.45729  -0.12752  -0.26852
  47   30027.5    333.0   0.084371458   0.92502  -0.18533   0.53723  -0.77592
  48   30134.2    331.8   0.001553752   0.01697  -0.10827   0.04312  -0.05824
  49   30524.6    327.6   0.009598075   0.10352  -0.18831   0.07164   0.25085
  50   30750.0    325.2   0.049272742   0.52752   0.20946  -0.65655   0.22931

-----------------------------------------------------------------------------
         ABSORPTION SPECTRUM VIA TRANSITION VELOCITY DIPOLE MOMENTS
-----------------------------------------------------------------------------
State   Energy    Wavelength   fosc        P2         PX        PY        PZ  
        (cm-1)      (nm)                 (au**2)     (au)      (au)      (au) 
-----------------------------------------------------------------------------
   1    8381.4   1193.1   0.006540613   0.00037   0.01287   0.01214  -0.00785
   2   11993.9    833.8   0.008583492   0.00070  -0.01284  -0.02162  -0.00846
   3   13583.6    736.2   0.005077427   0.00047  -0.02028   0.00629   0.00454
   4   14280.8    700.2   0.071851486   0.00701  -0.00121   0.08333  -0.00820
   5   16045.3    623.2   0.003279132   0.00036   0.01738   0.00618  -0.00442
   6   16546.7    604.3   0.026692984   0.00302  -0.03747   0.03789   0.01338
   7   16953.5    589.8   0.016581315   0.00192  -0.03804   0.01252   0.01781
   8   17468.1    572.5   0.066507670   0.00794   0.01683  -0.08076   0.03369
   9   17899.7    558.7   0.005045536   0.00062  -0.01615   0.01570   0.01048
  10   18011.2    555.2   0.000037309   0.00000  -0.00010  -0.00097   0.00191
  11   18451.0    542.0   0.012781243   0.00161  -0.01533  -0.02811   0.02422
  12   20019.7    499.5   0.086191594   0.01179   0.07566   0.01322  -0.07677
  13   20182.3    495.5   0.036989569   0.00510   0.01066   0.04535  -0.05415
  14   20857.6    479.4   0.173560910   0.02474   0.09415  -0.12139   0.03378
  15   21304.1    469.4   0.020407839   0.00297   0.02562  -0.04586   0.01455
  16   22021.4    454.1   0.032331320   0.00487   0.05990  -0.03192  -0.01609
  17   22438.3    445.7   0.000858496   0.00013   0.00777   0.00146   0.00831
  18   22597.7    442.5   0.002399384   0.00037  -0.01921   0.00113   0.00052
  19   22915.9    436.4   0.009419700   0.00148  -0.03250   0.02015   0.00367
  20   22974.9    435.3   0.031341584   0.00492   0.05810  -0.03685  -0.01370
  21   23242.9    430.2   0.000582340   0.00009  -0.00317   0.00898  -0.00137
  22   23660.4    422.6   0.002167654   0.00035   0.00743  -0.01433   0.00948
  23   23976.5    417.1   0.074476325   0.01220  -0.02903   0.08891  -0.05879
  24   24465.0    408.7   0.005140772   0.00086  -0.01551  -0.01506   0.01980
  25   24866.3    402.2   0.013938720   0.00237  -0.00628  -0.02649   0.04035
  26   25231.4    396.3   0.007824002   0.00135   0.00184  -0.02018   0.03063
  27   26077.2    383.5   0.000286539   0.00005   0.00591  -0.00402   0.00009
  28   26086.7    383.3   0.002591527   0.00046  -0.02030   0.00441  -0.00553
  29   26323.5    379.9   0.004359481   0.00078  -0.00096   0.02091  -0.01861
  30   26549.7    376.7   0.005781343   0.00105  -0.00315  -0.03003   0.01172
  31   26614.7    375.7   0.025286811   0.00460  -0.05600   0.03798   0.00462
  32   26939.7    371.2   0.039842140   0.00734   0.07840  -0.03225  -0.01223
  33   27052.9    369.6   0.004537219   0.00084  -0.02309  -0.00916  -0.01489
  34   27277.2    366.6   0.002329478   0.00043   0.01143   0.01068   0.01377
  35   27342.1    365.7   0.004132290   0.00077  -0.01417  -0.01891   0.01462
  36   27425.9    364.6   0.007673865   0.00144  -0.02317   0.02546  -0.01592
  37   27804.9    359.6   0.015019649   0.00285  -0.04525   0.02818   0.00361
  38   27955.3    357.7   0.015864725   0.00303  -0.04293   0.03388   0.00636
  39   27975.5    357.5   0.000154331   0.00003  -0.00198  -0.00458  -0.00214
  40   28027.0    356.8   0.003181646   0.00061   0.01601  -0.01297   0.01360
  41   28337.8    352.9   0.000065251   0.00001  -0.00262   0.00079  -0.00227
  42   28423.9    351.8   0.010893398   0.00212   0.01814   0.01278  -0.04030
  43   28660.8    348.9   0.000006715   0.00000  -0.00036   0.00017  -0.00108
  44   29318.4    341.1   0.001987516   0.00040   0.00792  -0.01511  -0.01036
  45   29525.0    338.7   0.006199228   0.00125  -0.01236   0.03312   0.00119
  46   29825.3    335.3   0.019499943   0.00397  -0.00983   0.05058  -0.03633
  47   30027.5    333.0   0.007716660   0.00158   0.02404  -0.02461   0.02000
  48   30134.2    331.8   0.000509558   0.00010   0.00307  -0.00557   0.00803
  49   30524.6    327.6   0.002137829   0.00045  -0.01438   0.01394  -0.00669
  50   30750.0    325.2   0.000839119   0.00018   0.00276   0.00438   0.01223

-------------------------------------------------------------------
                             CD SPECTRUM
-------------------------------------------------------------------
State  Energy     Wavelength     R         MX        MY        MZ   
       (cm-1)       (nm)     (1e40*cgs)   (au)      (au)      (au)  
-------------------------------------------------------------------
   1    8381.4   1193.1      2.34713  -0.01984   0.01703  -0.14468
   2   11993.9    833.8     32.93280  -0.17964  -0.06642   0.11897
   3   13583.6    736.2    -70.90516   0.09608   0.19479  -0.05691
   4   14280.8    700.2    -104.55531   0.30118   0.34960  -0.30957
   5   16045.3    623.2     -0.96595  -0.01775   0.00197  -0.05576
   6   16546.7    604.3    -66.07525   0.03665   0.02664  -0.40958
   7   16953.5    589.8     16.40003   0.02240   0.01303   0.04752
   8   17468.1    572.5      6.24771  -0.03344   0.07374   0.39931
   9   17899.7    558.7      0.31021   0.10612   0.11068   0.02562
  10   18011.2    555.2      0.05874  -0.01211  -0.00777   0.01418
  11   18451.0    542.0      4.07324  -0.04871  -0.05281   0.31158
  12   20019.7    499.5    -19.46595   0.18656   0.18099   0.18846
  13   20182.3    495.5      0.74070   0.26325   0.35602   0.12736
  14   20857.6    479.4      3.05028  -0.46165  -0.61824  -0.24892
  15   21304.1    469.4     19.07435   0.03105   0.14683   0.05859
  16   22021.4    454.1    -56.75790  -0.12563  -0.17779   0.07815
  17   22438.3    445.7     -0.99466   0.04069  -0.02226  -0.08004
  18   22597.7    442.5      4.64947  -0.06079  -0.03251  -0.10372
  19   22915.9    436.4     -6.83877   0.01791  -0.00375  -0.11329
  20   22974.9    435.3    -35.72552  -0.00025  -0.00861   0.11673
  21   23242.9    430.2     -0.88876   0.01956   0.00337  -0.08492
  22   23660.4    422.6      2.76395  -0.00676  -0.07061  -0.00844
  23   23976.5    417.1     30.97882   0.17073   0.14165  -0.12294
  24   24465.0    408.7      7.11759   0.00310   0.11747   0.17331
  25   24866.3    402.2     39.07083   0.16252   0.04114   0.27034
  26   25231.4    396.3     -0.61337  -0.08516  -0.15899   0.02006
  27   26077.2    383.5     -0.67369  -0.02135   0.01872   0.03716
  28   26086.7    383.3     20.93951   0.06583   0.11494   0.17197
  29   26323.5    379.9     72.34681  -0.08068  -0.09786  -0.25189
  30   26549.7    376.7     76.26094  -0.05252  -0.08822   0.32799
  31   26614.7    375.7     40.67904   0.13563   0.11067   0.19360
  32   26939.7    371.2    -67.75818  -0.27967  -0.31998  -0.08319
  33   27052.9    369.6     10.30636  -0.08484   0.07203   0.23588
  34   27277.2    366.6      2.46476  -0.17473  -0.00243   0.09417
  35   27342.1    365.7     15.82624  -0.04984  -0.06953   0.12676
  36   27425.9    364.6      0.54409   0.02434   0.11135  -0.17066
  37   27804.9    359.6     -1.80827   0.09645   0.10480   0.07413
  38   27955.3    357.7    -40.43309   0.21156   0.25278  -0.00662
  39   27975.5    357.5      0.82339  -0.14966   0.10504  -0.03428
  40   28027.0    356.8     50.44989   0.10635   0.02705   0.25865
  41   28337.8    352.9      4.49187   0.00140   0.03034  -0.09719
  42   28423.9    351.8    -10.66395  -0.11555  -0.10570   0.00677
  43   28660.8    348.9      0.04306   0.00206   0.00076  -0.00860
  44   29318.4    341.1    -26.27012   0.01722  -0.09902  -0.00476
  45   29525.0    338.7    -76.51470   0.13650   0.24873  -0.23632
  46   29825.3    335.3     43.58713   0.09795   0.11956  -0.23428
  47   30027.5    333.0     58.92808  -0.06772   0.00042  -0.14462
  48   30134.2    331.8      3.49530  -0.04201   0.00699  -0.04403
  49   30524.6    327.6      6.60088   0.07473   0.02027   0.10613
  50   30750.0    325.2      9.48718  -0.08294  -0.00614   0.14592

Total run time:   412355.059 sec

           *** ORCA-CIS/TD-DFT FINISHED WITHOUT ERROR ***

-----------------------
CIS/TD-DFT TOTAL ENERGY
-----------------------

    E(SCF)  =  -8981.491892146 Eh
    DE(CIS) =      0.038188473 Eh (Root  1)
    ----------------------------- ---------
    E(tot)  =  -8981.453703673 Eh


-------------------------   --------------------
FINAL SINGLE POINT ENERGY     -8981.453703672953
-------------------------   --------------------


                            ***************************************
                            *     ORCA property calculations      *
                            ***************************************

                                    ---------------------
                                    Active property flags
                                    ---------------------
   (+) Dipole Moment


------------------------------------------------------------------------------
                       ORCA ELECTRIC PROPERTIES CALCULATION
------------------------------------------------------------------------------

Dipole Moment Calculation                       ... on
Quadrupole Moment Calculation                   ... off
Polarizability Calculation                      ... off
GBWName                                         ... CH1007.gbw
Electron density file                           ... CH1007.scfp
The origin for moment calculation is the CENTER OF MASS  = (18.350284, -5.223732  1.732257)

-------------
DIPOLE MOMENT
-------------
                                X             Y             Z
Electronic contribution:    -10.46988       2.15313       5.81563
Nuclear contribution   :     13.09535      -3.11091      -5.76826
                        -----------------------------------------
Total Dipole Moment    :      2.62548      -0.95778       0.04736
                        -----------------------------------------
Magnitude (a.u.)       :      2.79512
Magnitude (Debye)      :      7.10464



--------------------
Rotational spectrum 
--------------------
 
Rotational constants in cm-1:     0.001724     0.000334     0.000321 
Rotational constants in MHz :    51.688977    10.010354     9.623701 

 Dipole components along the rotational axes: 
x,y,z [a.u.] :     2.426781    -1.274532    -0.546818 
x,y,z [Debye]:     6.168386    -3.239603    -1.389901 

 

Timings for individual modules:

Sum of individual times         ...   431069.745 sec (=7184.496 min)
GTO integral calculation        ...        7.291 sec (=   0.122 min)   0.0 %
SCF iterations                  ...    18707.258 sec (= 311.788 min)   4.3 %
CIS module                      ...   412355.195 sec (=6872.587 min)  95.7 %
                             ****ORCA TERMINATED NORMALLY****
TOTAL RUN TIME: 4 days 23 hours 44 minutes 31 seconds 69 msec
