
                                 *****************
                                 * O   R   C   A *
                                 *****************

           --- An Ab Initio, DFT and Semiempirical electronic structure package ---

                  #######################################################
                  #                        -***-                        #
                  #          Department of theory and spectroscopy      #
                  #               Directorship: Frank Neese             #
                  #        Max Planck Institute fuer Kohlenforschung    #
                  #                Kaiser Wilhelm Platz 1               #
                  #                 D-45470 Muelheim/Ruhr               #
                  #                      Germany                        #
                  #                                                     #
                  #                  All rights reserved                #
                  #                        -***-                        #
                  #######################################################


                         Program Version 4.2.0 -  RELEASE  -


 With contributions from (in alphabetic order):
   Daniel Aravena         : Magnetic Suceptibility
   Michael Atanasov       : Ab Initio Ligand Field Theory (pilot matlab implementation)
   Alexander A. Auer      : GIAO ZORA, VPT2
   Ute Becker             : Parallelization
   Giovanni Bistoni       : ED, misc. LED, open-shell LED, HFLED
   Martin Brehm           : Molecular dynamics
   Dmytro Bykov           : SCF Hessian
   Vijay G. Chilkuri      : MRCI spin determinant printing, contributions to CSF-ICE
   Dipayan Datta          : RHF DLPNO-CCSD density
   Achintya Kumar Dutta   : EOM-CC, STEOM-CC
   Dmitry Ganyushin       : Spin-Orbit,Spin-Spin,Magnetic field MRCI
   Miquel Garcia          : C-PCM Hessian, Gaussian charge scheme
   Yang Guo               : DLPNO-NEVPT2, CIM, IAO-localization
   Andreas Hansen         : Spin unrestricted coupled pair/coupled cluster methods
   Benjamin Helmich-Paris : CASSCF linear response (MC-RPA)
   Lee Huntington         : MR-EOM, pCC
   Robert Izsak           : Overlap fitted RIJCOSX, COSX-SCS-MP3, EOM
   Christian Kollmar      : KDIIS, OOCD, Brueckner-CCSD(T), CCSD density
   Simone Kossmann        : Meta GGA functionals, TD-DFT gradient, OOMP2, MP2 Hessian
   Martin Krupicka        : AUTO-CI
   Lucas Lang             : DCDCAS
   Dagmar Lenk            : GEPOL surface, SMD
   Dimitrios Liakos       : Extrapolation schemes; Compound Job, initial MDCI parallelization
   Dimitrios Manganas     : Further ROCIS development; embedding schemes
   Dimitrios Pantazis     : SARC Basis sets
   Taras Petrenko         : DFT Hessian,TD-DFT gradient, ASA, ECA, R-Raman, ABS, FL, XAS/XES, NRVS
   Peter Pinski           : DLPNO-MP2, DLPNO-MP2 Gradient
   Christoph Reimann      : Effective Core Potentials
   Marius Retegan         : Local ZFS, SOC
   Christoph Riplinger    : Optimizer, TS searches, QM/MM, DLPNO-CCSD(T), (RO)-DLPNO pert. Triples
   Tobias Risthaus        : Range-separated hybrids, TD-DFT gradient, RPA, STAB
   Michael Roemelt        : Original ROCIS implementation
   Masaaki Saitow         : Open-shell DLPNO-CCSD energy and density
   Barbara Sandhoefer     : DKH picture change effects
   Avijit Sen             : IP-ROCIS
   Kantharuban Sivalingam : CASSCF convergence, NEVPT2, FIC-MRCI
   Bernardo de Souza      : ESD, SOC TD-DFT
   Georgi Stoychev        : AutoAux, RI-MP2 NMR
   Willem Van den Heuvel  : Paramagnetic NMR
   Boris Wezisla          : Elementary symmetry handling
   Frank Wennmohs         : Technical directorship


 We gratefully acknowledge several colleagues who have allowed us to
 interface, adapt or use parts of their codes:
   Stefan Grimme, W. Hujo, H. Kruse,             : VdW corrections, initial TS optimization,
                  C. Bannwarth                     DFT functionals, gCP, sTDA/sTD-DF
   Ed Valeev, F. Pavosevic, A. Kumar             : LibInt (2-el integral package), F12 methods
   Garnet Chan, S. Sharma, J. Yang, R. Olivares  : DMRG
   Ulf Ekstrom                                   : XCFun DFT Library
   Mihaly Kallay                                 : mrcc  (arbitrary order and MRCC methods)
   Andreas Klamt, Michael Diedenhofen            : otool_cosmo (COSMO solvation model)
   Jiri Pittner, Ondrej Demel                    : Mk-CCSD
   Frank Weinhold                                : gennbo (NPA and NBO analysis)
   Christopher J. Cramer and Donald G. Truhlar   : smd solvation model
   Lars Goerigk                                  : TD-DFT with DH, B97 family of functionals
   V. Asgeirsson, H. Jonsson                     : NEB implementation
   FAccTs GmbH                                   : IRC, NEB, NEB-TS, Multilevel, MM, QM/MM, CI optimization
   S Lehtola, MJT Oliveira, MAL Marques          : LibXC Library


 Your calculation uses the libint2 library for the computation of 2-el integrals
 For citations please refer to: http://libint.valeyev.net

 Your ORCA version has been built with support for libXC version: 4.2.3
 For citations please refer to: https://tddft.org/programs/libxc/

 This ORCA versions uses:
   CBLAS   interface :  Fast vector & matrix operations
   LAPACKE interface :  Fast linear algebra routines
   SCALAPACK package :  Parallel linear algebra routines


----- Orbital basis set information -----
Your calculation utilizes the basis: def2-TZVP
   F. Weigend and R. Ahlrichs, Phys. Chem. Chem. Phys. 7, 3297 (2005).

----- AuxJ basis set information -----
Your calculation utilizes the auxiliary basis: def2/J
   F. Weigend, Phys. Chem. Chem. Phys. 8, 1057 (2006).

================================================================================
                                        WARNINGS
                       Please study these warnings very carefully!
================================================================================

INFO   : Checking CIS options ...

WARNING: CIS/ROCIS methods need fully converged wavefunctions
  ===> : Setting SCFConvForced true
         You can overwrite this default with %scf ConvForced false 


INFO   : the flag for use of LIBINT has been found!

================================================================================
                                       INPUT FILE
================================================================================
NAME = CH1007.orcainp
|  1> # ORCA input file
|  2> # CH1007.out
|  3> ! B3LYP def2-TZVP def2/J RIJCOSX Grid4 TightSCF
|  4> 
|  5> %maxcore 6000
|  6> %tddft
|  7>   maxdim 5
|  8>   nroots 50
|  9>   end
| 10> %pal
| 11>   nprocs 6
| 12>   end
| 13> 
| 14> 
| 15> * xyz 0 1
| 16>    C        4.61551         0.59006         1.01237
| 17>    O        4.37956         0.96819         2.14228
| 18>    C        5.62069         1.16581         0.08985
| 19>    C        6.43396         2.26310         0.28956
| 20>    C        7.31890         2.59933        -0.72255
| 21>    F        8.12460         3.65795        -0.57305
| 22>    C        7.38018         1.84499        -1.89435
| 23>    F        8.24869         2.18968        -2.85162
| 24>    C        6.56488         0.74043        -2.09339
| 25>    C        5.67594         0.40006        -1.08634
| 26>    C        4.69659        -0.68068        -0.98589
| 27>    C        4.37260        -1.56256        -1.98398
| 28>    C        3.33887        -2.52002        -1.90556
| 29>    N        2.49836        -3.30252        -1.92090
| 30>    C        5.01216        -1.60300        -3.24057
| 31>    N        5.49989        -1.68678        -4.27589
| 32>    C        4.06649        -0.58258         0.31382
| 33>    C        3.26942        -1.54797         0.87888
| 34>    C        2.48927        -1.50077         2.04721
| 35>   Se        2.31617        -3.18318         2.95207
| 36>    C        1.32214        -2.27096         4.22871
| 37>    C        1.14695        -0.92745         3.85903
| 38>    C        1.76171        -0.49260         2.67679
| 39>    C        1.50360         0.88258         2.15904
| 40>    C        0.97000         0.90103         0.72806
| 41>    S        0.16152        -0.02483         4.99268
| 42>    C        0.01668        -1.44176         5.96527
| 43>    C        0.68858        -2.55155         5.44186
| 44>    N        0.53620        -3.63287         6.27335
| 45>    C        0.68358        -4.95102         5.69606
| 46>    C       -0.44793        -5.25015         4.71359
| 47>    C       -0.23260        -3.22220         7.35134
| 48>    C       -0.59769        -1.85890         7.15576
| 49>    C       -1.48183        -1.19183         8.03220
| 50>    N       -1.94954         0.04398         7.95202
| 51>    S       -2.98316         0.28233         9.17354
| 52>    N       -2.87098        -1.18013         9.85648
| 53>    C       -2.01970        -1.90881         9.15174
| 54>    C       -1.54603        -3.21318         9.41610
| 55>    C       -0.60312        -3.85753         8.56361
| 56>    N       -0.19480        -5.02835         9.17388
| 57>    C        0.93566        -5.88561         8.90528
| 58>    C        0.50195        -7.26727         8.41402
| 59>    C       -0.86647        -5.14217        10.36224
| 60>    C       -1.72360        -4.04793        10.52802
| 61>    S       -2.58156        -4.06430        12.02280
| 62>    C       -1.74735        -5.53749        12.47044
| 63>    C       -0.87554        -5.99818        11.46879
| 64>   Se       -0.05448        -7.58692        11.98211
| 65>    C       -0.97402        -7.39375        13.63947
| 66>    C       -1.81506        -6.28888        13.65408
| 67>    C       -2.83169        -6.00747        14.71602
| 68>    C       -2.68120        -4.61838        15.33704
| 69>    C       -0.76393        -8.40970        14.59644
| 70>    C       -0.66870        -8.24556        15.95259
| 71>    C       -0.64064        -9.29314        16.94802
| 72>    C       -0.99616       -10.60351        16.75920
| 73>    C       -0.96252       -11.58560        17.77068
| 74>    N       -0.94618       -12.42619        18.55189
| 75>    C       -1.46229       -11.13396        15.53783
| 76>    N       -1.86848       -11.62097        14.58050
| 77>    C       -0.24643        -8.68530        18.21780
| 78>    C       -0.05766        -9.23656        19.47545
| 79>    C        0.31855        -8.38907        20.50686
| 80>    F        0.50698        -8.89954        21.72854
| 81>    C        0.50810        -7.02216        20.30055
| 82>    F        0.86920        -6.24148        21.32586
| 83>    C        0.32740        -6.46529        19.04477
| 84>    C       -0.05316        -7.30791        18.01941
| 85>    C       -0.29306        -6.96932        16.59828
| 86>    O       -0.09236        -5.89804        16.06953
| 87>    H        6.38657         2.84265         1.19770
| 88>    H        6.65362         0.18601        -3.01320
| 89>    H        3.28884        -2.52435         0.40155
| 90>    H        2.43124         1.45852         2.21851
| 91>    H        0.77591         1.35870         2.82030
| 92>    H        1.69227         0.49070         0.02752
| 93>    H        0.74942         1.92376         0.43360
| 94>    H        0.05480         0.31685         0.65828
| 95>    H        0.68918        -5.70685         6.47083
| 96>    H        1.64612        -4.97377         5.16980
| 97>    H       -1.41065        -5.19530         5.21772
| 98>    H       -0.32221        -6.24800         4.30288
| 99>    H       -0.44497        -4.53668         3.89219
|100>    H        1.48469        -6.01051         9.84806
|101>    H        1.60423        -5.38710         8.20211
|102>    H        0.00956        -7.81130         9.21991
|103>    H        1.37084        -7.83786         8.09808
|104>    H       -0.19986        -7.19907         7.58567
|105>    H       -2.76763        -6.76834        15.49488
|106>    H       -3.82099        -6.08031        14.25196
|107>    H       -1.67702        -4.49086        15.73039
|108>    H       -3.39526        -4.50385        16.14864
|109>    H       -2.86790        -3.84243        14.60014
|110>    H       -0.60160        -9.40358        14.19067
|111>    H       -0.18444       -10.28642        19.68300
|112>    H        0.47728        -5.41007        18.88107
|113> *
|114> 
|115>                          ****END OF INPUT****
================================================================================

                       ****************************
                       * Single Point Calculation *
                       ****************************

---------------------------------
CARTESIAN COORDINATES (ANGSTROEM)
---------------------------------
  C      4.615510    0.590060    1.012370
  O      4.379560    0.968190    2.142280
  C      5.620690    1.165810    0.089850
  C      6.433960    2.263100    0.289560
  C      7.318900    2.599330   -0.722550
  F      8.124600    3.657950   -0.573050
  C      7.380180    1.844990   -1.894350
  F      8.248690    2.189680   -2.851620
  C      6.564880    0.740430   -2.093390
  C      5.675940    0.400060   -1.086340
  C      4.696590   -0.680680   -0.985890
  C      4.372600   -1.562560   -1.983980
  C      3.338870   -2.520020   -1.905560
  N      2.498360   -3.302520   -1.920900
  C      5.012160   -1.603000   -3.240570
  N      5.499890   -1.686780   -4.275890
  C      4.066490   -0.582580    0.313820
  C      3.269420   -1.547970    0.878880
  C      2.489270   -1.500770    2.047210
  Se     2.316170   -3.183180    2.952070
  C      1.322140   -2.270960    4.228710
  C      1.146950   -0.927450    3.859030
  C      1.761710   -0.492600    2.676790
  C      1.503600    0.882580    2.159040
  C      0.970000    0.901030    0.728060
  S      0.161520   -0.024830    4.992680
  C      0.016680   -1.441760    5.965270
  C      0.688580   -2.551550    5.441860
  N      0.536200   -3.632870    6.273350
  C      0.683580   -4.951020    5.696060
  C     -0.447930   -5.250150    4.713590
  C     -0.232600   -3.222200    7.351340
  C     -0.597690   -1.858900    7.155760
  C     -1.481830   -1.191830    8.032200
  N     -1.949540    0.043980    7.952020
  S     -2.983160    0.282330    9.173540
  N     -2.870980   -1.180130    9.856480
  C     -2.019700   -1.908810    9.151740
  C     -1.546030   -3.213180    9.416100
  C     -0.603120   -3.857530    8.563610
  N     -0.194800   -5.028350    9.173880
  C      0.935660   -5.885610    8.905280
  C      0.501950   -7.267270    8.414020
  C     -0.866470   -5.142170   10.362240
  C     -1.723600   -4.047930   10.528020
  S     -2.581560   -4.064300   12.022800
  C     -1.747350   -5.537490   12.470440
  C     -0.875540   -5.998180   11.468790
  Se    -0.054480   -7.586920   11.982110
  C     -0.974020   -7.393750   13.639470
  C     -1.815060   -6.288880   13.654080
  C     -2.831690   -6.007470   14.716020
  C     -2.681200   -4.618380   15.337040
  C     -0.763930   -8.409700   14.596440
  C     -0.668700   -8.245560   15.952590
  C     -0.640640   -9.293140   16.948020
  C     -0.996160  -10.603510   16.759200
  C     -0.962520  -11.585600   17.770680
  N     -0.946180  -12.426190   18.551890
  C     -1.462290  -11.133960   15.537830
  N     -1.868480  -11.620970   14.580500
  C     -0.246430   -8.685300   18.217800
  C     -0.057660   -9.236560   19.475450
  C      0.318550   -8.389070   20.506860
  F      0.506980   -8.899540   21.728540
  C      0.508100   -7.022160   20.300550
  F      0.869200   -6.241480   21.325860
  C      0.327400   -6.465290   19.044770
  C     -0.053160   -7.307910   18.019410
  C     -0.293060   -6.969320   16.598280
  O     -0.092360   -5.898040   16.069530
  H      6.386570    2.842650    1.197700
  H      6.653620    0.186010   -3.013200
  H      3.288840   -2.524350    0.401550
  H      2.431240    1.458520    2.218510
  H      0.775910    1.358700    2.820300
  H      1.692270    0.490700    0.027520
  H      0.749420    1.923760    0.433600
  H      0.054800    0.316850    0.658280
  H      0.689180   -5.706850    6.470830
  H      1.646120   -4.973770    5.169800
  H     -1.410650   -5.195300    5.217720
  H     -0.322210   -6.248000    4.302880
  H     -0.444970   -4.536680    3.892190
  H      1.484690   -6.010510    9.848060
  H      1.604230   -5.387100    8.202110
  H      0.009560   -7.811300    9.219910
  H      1.370840   -7.837860    8.098080
  H     -0.199860   -7.199070    7.585670
  H     -2.767630   -6.768340   15.494880
  H     -3.820990   -6.080310   14.251960
  H     -1.677020   -4.490860   15.730390
  H     -3.395260   -4.503850   16.148640
  H     -2.867900   -3.842430   14.600140
  H     -0.601600   -9.403580   14.190670
  H     -0.184440  -10.286420   19.683000
  H      0.477280   -5.410070   18.881070

----------------------------
CARTESIAN COORDINATES (A.U.)
----------------------------
  NO LB      ZA    FRAG     MASS         X           Y           Z
   0 C     6.0000    0    12.011    8.722050    1.115052    1.913102
   1 O     8.0000    0    15.999    8.276169    1.829614    4.048323
   2 C     6.0000    0    12.011   10.621565    2.203062    0.169792
   3 C     6.0000    0    12.011   12.158422    4.276639    0.547189
   4 C     6.0000    0    12.011   13.830717    4.912022   -1.365422
   5 F     9.0000    0    18.998   15.353269    6.912524   -1.082908
   6 C     6.0000    0    12.011   13.946519    3.486526   -3.579803
   7 F     9.0000    0    18.998   15.587765    4.137896   -5.388781
   8 C     6.0000    0    12.011   12.405825    1.399210   -3.955934
   9 C     6.0000    0    12.011   10.725972    0.756004   -2.052885
  10 C     6.0000    0    12.011    8.875269   -1.286299   -1.863062
  11 C     6.0000    0    12.011    8.263016   -2.952810   -3.749179
  12 C     6.0000    0    12.011    6.309550   -4.762148   -3.600987
  13 N     7.0000    0    14.007    4.721216   -6.240858   -3.629975
  14 C     6.0000    0    12.011    9.471610   -3.029231   -6.123790
  15 N     7.0000    0    14.007   10.393286   -3.187552   -8.080261
  16 C     6.0000    0    12.011    7.684552   -1.100917    0.593034
  17 C     6.0000    0    12.011    6.178308   -2.925239    1.660843
  18 C     6.0000    0    12.011    4.704039   -2.836044    3.868666
  19 Se   34.0000    0    78.960    4.376927   -6.015338    5.578604
  20 C     6.0000    0    12.011    2.498483   -4.291492    7.991104
  21 C     6.0000    0    12.011    2.167421   -1.752627    7.292510
  22 C     6.0000    0    12.011    3.329149   -0.930879    5.058400
  23 C     6.0000    0    12.011    2.841392    1.667834    4.079994
  24 C     6.0000    0    12.011    1.833034    1.702700    1.375834
  25 S    16.0000    0    32.060    0.305229   -0.046922    9.434798
  26 C     6.0000    0    12.011    0.031521   -2.724532   11.272727
  27 C     6.0000    0    12.011    1.301228   -4.821731   10.283625
  28 N     7.0000    0    14.007    1.013271   -6.865129   11.854913
  29 C     6.0000    0    12.011    1.291779   -9.356072   10.763993
  30 C     6.0000    0    12.011   -0.846465   -9.921346    8.907394
  31 C     6.0000    0    12.011   -0.439550   -6.089076   13.892019
  32 C     6.0000    0    12.011   -1.129470   -3.512812   13.522427
  33 C     6.0000    0    12.011   -2.800253   -2.252232   15.178658
  34 N     7.0000    0    14.007   -3.684097    0.083110   15.027140
  35 S    16.0000    0    32.060   -5.637355    0.533526   17.335478
  36 N     7.0000    0    14.007   -5.425366   -2.230123   18.626048
  37 C     6.0000    0    12.011   -3.816680   -3.607128   17.294282
  38 C     6.0000    0    12.011   -2.921573   -6.072030   17.793850
  39 C     6.0000    0    12.011   -1.139732   -7.289675   16.182878
  40 N     7.0000    0    14.007   -0.368119   -9.502204   17.336121
  41 C     6.0000    0    12.011    1.768141  -11.122191   16.828540
  42 C     6.0000    0    12.011    0.948548  -13.733150   15.900193
  43 C     6.0000    0    12.011   -1.637391   -9.717293   19.581796
  44 C     6.0000    0    12.011   -3.257132   -7.649479   19.895075
  45 S    16.0000    0    32.060   -4.878441   -7.680414   22.719799
  46 C     6.0000    0    12.011   -3.302013  -10.464340   23.565716
  47 C     6.0000    0    12.011   -1.654531  -11.334918   21.672872
  48 Se   34.0000    0    78.960   -0.102952  -14.337201   22.642906
  49 C     6.0000    0    12.011   -1.840631  -13.972163   25.774863
  50 C     6.0000    0    12.011   -3.429966  -11.884261   25.802472
  51 C     6.0000    0    12.011   -5.351119  -11.352473   27.809248
  52 C     6.0000    0    12.011   -5.066734   -8.727473   28.982805
  53 C     6.0000    0    12.011   -1.443618  -15.892030   27.583274
  54 C     6.0000    0    12.011   -1.263660  -15.581850   30.146026
  55 C     6.0000    0    12.011   -1.210634  -17.561490   32.027116
  56 C     6.0000    0    12.011   -1.882470  -20.037730   31.670298
  57 C     6.0000    0    12.011   -1.818899  -21.893611   33.581718
  58 N     7.0000    0    14.007   -1.788021  -23.482096   35.057991
  59 C     6.0000    0    12.011   -2.763328  -21.040135   29.362243
  60 N     7.0000    0    14.007   -3.530915  -21.960451   27.553152
  61 C     6.0000    0    12.011   -0.465685  -16.412838   34.426653
  62 C     6.0000    0    12.011   -0.108962  -17.454569   36.803267
  63 C     6.0000    0    12.011    0.601972  -15.853045   38.752349
  64 F     9.0000    0    18.998    0.958053  -16.817693   41.060990
  65 C     6.0000    0    12.011    0.960170  -13.269959   38.362480
  66 F     9.0000    0    18.998    1.642550  -11.794688   40.300035
  67 C     6.0000    0    12.011    0.618696  -12.217627   35.989400
  68 C     6.0000    0    12.011   -0.100458  -13.809949   34.051750
  69 C     6.0000    0    12.011   -0.553803  -13.170106   31.366203
  70 O     8.0000    0    15.999   -0.174535  -11.145680   30.367011
  71 H     1.0000    0     1.008   12.068868    5.371830    2.263325
  72 H     1.0000    0     1.008   12.573520    0.351508   -5.694123
  73 H     1.0000    0     1.008    6.215007   -4.770330    0.758820
  74 H     1.0000    0     1.008    4.594378    2.756203    4.192376
  75 H     1.0000    0     1.008    1.466257    2.567571    5.329595
  76 H     1.0000    0     1.008    3.197927    0.927289    0.052005
  77 H     1.0000    0     1.008    1.416199    3.635380    0.819385
  78 H     1.0000    0     1.008    0.103557    0.598760    1.243969
  79 H     1.0000    0     1.008    1.302361  -10.784384   12.228097
  80 H     1.0000    0     1.008    3.110716   -9.399063    9.769506
  81 H     1.0000    0     1.008   -2.665742   -9.817694    9.860062
  82 H     1.0000    0     1.008   -0.608889  -11.807009    8.131265
  83 H     1.0000    0     1.008   -0.840871   -8.573083    7.355173
  84 H     1.0000    0     1.008    2.805657  -11.358218   18.610136
  85 H     1.0000    0     1.008    3.031555  -10.180144   15.499742
  86 H     1.0000    0     1.008    0.018066  -14.761218   17.423105
  87 H     1.0000    0     1.008    2.590512  -14.811409   15.303153
  88 H     1.0000    0     1.008   -0.377681  -13.604271   14.334839
  89 H     1.0000    0     1.008   -5.230063  -12.790309   29.281080
  90 H     1.0000    0     1.008   -7.220625  -11.490121   26.932301
  91 H     1.0000    0     1.008   -3.169109   -8.486496   29.726129
  92 H     1.0000    0     1.008   -6.416112   -8.511043   30.516507
  93 H     1.0000    0     1.008   -5.419546   -7.261140   27.590266
  94 H     1.0000    0     1.008   -1.136859  -17.770191   26.816480
  95 H     1.0000    0     1.008   -0.348541  -19.438517   37.195479
  96 H     1.0000    0     1.008    0.901928  -10.223551   35.680051

--------------------------------
INTERNAL COORDINATES (ANGSTROEM)
--------------------------------
 C      0   0   0     0.000000000000     0.00000000     0.00000000
 O      1   0   0     1.214640402547     0.00000000     0.00000000
 C      1   2   0     1.480850446635   126.18048529     0.00000000
 C      3   1   2     1.380339639763   128.23342435   356.66359151
 C      4   3   1     1.385834069649   117.60876903   178.97194216
 F      5   4   3     1.338722915468   119.64408592   179.84669308
 C      5   4   3     1.394954950527   120.68685163   359.74748399
 F      7   5   4     1.337716961506   119.36069293   180.30958345
 C      7   5   4     1.387221613586   121.68750616     0.10985750
 C      9   7   5     1.385718500634   117.92589740     0.00000000
 C     10   9   7     1.461921876367   131.39620687   179.80280959
 C     11  10   9     1.370717149014   125.72736486   354.00197142
 C     12  11  10     1.411197031211   124.69372494   186.06118427
 N     13  12  11     1.148476654399   176.04641390   159.87081564
 C     12  11  10     1.410564006098   124.05189566     4.28626641
 N     15  12  11     1.147513461228   176.91367202   173.68578342
 C     11  10   9     1.447720865395   107.64747862   178.27316714
 C     17  11  10     1.373532395177   125.04895393   192.20202930
 C     18  17  11     1.405651753245   129.82237777   188.24964369
 Se    19  18  17     1.918134155293   114.37632477   211.16575099
 C     20  19  18     1.857431198968    86.66147216   178.12237948
 C     21  20  19     1.404412317875   110.83385553     3.51179568
 C     19  18  17     1.393600114416   133.59360653    33.98415525
 C     23  19  18     1.491913491795   126.89615761     6.52281865
 C     24  23  19     1.527341848736   113.37325394    50.15905191
 S     22  21  20     1.752414754503   113.11627059   177.72277028
 C     26  22  21     1.724703034902    89.36221343     0.98831077
 C     21  20  19     1.397090528277   137.80611644   182.51207355
 N     28  21  20     1.372533506658   137.27504357     2.11445574
 C     29  28  21     1.446549007466   117.69865531   336.56968187
 C     30  29  28     1.528084074225   111.07088515   292.80123535
 C     29  28  21     1.386277652204   107.41367413   179.87693298
 C     27  26  22     1.403111797613   139.41829287   180.82263379
 C     33  27  26     1.412385569914   131.31432766     4.77871470
 N     34  33  27     1.323785417883   128.64530773   358.86517593
 S     35  34  33     1.617804727802   108.51411327   177.27123255
 N     36  35  34     1.617955700135    98.11949987     0.19343894
 C     37  36  35     1.323748710443   108.50773627   359.97586076
 C     38  37  36     1.412667892818   128.62836709   175.65090659
 C     32  29  28     1.417930827720   132.61034892   186.77338041
 N     40  32  29     1.382018150279   132.83750953     9.83093650
 C     41  40  32     1.443946148303   130.70252637    13.29883423
 C     42  41  40     1.529190997652   111.97048059   245.11776013
 C     41  40  32     1.369779205164   107.97579232   178.50587799
 C     44  41  40     1.399827140364   109.75725895     0.37370551
 S     45  44  41     1.723580745686   113.58307908   181.96523697
 C     46  45  44     1.751164375437    89.57327088     1.70671360
 C     44  41  40     1.399031196042   137.74891546   184.85618373
 Se    48  44  41     1.860572958419   137.54602261   355.13402016
 C     49  48  44     1.905179946908    86.58520799   177.38216634
 C     50  49  48     1.388632222945   112.46687174     3.20557118
 C     51  50  49     1.496811514052   124.63979149   169.20502002
 C     52  51  50     1.529014096927   113.08575024   125.97701937
 C     50  49  48     1.411411985035   116.42344187   179.46510163
 C     54  50  49     1.369362448368   126.55198422   143.07450038
 C     55  54  50     1.445369193286   126.62185624   170.71591817
 C     56  55  54     1.370808885184   126.36511440   344.48267902
 C     57  56  55     1.410221333018   124.10565746   180.64633116
 N     58  57  56     1.147670513606   177.00786767   188.65339121
 C     57  56  55     1.410815032632   124.35696223   359.52175405
 N     60  57  56     1.148324773355   176.42766800   198.68372132
 C     56  55  54     1.461920735916   107.58194934   168.07493427
 C     62  56  55     1.386075475218   131.25835416   180.57815541
 C     63  62  56     1.386931812419   117.94850646   180.26334886
 F     64  63  62     1.337380838879   118.96722858   180.03751447
 C     64  63  62     1.395326473160   121.70202913   359.85810790
 F     66  64  63     1.338325471812   119.65812012   179.89405934
 C     66  64  63     1.385546857851   120.66525791   359.83641279
 C     68  66  64     1.380651117263   117.63037678     0.45190783
 C     55  54  50     1.478786503624   123.60991185   337.26020660
 O     70  55  54     1.211403273440   127.93073245     4.34584392
 H      4   3   1     1.078351646820   121.54621782   358.90698245
 H      9   7   5     1.077639438820   118.92840034   180.36955749
 H     18  17  11     1.086986186527   116.12369365    13.15660554
 H     24  23  19     1.093507903081   108.65340848   287.61607962
 H     24  23  19     1.092468662297   107.87253442   171.22948362
 H     25  24  23     1.086646655266   111.54489450   296.80426814
 H     25  24  23     1.086894144294   109.63912809   176.73104816
 H     25  24  23     1.087991985632   110.33349565    57.30140608
 H     30  29  28     1.082394984190   110.55950667   171.52414358
 H     30  29  28     1.097246736928   107.43812882    52.78330048
 H     31  30  29     1.088110921644   110.32825105   300.63432423
 H     31  30  29     1.086366809600   109.70533019   180.66561942
 H     31  30  29     1.088000993796   110.79431345    60.94759287
 H     42  41  40     1.098120248106   107.41251610   126.28009096
 H     42  41  40     1.090846512531   109.17322446    10.12628648
 H     43  42  41     1.089896896546   109.97387998   291.72999458
 H     43  42  41     1.086444137450   109.94489164   172.55286058
 H     43  42  41     1.087819947694   111.77490283    51.21605120
 H     52  51  50     1.090710658287   109.60769475     3.16966655
 H     52  51  50     1.095158362612   107.48239499   246.01611947
 H     53  52  51     1.085984827380   110.16952910   304.10545627
 H     53  52  51     1.087057203877   109.53015137   184.28998638
 H     53  52  51     1.086267417582   110.88617667    64.49752469
 H     54  50  49     1.085724539743   115.32652926   327.20729352
 H     63  62  56     1.077662373148   123.10524944     0.59467262
 H     68  66  64     1.078309302937   120.84874731   180.26992447

---------------------------
INTERNAL COORDINATES (A.U.)
---------------------------
 C      0   0   0     0.000000000000     0.00000000     0.00000000
 O      1   0   0     2.295337712010     0.00000000     0.00000000
 C      1   2   0     2.798401789436   126.18048529     0.00000000
 C      3   1   2     2.608463890947   128.23342435   356.66359151
 C      4   3   1     2.618846858694   117.60876903   178.97194216
 F      5   4   3     2.529819679440   119.64408592   179.84669308
 C      5   4   3     2.636082825654   120.68685163   359.74748399
 F      7   5   4     2.527918701947   119.36069293   180.30958345
 C      7   5   4     2.621468936734   121.68750616     0.10985750
 C      9   7   5     2.618628464907   117.92589740     0.00000000
 C     10   9   7     2.762631975522   131.39620687   179.80280959
 C     11  10   9     2.590280018705   125.72736486   354.00197142
 C     12  11  10     2.666775909992   124.69372494   186.06118427
 N     13  12  11     2.170306348017   176.04641390   159.87081564
 C     12  11  10     2.665579665893   124.05189566     4.28626641
 N     15  12  11     2.168486176709   176.91367202   173.68578342
 C     11  10   9     2.735795953960   107.64747862   178.27316714
 C     17  11  10     2.595600062953   125.04895393   192.20202930
 C     18  17  11     2.656296853299   129.82237777   188.24964369
 Se    19  18  17     3.624748241623   114.37632477   211.16575099
 C     20  19  18     3.510036278651    86.66147216   178.12237948
 C     21  20  19     2.653954659890   110.83385553     3.51179568
 C     19  18  17     2.633522556447   133.59360653    33.98415525
 C     23  19  18     2.819307914995   126.89615761     6.52281865
 C     24  23  19     2.886257806988   113.37325394    50.15905191
 S     22  21  20     3.311583959054   113.11627059   177.72277028
 C     26  22  21     3.259216398308    89.36221343     0.98831077
 C     21  20  19     2.640118482738   137.80611644   182.51207355
 N     28  21  20     2.593712437215   137.27504357     2.11445574
 C     29  28  21     2.733581463406   117.69865531   336.56968187
 C     30  29  28     2.887660409892   111.07088515   292.80123535
 C     29  28  21     2.619685108241   107.41367413   179.87693298
 C     27  26  22     2.651497032762   139.41829287   180.82263379
 C     33  27  26     2.669021922639   131.31432766     4.77871470
 N     34  33  27     2.501591899878   128.64530773   358.86517593
 S     35  34  33     3.057207873710   108.51411327   177.27123255
 N     36  35  34     3.057493170072    98.11949987     0.19343894
 C     37  36  35     2.501522532869   108.50773627   359.97586076
 C     38  37  36     2.669555435610   128.62836709   175.65090659
 C     32  29  28     2.679500941236   132.61034892   186.77338041
 N     40  32  29     2.611635816135   132.83750953     9.83093650
 C     41  40  32     2.728662772424   130.70252637    13.29883423
 C     42  41  40     2.889752192020   111.97048059   245.11776013
 C     41  40  32     2.588507561700   107.97579232   178.50587799
 C     44  41  40     2.645289930118   109.75725895     0.37370551
 S     45  44  41     3.257095579047   113.58307908   181.96523697
 C     46  45  44     3.309221085055    89.57327088     1.70671360
 C     44  41  40     2.643785813333   137.74891546   184.85618373
 Se    48  44  41     3.515973343592   137.54602261   355.13402016
 C     49  48  44     3.600268335495    86.58520799   177.38216634
 C     50  49  48     2.624134602104   112.46687174     3.20557118
 C     51  50  49     2.828563835659   124.63979149   169.20502002
 C     52  51  50     2.889417898096   113.08575024   125.97701937
 C     50  49  48     2.667182113850   116.42344187   179.46510163
 C     54  50  49     2.587720005491   126.55198422   143.07450038
 C     55  54  50     2.731351937717   126.62185624   170.71591817
 C     56  55  54     2.590453374944   126.36511440   344.48267902
 C     57  56  55     2.664932107618   124.10565746   180.64633116
 N     58  57  56     2.168782962692   177.00786767   188.65339121
 C     57  56  55     2.666054037293   124.35696223   359.52175405
 N     60  57  56     2.170019334437   176.42766800   198.68372132
 C     56  55  54     2.762629820381   107.58194934   168.07493427
 C     62  56  55     2.619303049106   131.25835416   180.57815541
 C     63  62  56     2.620921291895   117.94850646   180.26334886
 F     64  63  62     2.527283522235   118.96722858   180.03751447
 C     64  63  62     2.636784901682   121.70202913   359.85810790
 F     66  64  63     2.529068619775   119.65812012   179.89405934
 C     66  64  63     2.618304107053   120.66525791   359.83641279
 C     68  66  64     2.609052498120   117.63037678     0.45190783
 C     55  54  50     2.794501502388   123.60991185   337.26020660
 O     70  55  54     2.289220424536   127.93073245     4.34584392
 H      4   3   1     2.037789288553   121.54621782   358.90698245
 H      9   7   5     2.036443410482   118.92840034   180.36955749
 H     18  17  11     2.054106203891   116.12369365    13.15660554
 H     24  23  19     2.066430462101   108.65340848   287.61607962
 H     24  23  19     2.064466581632   107.87253442   171.22948362
 H     25  24  23     2.053464582794   111.54489450   296.80426814
 H     25  24  23     2.053932269278   109.63912809   176.73104816
 H     25  24  23     2.056006888746   110.33349565    57.30140608
 H     30  29  28     2.045430088849   110.55950667   171.52414358
 H     30  29  28     2.073495834133   107.43812882    52.78330048
 H     31  30  29     2.056231645235   110.32825105   300.63432423
 H     31  30  29     2.052935751125   109.70533019   180.66561942
 H     31  30  29     2.056023911708   110.79431345    60.94759287
 H     42  41  40     2.075146531034   107.41251610   126.28009096
 H     42  41  40     2.061401162826   109.17322446    10.12628648
 H     43  42  41     2.059606648682   109.97387998   291.72999458
 H     43  42  41     2.053081879585   109.94489164   172.55286058
 H     43  42  41     2.055681784157   111.77490283    51.21605120
 H     52  51  50     2.061144435511   109.60769475     3.16966655
 H     52  51  50     2.069549378611   107.48239499   246.01611947
 H     53  52  51     2.052213909342   110.16952910   304.10545627
 H     53  52  51     2.054240407233   109.53015137   184.28998638
 H     53  52  51     2.052747927432   110.88617667    64.49752469
 H     54  50  49     2.051722036992   115.32652926   327.20729352
 H     63  62  56     2.036486750082   123.10524944     0.59467262
 H     68  66  64     2.037709270210   120.84874731   180.26992447

---------------------
BASIS SET INFORMATION
---------------------
There are 7 groups of distinct atoms

 Group   1 Type C   : 11s6p2d1f contracted to 5s3p2d1f pattern {62111/411/11/1}
 Group   2 Type O   : 11s6p2d1f contracted to 5s3p2d1f pattern {62111/411/11/1}
 Group   3 Type F   : 11s6p2d1f contracted to 5s3p2d1f pattern {62111/411/11/1}
 Group   4 Type N   : 11s6p2d1f contracted to 5s3p2d1f pattern {62111/411/11/1}
 Group   5 Type Se  : 17s13p8d1f contracted to 6s5p4d1f pattern {842111/64111/5111/1}
 Group   6 Type S   : 14s9p3d1f contracted to 5s5p2d1f pattern {73211/51111/21/1}
 Group   7 Type H   : 5s1p contracted to 3s1p pattern {311/1}

Atom   0C    basis set group =>   1
Atom   1O    basis set group =>   2
Atom   2C    basis set group =>   1
Atom   3C    basis set group =>   1
Atom   4C    basis set group =>   1
Atom   5F    basis set group =>   3
Atom   6C    basis set group =>   1
Atom   7F    basis set group =>   3
Atom   8C    basis set group =>   1
Atom   9C    basis set group =>   1
Atom  10C    basis set group =>   1
Atom  11C    basis set group =>   1
Atom  12C    basis set group =>   1
Atom  13N    basis set group =>   4
Atom  14C    basis set group =>   1
Atom  15N    basis set group =>   4
Atom  16C    basis set group =>   1
Atom  17C    basis set group =>   1
Atom  18C    basis set group =>   1
Atom  19Se   basis set group =>   5
Atom  20C    basis set group =>   1
Atom  21C    basis set group =>   1
Atom  22C    basis set group =>   1
Atom  23C    basis set group =>   1
Atom  24C    basis set group =>   1
Atom  25S    basis set group =>   6
Atom  26C    basis set group =>   1
Atom  27C    basis set group =>   1
Atom  28N    basis set group =>   4
Atom  29C    basis set group =>   1
Atom  30C    basis set group =>   1
Atom  31C    basis set group =>   1
Atom  32C    basis set group =>   1
Atom  33C    basis set group =>   1
Atom  34N    basis set group =>   4
Atom  35S    basis set group =>   6
Atom  36N    basis set group =>   4
Atom  37C    basis set group =>   1
Atom  38C    basis set group =>   1
Atom  39C    basis set group =>   1
Atom  40N    basis set group =>   4
Atom  41C    basis set group =>   1
Atom  42C    basis set group =>   1
Atom  43C    basis set group =>   1
Atom  44C    basis set group =>   1
Atom  45S    basis set group =>   6
Atom  46C    basis set group =>   1
Atom  47C    basis set group =>   1
Atom  48Se   basis set group =>   5
Atom  49C    basis set group =>   1
Atom  50C    basis set group =>   1
Atom  51C    basis set group =>   1
Atom  52C    basis set group =>   1
Atom  53C    basis set group =>   1
Atom  54C    basis set group =>   1
Atom  55C    basis set group =>   1
Atom  56C    basis set group =>   1
Atom  57C    basis set group =>   1
Atom  58N    basis set group =>   4
Atom  59C    basis set group =>   1
Atom  60N    basis set group =>   4
Atom  61C    basis set group =>   1
Atom  62C    basis set group =>   1
Atom  63C    basis set group =>   1
Atom  64F    basis set group =>   3
Atom  65C    basis set group =>   1
Atom  66F    basis set group =>   3
Atom  67C    basis set group =>   1
Atom  68C    basis set group =>   1
Atom  69C    basis set group =>   1
Atom  70O    basis set group =>   2
Atom  71H    basis set group =>   7
Atom  72H    basis set group =>   7
Atom  73H    basis set group =>   7
Atom  74H    basis set group =>   7
Atom  75H    basis set group =>   7
Atom  76H    basis set group =>   7
Atom  77H    basis set group =>   7
Atom  78H    basis set group =>   7
Atom  79H    basis set group =>   7
Atom  80H    basis set group =>   7
Atom  81H    basis set group =>   7
Atom  82H    basis set group =>   7
Atom  83H    basis set group =>   7
Atom  84H    basis set group =>   7
Atom  85H    basis set group =>   7
Atom  86H    basis set group =>   7
Atom  87H    basis set group =>   7
Atom  88H    basis set group =>   7
Atom  89H    basis set group =>   7
Atom  90H    basis set group =>   7
Atom  91H    basis set group =>   7
Atom  92H    basis set group =>   7
Atom  93H    basis set group =>   7
Atom  94H    basis set group =>   7
Atom  95H    basis set group =>   7
Atom  96H    basis set group =>   7
---------------------------------
AUXILIARY/J BASIS SET INFORMATION
---------------------------------
There are 7 groups of distinct atoms

 Group   1 Type C   : 12s5p4d2f1g contracted to 6s4p3d1f1g pattern {711111/2111/211/2/1}
 Group   2 Type O   : 12s5p4d2f1g contracted to 6s4p3d1f1g pattern {711111/2111/211/2/1}
 Group   3 Type F   : 12s5p4d2f1g contracted to 6s4p3d1f1g pattern {711111/2111/211/2/1}
 Group   4 Type N   : 12s5p4d2f1g contracted to 6s4p3d1f1g pattern {711111/2111/211/2/1}
 Group   5 Type Se  : 19s5p5d3f1g contracted to 8s4p3d2f1g pattern {121111111/2111/311/21/1}
 Group   6 Type S   : 14s5p5d2f1g contracted to 8s4p3d1f1g pattern {71111111/2111/311/2/1}
 Group   7 Type H   : 5s2p1d contracted to 3s1p1d pattern {311/2/1}

Atom   0C    basis set group =>   1
Atom   1O    basis set group =>   2
Atom   2C    basis set group =>   1
Atom   3C    basis set group =>   1
Atom   4C    basis set group =>   1
Atom   5F    basis set group =>   3
Atom   6C    basis set group =>   1
Atom   7F    basis set group =>   3
Atom   8C    basis set group =>   1
Atom   9C    basis set group =>   1
Atom  10C    basis set group =>   1
Atom  11C    basis set group =>   1
Atom  12C    basis set group =>   1
Atom  13N    basis set group =>   4
Atom  14C    basis set group =>   1
Atom  15N    basis set group =>   4
Atom  16C    basis set group =>   1
Atom  17C    basis set group =>   1
Atom  18C    basis set group =>   1
Atom  19Se   basis set group =>   5
Atom  20C    basis set group =>   1
Atom  21C    basis set group =>   1
Atom  22C    basis set group =>   1
Atom  23C    basis set group =>   1
Atom  24C    basis set group =>   1
Atom  25S    basis set group =>   6
Atom  26C    basis set group =>   1
Atom  27C    basis set group =>   1
Atom  28N    basis set group =>   4
Atom  29C    basis set group =>   1
Atom  30C    basis set group =>   1
Atom  31C    basis set group =>   1
Atom  32C    basis set group =>   1
Atom  33C    basis set group =>   1
Atom  34N    basis set group =>   4
Atom  35S    basis set group =>   6
Atom  36N    basis set group =>   4
Atom  37C    basis set group =>   1
Atom  38C    basis set group =>   1
Atom  39C    basis set group =>   1
Atom  40N    basis set group =>   4
Atom  41C    basis set group =>   1
Atom  42C    basis set group =>   1
Atom  43C    basis set group =>   1
Atom  44C    basis set group =>   1
Atom  45S    basis set group =>   6
Atom  46C    basis set group =>   1
Atom  47C    basis set group =>   1
Atom  48Se   basis set group =>   5
Atom  49C    basis set group =>   1
Atom  50C    basis set group =>   1
Atom  51C    basis set group =>   1
Atom  52C    basis set group =>   1
Atom  53C    basis set group =>   1
Atom  54C    basis set group =>   1
Atom  55C    basis set group =>   1
Atom  56C    basis set group =>   1
Atom  57C    basis set group =>   1
Atom  58N    basis set group =>   4
Atom  59C    basis set group =>   1
Atom  60N    basis set group =>   4
Atom  61C    basis set group =>   1
Atom  62C    basis set group =>   1
Atom  63C    basis set group =>   1
Atom  64F    basis set group =>   3
Atom  65C    basis set group =>   1
Atom  66F    basis set group =>   3
Atom  67C    basis set group =>   1
Atom  68C    basis set group =>   1
Atom  69C    basis set group =>   1
Atom  70O    basis set group =>   2
Atom  71H    basis set group =>   7
Atom  72H    basis set group =>   7
Atom  73H    basis set group =>   7
Atom  74H    basis set group =>   7
Atom  75H    basis set group =>   7
Atom  76H    basis set group =>   7
Atom  77H    basis set group =>   7
Atom  78H    basis set group =>   7
Atom  79H    basis set group =>   7
Atom  80H    basis set group =>   7
Atom  81H    basis set group =>   7
Atom  82H    basis set group =>   7
Atom  83H    basis set group =>   7
Atom  84H    basis set group =>   7
Atom  85H    basis set group =>   7
Atom  86H    basis set group =>   7
Atom  87H    basis set group =>   7
Atom  88H    basis set group =>   7
Atom  89H    basis set group =>   7
Atom  90H    basis set group =>   7
Atom  91H    basis set group =>   7
Atom  92H    basis set group =>   7
Atom  93H    basis set group =>   7
Atom  94H    basis set group =>   7
Atom  95H    basis set group =>   7
Atom  96H    basis set group =>   7


           ************************************************************
           *        Program running with 6 parallel MPI-processes     *
           *              working on a common directory               *
           ************************************************************
------------------------------------------------------------------------------
                           ORCA GTO INTEGRAL CALCULATION
                           -- RI-GTO INTEGRALS CHOSEN --
------------------------------------------------------------------------------

                         BASIS SET STATISTICS AND STARTUP INFO

Gaussian basis set:
 # of primitive gaussian shells          ... 1635
 # of primitive gaussian functions       ... 3639
 # of contracted shells                  ...  901
 # of contracted basis functions         ... 2409
 Highest angular momentum                ...    3
 Maximum contraction depth               ...    8
Auxiliary gaussian basis set:
 # of primitive gaussian shells          ... 1939
 # of primitive gaussian functions       ... 5445
 # of contracted shells                  ... 1207
 # of contracted aux-basis functions     ... 3789
 Highest angular momentum                ...    4
 Maximum contraction depth               ...   12
Ratio of auxiliary to basis functions    ...  1.57
Integral package used                  ... LIBINT
 One Electron integrals                  ... done
 Ordering auxiliary basis shells         ... done
 Integral threshhold             Thresh  ...  2.500e-11
 Primitive cut-off               TCut    ...  2.500e-12
 Pre-screening matrix                    ... done
 Shell pair data                         ... 
 Ordering of the shell pairs             ... done (   0.031 sec) 133626 of 406351 pairs
 Determination of significant pairs      ... done (   0.001 sec)
 Creation of shell pair data             ... done (   0.016 sec)
 Storage of shell pair data              ... done (   0.025 sec)
 Shell pair data done in (   0.072 sec)
 Computing two index integrals           ... done
 Cholesky decomposition of the V-matrix  ... done


Timings:
 Total evaluation time                   ...   6.950 sec (  0.116 min)
 One electron matrix time                ...   2.199 sec (  0.037 min) = 31.6%
 Schwartz matrix evaluation time         ...   3.759 sec (  0.063 min) = 54.1%
 Two index repulsion integral time       ...   0.342 sec (  0.006 min) =  4.9%
 Cholesky decomposition of V             ...   0.560 sec (  0.009 min) =  8.1%
 Three index repulsion integral time     ...   0.000 sec (  0.000 min) =  0.0%



           ************************************************************
           *        Program running with 6 parallel MPI-processes     *
           *              working on a common directory               *
           ************************************************************
-------------------------------------------------------------------------------
                                 ORCA SCF
-------------------------------------------------------------------------------

------------
SCF SETTINGS
------------
Hamiltonian:
 Density Functional     Method          .... DFT(GTOs)
 Exchange Functional    Exchange        .... B88
   X-Alpha parameter    XAlpha          ....  0.666667
   Becke's b parameter  XBeta           ....  0.004200
 Correlation Functional Correlation     .... LYP
 LDA part of GGA corr.  LDAOpt          .... VWN-5
 Gradients option       PostSCFGGA      .... off
 Hybrid DFT is turned on
   Fraction HF Exchange ScalHFX         ....  0.200000
   Scaling of DF-GGA-X  ScalDFX         ....  0.720000
   Scaling of DF-GGA-C  ScalDFC         ....  0.810000
   Scaling of DF-LDA-C  ScalLDAC        ....  1.000000
   Perturbative correction              ....  0.000000
   Density functional embedding theory  .... OFF
   NL short-range parameter             ....  4.800000
 RI-approximation to the Coulomb term is turned on
   Number of auxiliary basis functions  .... 3789
   RIJ-COSX (HFX calculated with COS-X)).... on


General Settings:
 Integral files         IntName         .... CH1007.orcainp
 Hartree-Fock type      HFTyp           .... RHF
 Total Charge           Charge          ....    0
 Multiplicity           Mult            ....    1
 Number of Electrons    NEL             ....  562
 Basis Dimension        Dim             .... 2409
 Nuclear Repulsion      ENuc            ....  12282.0776332075 Eh

Convergence Acceleration:
 DIIS                   CNVDIIS         .... on
   Start iteration      DIISMaxIt       ....    12
   Startup error        DIISStart       ....  0.200000
   # of expansion vecs  DIISMaxEq       ....     5
   Bias factor          DIISBfac        ....   1.050
   Max. coefficient     DIISMaxC        ....  10.000
 Newton-Raphson         CNVNR           .... off
 SOSCF                  CNVSOSCF        .... on
   Start iteration      SOSCFMaxIt      ....   150
   Startup grad/error   SOSCFStart      ....  0.003300
 Level Shifting         CNVShift        .... on
   Level shift para.    LevelShift      ....    0.2500
   Turn off err/grad.   ShiftErr        ....    0.0010
 Zerner damping         CNVZerner       .... off
 Static damping         CNVDamp         .... on
   Fraction old density DampFac         ....    0.7000
   Max. Damping (<1)    DampMax         ....    0.9800
   Min. Damping (>=0)   DampMin         ....    0.0000
   Turn off err/grad.   DampErr         ....    0.1000
 Fernandez-Rico         CNVRico         .... off

SCF Procedure:
 Maximum # iterations   MaxIter         ....   125
 SCF integral mode      SCFMode         .... Direct
   Integral package                     .... LIBINT
 Reset frequency        DirectResetFreq ....    20
 Integral Threshold     Thresh          ....  2.500e-11 Eh
 Primitive CutOff       TCut            ....  2.500e-12 Eh

Convergence Tolerance:
 Convergence Check Mode ConvCheckMode   .... Total+1el-Energy
 Convergence forced     ConvForced      .... 1
 Energy Change          TolE            ....  1.000e-08 Eh
 1-El. energy change                    ....  1.000e-05 Eh
 Orbital Gradient       TolG            ....  1.000e-05
 Orbital Rotation angle TolX            ....  1.000e-05
 DIIS Error             TolErr          ....  5.000e-07


Diagonalization of the overlap matrix:
Smallest eigenvalue                        ... 3.038e-06
Time for diagonalization                   ...    1.056 sec
Threshold for overlap eigenvalues          ... 1.000e-08
Number of eigenvalues below threshold      ... 0
Time for construction of square roots      ...    0.785 sec
Total time needed                          ...    1.855 sec

-------------------
DFT GRID GENERATION
-------------------

General Integration Accuracy     IntAcc      ...  4.670
Radial Grid Type                 RadialGrid  ... Gauss-Chebyshev
Angular Grid (max. acc.)         AngularGrid ... Lebedev-302
Angular grid pruning method      GridPruning ... 3 (G Style)
Weight generation scheme         WeightScheme... Becke
Basis function cutoff            BFCut       ...    1.0000e-11
Integration weight cutoff        WCut        ...    1.0000e-14
Grids for H and He will be reduced by one unit

# of grid points (after initial pruning)     ... 538294 (   0.0 sec)
# of grid points (after weights+screening)   ... 460714 (   6.5 sec)
nearest neighbour list constructed           ...    0.0 sec
Grid point re-assignment to atoms done       ...    0.1 sec
Grid point division into batches done        ...    1.7 sec
Reduced shell lists constructed in    3.5 sec

Total number of grid points                  ...   460714
Total number of batches                      ...     7246
Average number of points per batch           ...       63
Average number of grid points per atom       ...     4750
Average number of shells per batch           ...   137.14 (15.22%)
Average number of basis functions per batch  ...   358.64 (14.89%)
Average number of large shells per batch     ...    88.02 (64.18%)
Average number of large basis fcns per batch ...   233.12 (65.00%)
Maximum spatial batch extension              ...  15.99, 18.93, 22.80 au
Average spatial batch extension              ...   0.37,  0.37,  0.37 au

Time for grid setup =   10.665 sec

------------------------------
INITIAL GUESS: MODEL POTENTIAL
------------------------------
Loading Hartree-Fock densities                     ... done
Calculating cut-offs                               ... done
Setting up the integral package                    ... done
Initializing the effective Hamiltonian             ... done
Starting the Coulomb interaction                   ... done (   4.4 sec)
Reading the grid                                   ... done
Mapping shells                                     ... done
Starting the XC term evaluation                    ... done (   4.5 sec)
  promolecular density results
     # of electrons  =    561.986840446
     EX              =   -630.990151956
     EC              =    -20.874140039
     EX+EC           =   -651.864291995
Transforming the Hamiltonian                       ... done (   0.6 sec)
Diagonalizing the Hamiltonian                      ... done (   1.1 sec)
Back transforming the eigenvectors                 ... done (   0.3 sec)
Now organizing SCF variables                       ... done
                      ------------------
                      INITIAL GUESS DONE (  21.8 sec)
                      ------------------
--------------------
COSX GRID GENERATION
--------------------

General Integration Accuracy     IntAcc      ...  3.340
Radial Grid Type                 RadialGrid  ... Gauss-Chebyshev
Angular Grid (max. acc.)         AngularGrid ... Lebedev-50
Angular grid pruning method      GridPruning ... 3 (G Style)
Weight generation scheme         WeightScheme... Becke
Basis function cutoff            BFCut       ...    1.0000e-11
Integration weight cutoff        WCut        ...    1.0000e-14
Grids for H and He will be reduced by one unit

# of grid points (after initial pruning)     ...  50690 (   0.0 sec)
# of grid points (after weights+screening)   ...  45352 (   0.6 sec)
nearest neighbour list constructed           ...    0.0 sec
Grid point re-assignment to atoms done       ...    0.0 sec
Grid point division into batches done        ...    0.0 sec
Reduced shell lists constructed in    0.2 sec

Total number of grid points                  ...    45352
Total number of batches                      ...      760
Average number of points per batch           ...       59
Average number of grid points per atom       ...      468
Average number of shells per batch           ...   166.23 (18.45%)
Average number of basis functions per batch  ...   439.24 (18.23%)
Average number of large shells per batch     ...   107.86 (64.89%)
Average number of large basis fcns per batch ...   289.38 (65.88%)
Maximum spatial batch extension              ...  16.01, 19.57, 17.85 au
Average spatial batch extension              ...   0.77,  0.74,  0.71 au

Overlap Fitting                  UseSFitting ... on
Constructing numerical overlap ... done (      0.3 sec)
Inverting numerical overlap    ... done (      0.3 sec)
Obtaining analytic overlap     ... done (      0.0 sec)
Final contraction and storage  ... done (      0.5 sec)


General Integration Accuracy     IntAcc      ...  3.670
Radial Grid Type                 RadialGrid  ... Gauss-Chebyshev
Angular Grid (max. acc.)         AngularGrid ... Lebedev-50
Angular grid pruning method      GridPruning ... 3 (G Style)
Weight generation scheme         WeightScheme... Becke
Basis function cutoff            BFCut       ...    1.0000e-11
Integration weight cutoff        WCut        ...    1.0000e-14
Grids for H and He will be reduced by one unit

# of grid points (after initial pruning)     ...  63050 (   0.0 sec)
# of grid points (after weights+screening)   ...  56175 (   0.7 sec)
nearest neighbour list constructed           ...    0.0 sec
Grid point re-assignment to atoms done       ...    0.0 sec
Grid point division into batches done        ...    0.0 sec
Reduced shell lists constructed in    0.3 sec

Total number of grid points                  ...    56175
Total number of batches                      ...      933
Average number of points per batch           ...       60
Average number of grid points per atom       ...      579
Average number of shells per batch           ...   162.33 (18.02%)
Average number of basis functions per batch  ...   429.07 (17.81%)
Average number of large shells per batch     ...   105.25 (64.84%)
Average number of large basis fcns per batch ...   281.77 (65.67%)
Maximum spatial batch extension              ...  18.61, 18.04, 19.62 au
Average spatial batch extension              ...   0.77,  0.73,  0.74 au

Overlap Fitting                  UseSFitting ... on
Constructing numerical overlap ... done (      0.4 sec)
Inverting numerical overlap    ... done (      0.3 sec)
Obtaining analytic overlap     ... done (      0.0 sec)
Final contraction and storage  ... done (      0.5 sec)


General Integration Accuracy     IntAcc      ...  4.010
Radial Grid Type                 RadialGrid  ... Gauss-Chebyshev
Angular Grid (max. acc.)         AngularGrid ... Lebedev-110
Angular grid pruning method      GridPruning ... 3 (G Style)
Weight generation scheme         WeightScheme... Becke
Basis function cutoff            BFCut       ...    1.0000e-11
Integration weight cutoff        WCut        ...    1.0000e-14
Grids for H and He will be reduced by one unit

# of grid points (after initial pruning)     ... 124208 (   0.0 sec)
# of grid points (after weights+screening)   ... 109612 (   1.5 sec)
nearest neighbour list constructed           ...    0.0 sec
Grid point re-assignment to atoms done       ...    0.0 sec
Grid point division into batches done        ...    0.1 sec
Reduced shell lists constructed in    0.6 sec

Total number of grid points                  ...   109612
Total number of batches                      ...     1760
Average number of points per batch           ...       62
Average number of grid points per atom       ...     1130
Average number of shells per batch           ...   154.86 (17.19%)
Average number of basis functions per batch  ...   408.33 (16.95%)
Average number of large shells per batch     ...   100.57 (64.94%)
Average number of large basis fcns per batch ...   268.76 (65.82%)
Maximum spatial batch extension              ...  20.02, 17.52, 19.16 au
Average spatial batch extension              ...   0.60,  0.60,  0.57 au

Overlap Fitting                  UseSFitting ... on
Constructing numerical overlap ... done (      0.6 sec)
Inverting numerical overlap    ... done (      0.3 sec)
Obtaining analytic overlap     ... done (      0.0 sec)
Final contraction and storage  ... done (      0.5 sec)

Time for X-Grid setup             =    8.357 sec
--------------
SCF ITERATIONS
--------------
ITER       Energy         Delta-E        Max-DP      RMS-DP      [F,P]     Damp
               ***  Starting incremental Fock matrix formation  ***
  0  -8979.7918857102   0.000000000000 0.18335803  0.00104837  0.2982975 0.7000
  1  -8980.7219753578  -0.930089647623 0.15906600  0.00084626  0.1016286 0.7000
                               ***Turning on DIIS***
  2  -8981.0322343165  -0.310258958703 0.22232869  0.00118246  0.0439337 0.0000
  3  -8981.5683125300  -0.536078213478 0.17067508  0.00079229  0.0591518 0.0000
  4  -8981.6831292403  -0.114816710313 0.04978706  0.00025617  0.0355611 0.0000
  5  -8981.6976186362  -0.014489395933 0.02667358  0.00013208  0.0103230 0.0000
  6  -8981.6987851557  -0.001166519438 0.00851946  0.00003977  0.0038291 0.0000
                      *** Initiating the SOSCF procedure ***
                           *** Shutting down DIIS ***
                      *** Re-Reading the Fockian *** 
                      *** Removing any level shift *** 
ITER      Energy       Delta-E        Grad      Rot      Max-DP    RMS-DP
  7  -8981.69898503  -0.0001998770  0.000977  0.000977  0.004351  0.000024
               *** Restarting incremental Fock matrix formation ***
  8  -8981.69905851  -0.0000734786  0.000193  0.001347  0.011627  0.000063
  9  -8981.69902625   0.0000322582  0.000510  0.001721  0.002855  0.000010
 10  -8981.69907076  -0.0000445040  0.000078  0.000955  0.001453  0.000008
 11  -8981.69906922   0.0000015341  0.000122  0.000306  0.000841  0.000003
 12  -8981.69907178  -0.0000025523  0.000039  0.000559  0.001120  0.000003
 13  -8981.69907139   0.0000003902  0.000101  0.000425  0.000208  0.000002
 14  -8981.69907194  -0.0000005529  0.000009  0.000044  0.000339  0.000001
 15  -8981.69907183   0.0000001114  0.000017  0.000032  0.000612  0.000001
 16  -8981.69907189  -0.0000000627  0.000003  0.000016  0.000610  0.000001
 17  -8981.69907189   0.0000000035  0.000008  0.000011  0.000190  0.000001
                  ***Gradient check signals convergence***
              ***Rediagonalizing the Fockian in SOSCF/NRSCF***

               *****************************************************
               *                     SUCCESS                       *
               *           SCF CONVERGED AFTER  18 CYCLES          *
               *****************************************************

Setting up the final grid:

General Integration Accuracy     IntAcc      ...  5.010
Radial Grid Type                 RadialGrid  ... Gauss-Chebyshev
Angular Grid (max. acc.)         AngularGrid ... Lebedev-434
Angular grid pruning method      GridPruning ... 3 (G Style)
Weight generation scheme         WeightScheme... Becke
Basis function cutoff            BFCut       ...    1.0000e-11
Integration weight cutoff        WCut        ...    1.0000e-14
Grids for H and He will be reduced by one unit

# of grid points (after initial pruning)     ... 946892 (   0.1 sec)
# of grid points (after weights+screening)   ... 807211 (  11.1 sec)
nearest neighbour list constructed           ...    0.0 sec
Grid point re-assignment to atoms done       ...    0.1 sec
Grid point division into batches done        ...    5.6 sec
Reduced shell lists constructed in    8.4 sec

Total number of grid points                  ...   807211
Total number of batches                      ...    12664
Average number of points per batch           ...       63
Average number of grid points per atom       ...     8322
Average number of shells per batch           ...   132.37 (14.69%)
Average number of basis functions per batch  ...   345.09 (14.33%)
Average number of large shells per batch     ...    84.90 (64.14%)
Average number of large basis fcns per batch ...   224.45 (65.04%)
Maximum spatial batch extension              ...  17.91, 19.79, 21.62 au
Average spatial batch extension              ...   0.31,  0.31,  0.31 au

Final grid set up in   21.0 sec
Final integration                            ... done (   9.7 sec)
Change in XC energy                          ...    -0.000307338
Integrated number of electrons               ...   561.999970071
Previous integrated no of electrons          ...   561.999728810
Old exchange energy                            =   -126.976021631 Eh
New exchange energy                            =   -126.976134353 Eh
Exchange energy change after final integration =     -0.000112722 Eh
Total energy after final integration           =  -8981.699491999 Eh
Final COS-X integration done in                =   266.918 sec

----------------
TOTAL SCF ENERGY
----------------

Total Energy       :        -8981.69949200 Eh         -244404.46846 eV

Components:
Nuclear Repulsion  :        12282.07763321 Eh          334212.32343 eV
Electronic Energy  :       -21263.77712521 Eh         -578616.79189 eV
One Electron Energy:       -36880.56175248 Eh        -1003571.10585 eV
Two Electron Energy:        15616.78462728 Eh          424954.31397 eV

Virial components:
Potential Energy   :       -17942.92752181 Eh         -488251.88011 eV
Kinetic Energy     :         8961.22802981 Eh          243847.41165 eV
Virial Ratio       :            2.00228445


DFT components:
N(Alpha)           :      280.999985035594 electrons
N(Beta)            :      280.999985035594 electrons
N(Total)           :      561.999970071188 electrons
E(X)               :     -505.161637287687 Eh       
E(C)               :      -24.464309902107 Eh       
E(XC)              :     -529.625947189794 Eh       
DFET-embed. en.    :        0.000000000000 Eh       

---------------
SCF CONVERGENCE
---------------

  Last Energy change         ...   -5.3109e-08  Tolerance :   1.0000e-08
  Last MAX-Density change    ...    6.6613e-15  Tolerance :   1.0000e-07
  Last RMS-Density change    ...    1.4270e-17  Tolerance :   5.0000e-09
  Last Orbital Gradient      ...    1.1172e-06  Tolerance :   1.0000e-05
  Last Orbital Rotation      ...    4.7703e-06  Tolerance :   1.0000e-05

             **** THE GBW FILE WAS UPDATED (CH1007.orcainp.gbw) ****
             **** DENSITY FILE WAS UPDATED (CH1007.orcainp.scfp) ****
             **** ENERGY FILE WAS UPDATED (CH1007.orcainp.en.tmp) ****
             **** THE GBW FILE WAS UPDATED (CH1007.orcainp.gbw) ****
             **** DENSITY FILE WAS UPDATED (CH1007.orcainp.scfp) ****
----------------
ORBITAL ENERGIES
----------------

  NO   OCC          E(Eh)            E(eV) 
   0   2.0000    -453.943514    -12352.4310 
   1   2.0000    -453.942819    -12352.4121 
   2   2.0000     -88.949385     -2420.4358 
   3   2.0000     -88.911275     -2419.3988 
   4   2.0000     -88.910506     -2419.3779 
   5   2.0000     -58.126034     -1581.6898 
   6   2.0000     -58.125394     -1581.6724 
   7   2.0000     -52.178344     -1419.8449 
   8   2.0000     -52.177692     -1419.8272 
   9   2.0000     -52.177664     -1419.8264 
  10   2.0000     -52.177019     -1419.8089 
  11   2.0000     -52.176860     -1419.8045 
  12   2.0000     -52.176229     -1419.7874 
  13   2.0000     -24.728493      -672.8965 
  14   2.0000     -24.727085      -672.8582 
  15   2.0000     -24.726218      -672.8346 
  16   2.0000     -24.724682      -672.7928 
  17   2.0000     -19.137508      -520.7581 
  18   2.0000     -19.135652      -520.7076 
  19   2.0000     -14.411125      -392.1466 
  20   2.0000     -14.408163      -392.0660 
  21   2.0000     -14.356059      -390.6482 
  22   2.0000     -14.355850      -390.6425 
  23   2.0000     -14.331780      -389.9876 
  24   2.0000     -14.330920      -389.9642 
  25   2.0000     -14.330831      -389.9617 
  26   2.0000     -14.329520      -389.9261 
  27   2.0000     -10.303765      -280.3797 
  28   2.0000     -10.303225      -280.3650 
  29   2.0000     -10.301123      -280.3078 
  30   2.0000     -10.300512      -280.2912 
  31   2.0000     -10.283715      -279.8341 
  32   2.0000     -10.280589      -279.7490 
  33   2.0000     -10.264677      -279.3160 
  34   2.0000     -10.264209      -279.3033 
  35   2.0000     -10.260095      -279.1914 
  36   2.0000     -10.258803      -279.1562 
  37   2.0000     -10.258494      -279.1478 
  38   2.0000     -10.257526      -279.1215 
  39   2.0000     -10.255963      -279.0789 
  40   2.0000     -10.254821      -279.0479 
  41   2.0000     -10.247011      -278.8353 
  42   2.0000     -10.246213      -278.8136 
  43   2.0000     -10.244690      -278.7722 
  44   2.0000     -10.244402      -278.7643 
  45   2.0000     -10.241479      -278.6848 
  46   2.0000     -10.241065      -278.6736 
  47   2.0000     -10.238013      -278.5905 
  48   2.0000     -10.236374      -278.5459 
  49   2.0000     -10.234892      -278.5056 
  50   2.0000     -10.234127      -278.4848 
  51   2.0000     -10.234043      -278.4825 
  52   2.0000     -10.233987      -278.4809 
  53   2.0000     -10.233786      -278.4755 
  54   2.0000     -10.232818      -278.4491 
  55   2.0000     -10.230874      -278.3962 
  56   2.0000     -10.230827      -278.3949 
  57   2.0000     -10.230279      -278.3800 
  58   2.0000     -10.229599      -278.3615 
  59   2.0000     -10.229143      -278.3491 
  60   2.0000     -10.228290      -278.3259 
  61   2.0000     -10.227891      -278.3151 
  62   2.0000     -10.227815      -278.3130 
  63   2.0000     -10.224166      -278.2137 
  64   2.0000     -10.223009      -278.1822 
  65   2.0000     -10.221409      -278.1387 
  66   2.0000     -10.220730      -278.1202 
  67   2.0000     -10.220503      -278.1140 
  68   2.0000     -10.219374      -278.0833 
  69   2.0000     -10.217924      -278.0438 
  70   2.0000     -10.217726      -278.0385 
  71   2.0000     -10.217249      -278.0255 
  72   2.0000     -10.215183      -277.9692 
  73   2.0000     -10.205706      -277.7114 
  74   2.0000     -10.197033      -277.4754 
  75   2.0000     -10.195501      -277.4337 
  76   2.0000     -10.188789      -277.2510 
  77   2.0000     -10.173573      -276.8370 
  78   2.0000     -10.167055      -276.6596 
  79   2.0000      -8.020434      -218.2471 
  80   2.0000      -7.986861      -217.3335 
  81   2.0000      -7.986195      -217.3154 
  82   2.0000      -7.864202      -213.9958 
  83   2.0000      -7.863533      -213.9776 
  84   2.0000      -5.985136      -162.8638 
  85   2.0000      -5.977755      -162.6630 
  86   2.0000      -5.977207      -162.6481 
  87   2.0000      -5.949774      -161.9016 
  88   2.0000      -5.949088      -161.8829 
  89   2.0000      -5.946045      -161.8001 
  90   2.0000      -5.945326      -161.7805 
  91   2.0000      -5.942700      -161.7091 
  92   2.0000      -5.942057      -161.6916 
  93   2.0000      -5.808230      -158.0500 
  94   2.0000      -5.807529      -158.0309 
  95   2.0000      -5.804799      -157.9566 
  96   2.0000      -5.804154      -157.9391 
  97   2.0000      -5.800484      -157.8392 
  98   2.0000      -5.799801      -157.8206 
  99   2.0000      -2.161756       -58.8244 
 100   2.0000      -2.161359       -58.8136 
 101   2.0000      -2.161072       -58.8058 
 102   2.0000      -2.160678       -58.7950 
 103   2.0000      -2.157044       -58.6962 
 104   2.0000      -2.156320       -58.6764 
 105   2.0000      -2.154269       -58.6206 
 106   2.0000      -2.153790       -58.6076 
 107   2.0000      -2.153616       -58.6029 
 108   2.0000      -2.153104       -58.5889 
 109   2.0000      -1.271171       -34.5903 
 110   2.0000      -1.268722       -34.5237 
 111   2.0000      -1.257775       -34.2258 
 112   2.0000      -1.255349       -34.1598 
 113   2.0000      -1.069877       -29.1128 
 114   2.0000      -1.066423       -29.0188 
 115   2.0000      -1.049535       -28.5593 
 116   2.0000      -1.036816       -28.2132 
 117   2.0000      -1.035606       -28.1803 
 118   2.0000      -0.948334       -25.8055 
 119   2.0000      -0.947028       -25.7699 
 120   2.0000      -0.930586       -25.3225 
 121   2.0000      -0.929523       -25.2936 
 122   2.0000      -0.928519       -25.2663 
 123   2.0000      -0.927799       -25.2467 
 124   2.0000      -0.926903       -25.2223 
 125   2.0000      -0.925751       -25.1910 
 126   2.0000      -0.905558       -24.6415 
 127   2.0000      -0.894804       -24.3489 
 128   2.0000      -0.886992       -24.1363 
 129   2.0000      -0.884825       -24.0773 
 130   2.0000      -0.874643       -23.8003 
 131   2.0000      -0.867545       -23.6071 
 132   2.0000      -0.842414       -22.9233 
 133   2.0000      -0.832033       -22.6408 
 134   2.0000      -0.829514       -22.5722 
 135   2.0000      -0.822242       -22.3743 
 136   2.0000      -0.814719       -22.1696 
 137   2.0000      -0.813996       -22.1500 
 138   2.0000      -0.808085       -21.9891 
 139   2.0000      -0.805462       -21.9177 
 140   2.0000      -0.803996       -21.8779 
 141   2.0000      -0.801689       -21.8151 
 142   2.0000      -0.787616       -21.4321 
 143   2.0000      -0.779537       -21.2123 
 144   2.0000      -0.761858       -20.7312 
 145   2.0000      -0.761406       -20.7189 
 146   2.0000      -0.753747       -20.5105 
 147   2.0000      -0.743108       -20.2210 
 148   2.0000      -0.729806       -19.8590 
 149   2.0000      -0.721736       -19.6394 
 150   2.0000      -0.717028       -19.5113 
 151   2.0000      -0.705172       -19.1887 
 152   2.0000      -0.703324       -19.1384 
 153   2.0000      -0.696869       -18.9628 
 154   2.0000      -0.691296       -18.8111 
 155   2.0000      -0.686495       -18.6805 
 156   2.0000      -0.673223       -18.3193 
 157   2.0000      -0.661611       -18.0033 
 158   2.0000      -0.659490       -17.9456 
 159   2.0000      -0.648686       -17.6516 
 160   2.0000      -0.643886       -17.5210 
 161   2.0000      -0.641337       -17.4517 
 162   2.0000      -0.639228       -17.3943 
 163   2.0000      -0.636055       -17.3079 
 164   2.0000      -0.631922       -17.1955 
 165   2.0000      -0.621988       -16.9251 
 166   2.0000      -0.611876       -16.6500 
 167   2.0000      -0.603223       -16.4145 
 168   2.0000      -0.596895       -16.2423 
 169   2.0000      -0.596213       -16.2238 
 170   2.0000      -0.595360       -16.2006 
 171   2.0000      -0.586608       -15.9624 
 172   2.0000      -0.577872       -15.7247 
 173   2.0000      -0.575614       -15.6633 
 174   2.0000      -0.574989       -15.6463 
 175   2.0000      -0.567743       -15.4491 
 176   2.0000      -0.565019       -15.3750 
 177   2.0000      -0.555297       -15.1104 
 178   2.0000      -0.550095       -14.9688 
 179   2.0000      -0.545339       -14.8394 
 180   2.0000      -0.540623       -14.7111 
 181   2.0000      -0.532067       -14.4783 
 182   2.0000      -0.528083       -14.3699 
 183   2.0000      -0.526055       -14.3147 
 184   2.0000      -0.523281       -14.2392 
 185   2.0000      -0.522001       -14.2044 
 186   2.0000      -0.520789       -14.1714 
 187   2.0000      -0.518463       -14.1081 
 188   2.0000      -0.514935       -14.0121 
 189   2.0000      -0.510143       -13.8817 
 190   2.0000      -0.504517       -13.7286 
 191   2.0000      -0.494895       -13.4668 
 192   2.0000      -0.492393       -13.3987 
 193   2.0000      -0.492387       -13.3985 
 194   2.0000      -0.488403       -13.2901 
 195   2.0000      -0.487884       -13.2760 
 196   2.0000      -0.485968       -13.2239 
 197   2.0000      -0.485578       -13.2133 
 198   2.0000      -0.484648       -13.1879 
 199   2.0000      -0.482046       -13.1171 
 200   2.0000      -0.480656       -13.0793 
 201   2.0000      -0.477209       -12.9855 
 202   2.0000      -0.470161       -12.7937 
 203   2.0000      -0.469456       -12.7745 
 204   2.0000      -0.467647       -12.7253 
 205   2.0000      -0.466791       -12.7020 
 206   2.0000      -0.465781       -12.6746 
 207   2.0000      -0.464845       -12.6491 
 208   2.0000      -0.461933       -12.5698 
 209   2.0000      -0.460210       -12.5230 
 210   2.0000      -0.459133       -12.4936 
 211   2.0000      -0.449397       -12.2287 
 212   2.0000      -0.447199       -12.1689 
 213   2.0000      -0.444149       -12.0859 
 214   2.0000      -0.440646       -11.9906 
 215   2.0000      -0.438104       -11.9214 
 216   2.0000      -0.435229       -11.8432 
 217   2.0000      -0.432486       -11.7686 
 218   2.0000      -0.431864       -11.7516 
 219   2.0000      -0.431494       -11.7416 
 220   2.0000      -0.428930       -11.6718 
 221   2.0000      -0.428209       -11.6522 
 222   2.0000      -0.427202       -11.6247 
 223   2.0000      -0.422644       -11.5007 
 224   2.0000      -0.420507       -11.4426 
 225   2.0000      -0.419902       -11.4261 
 226   2.0000      -0.419020       -11.4021 
 227   2.0000      -0.410297       -11.1648 
 228   2.0000      -0.407547       -11.0899 
 229   2.0000      -0.404312       -11.0019 
 230   2.0000      -0.403425       -10.9778 
 231   2.0000      -0.401586       -10.9277 
 232   2.0000      -0.399521       -10.8715 
 233   2.0000      -0.397957       -10.8290 
 234   2.0000      -0.396277       -10.7832 
 235   2.0000      -0.395786       -10.7699 
 236   2.0000      -0.393380       -10.7044 
 237   2.0000      -0.391622       -10.6566 
 238   2.0000      -0.391283       -10.6473 
 239   2.0000      -0.389256       -10.5922 
 240   2.0000      -0.388239       -10.5645 
 241   2.0000      -0.384254       -10.4561 
 242   2.0000      -0.382994       -10.4218 
 243   2.0000      -0.381920       -10.3926 
 244   2.0000      -0.380932       -10.3657 
 245   2.0000      -0.373864       -10.1734 
 246   2.0000      -0.373567       -10.1653 
 247   2.0000      -0.367198        -9.9920 
 248   2.0000      -0.366123        -9.9627 
 249   2.0000      -0.365656        -9.9500 
 250   2.0000      -0.364833        -9.9276 
 251   2.0000      -0.364102        -9.9077 
 252   2.0000      -0.362719        -9.8701 
 253   2.0000      -0.357610        -9.7311 
 254   2.0000      -0.354351        -9.6424 
 255   2.0000      -0.351968        -9.5775 
 256   2.0000      -0.351484        -9.5644 
 257   2.0000      -0.350267        -9.5312 
 258   2.0000      -0.349399        -9.5076 
 259   2.0000      -0.347009        -9.4426 
 260   2.0000      -0.345305        -9.3962 
 261   2.0000      -0.339828        -9.2472 
 262   2.0000      -0.339149        -9.2287 
 263   2.0000      -0.337674        -9.1886 
 264   2.0000      -0.310482        -8.4486 
 265   2.0000      -0.309840        -8.4312 
 266   2.0000      -0.305569        -8.3150 
 267   2.0000      -0.300923        -8.1885 
 268   2.0000      -0.298349        -8.1185 
 269   2.0000      -0.291931        -7.9438 
 270   2.0000      -0.287101        -7.8124 
 271   2.0000      -0.283015        -7.7012 
 272   2.0000      -0.282263        -7.6808 
 273   2.0000      -0.273481        -7.4418 
 274   2.0000      -0.269354        -7.3295 
 275   2.0000      -0.264662        -7.2018 
 276   2.0000      -0.260781        -7.0962 
 277   2.0000      -0.244807        -6.6615 
 278   2.0000      -0.238907        -6.5010 
 279   2.0000      -0.235488        -6.4079 
 280   2.0000      -0.208982        -5.6867 
 281   0.0000      -0.137291        -3.7359 
 282   0.0000      -0.128081        -3.4853 
 283   0.0000      -0.113325        -3.0837 
 284   0.0000      -0.110021        -2.9938 
 285   0.0000      -0.092443        -2.5155 
 286   0.0000      -0.067953        -1.8491 
 287   0.0000      -0.060875        -1.6565 
 288   0.0000      -0.047057        -1.2805 
 289   0.0000      -0.043063        -1.1718 
 290   0.0000      -0.041432        -1.1274 
 291   0.0000      -0.034679        -0.9437 
 292   0.0000      -0.018881        -0.5138 
 293   0.0000      -0.017892        -0.4869 
 294   0.0000      -0.012733        -0.3465 
 295   0.0000      -0.010447        -0.2843 
 296   0.0000      -0.006624        -0.1803 
 297   0.0000      -0.004850        -0.1320 
 298   0.0000      -0.001584        -0.0431 
[...]
   270a -> 282a  :     0.037053 (c= -0.19249275)
   270a -> 283a  :     0.015547 (c=  0.12468788)
   271a -> 282a  :     0.016866 (c=  0.12986779)
   273a -> 281a  :     0.010174 (c= -0.10086614)
   273a -> 283a  :     0.040941 (c=  0.20233844)
   274a -> 282a  :     0.016918 (c= -0.13006944)
   274a -> 283a  :     0.010359 (c=  0.10177874)
   274a -> 284a  :     0.033945 (c= -0.18424072)
   276a -> 283a  :     0.042940 (c= -0.20722048)
   280a -> 290a  :     0.016915 (c= -0.13005622)

STATE 46:  E=   0.148548 au      4.042 eV    32602.6 cm**-1
   266a -> 281a  :     0.013247 (c=  0.11509618)
   267a -> 282a  :     0.012789 (c=  0.11308708)
   268a -> 281a  :     0.059749 (c=  0.24443654)
   269a -> 281a  :     0.082172 (c=  0.28665575)
   270a -> 281a  :     0.116290 (c= -0.34101324)
   270a -> 282a  :     0.474417 (c=  0.68877939)
   271a -> 282a  :     0.013068 (c= -0.11431662)
   272a -> 281a  :     0.023103 (c= -0.15199698)
   274a -> 283a  :     0.070082 (c= -0.26473025)
   275a -> 283a  :     0.017550 (c=  0.13247820)

STATE 47:  E=   0.149944 au      4.080 eV    32908.8 cm**-1
   267a -> 281a  :     0.332239 (c=  0.57640142)
   268a -> 282a  :     0.037029 (c=  0.19243014)
   269a -> 281a  :     0.097219 (c=  0.31179936)
   269a -> 282a  :     0.049663 (c=  0.22285097)
   270a -> 282a  :     0.040004 (c=  0.20000961)
   271a -> 282a  :     0.011278 (c=  0.10619759)
   273a -> 283a  :     0.030209 (c= -0.17380869)
   274a -> 283a  :     0.211147 (c=  0.45950721)
   274a -> 284a  :     0.014748 (c= -0.12144140)
   276a -> 283a  :     0.012542 (c= -0.11198942)
   276a -> 284a  :     0.023730 (c=  0.15404385)
   278a -> 286a  :     0.014161 (c= -0.11899913)
   280a -> 287a  :     0.020336 (c= -0.14260526)
   280a -> 291a  :     0.011543 (c= -0.10743995)

STATE 48:  E=   0.151285 au      4.117 eV    33203.2 cm**-1
   267a -> 281a  :     0.087252 (c=  0.29538389)
   269a -> 283a  :     0.011035 (c= -0.10504801)
   269a -> 284a  :     0.011368 (c=  0.10662235)
   270a -> 282a  :     0.031728 (c=  0.17812252)
   273a -> 281a  :     0.016711 (c=  0.12926991)
   273a -> 283a  :     0.350823 (c=  0.59230282)
   274a -> 282a  :     0.024915 (c=  0.15784532)
   274a -> 283a  :     0.105994 (c= -0.32556671)
   274a -> 284a  :     0.012136 (c=  0.11016550)
   276a -> 283a  :     0.132208 (c=  0.36360424)
   276a -> 284a  :     0.034965 (c=  0.18698945)
   278a -> 284a  :     0.013555 (c=  0.11642506)
   280a -> 290a  :     0.016211 (c= -0.12732053)

STATE 49:  E=   0.151538 au      4.124 eV    33258.7 cm**-1
   267a -> 281a  :     0.061033 (c= -0.24704826)
   273a -> 282a  :     0.021589 (c= -0.14693207)
   273a -> 283a  :     0.015009 (c= -0.12250973)
   273a -> 284a  :     0.136617 (c=  0.36961755)
   274a -> 281a  :     0.029791 (c= -0.17259993)
   274a -> 282a  :     0.053064 (c=  0.23035610)
   274a -> 284a  :     0.230216 (c= -0.47980781)
   276a -> 282a  :     0.028160 (c= -0.16780829)
   276a -> 284a  :     0.173688 (c=  0.41675889)
   278a -> 284a  :     0.016792 (c=  0.12958239)
   278a -> 286a  :     0.010992 (c= -0.10484454)
   280a -> 291a  :     0.018047 (c=  0.13433771)

STATE 50:  E=   0.151948 au      4.135 eV    33348.7 cm**-1
   267a -> 281a  :     0.049691 (c= -0.22291507)
   268a -> 281a  :     0.039333 (c=  0.19832637)
   269a -> 281a  :     0.011507 (c= -0.10727301)
   269a -> 282a  :     0.051838 (c=  0.22768007)
   270a -> 282a  :     0.043914 (c=  0.20955639)
   270a -> 283a  :     0.022234 (c= -0.14911027)
   273a -> 281a  :     0.044381 (c=  0.21066685)
   273a -> 282a  :     0.044109 (c=  0.21002223)
   273a -> 283a  :     0.019110 (c=  0.13823852)
   273a -> 284a  :     0.027945 (c= -0.16716848)
   274a -> 282a  :     0.033874 (c=  0.18404821)
   274a -> 283a  :     0.132759 (c=  0.36436099)
   274a -> 284a  :     0.106807 (c= -0.32681386)
   275a -> 283a  :     0.047814 (c= -0.21866372)
   275a -> 284a  :     0.026659 (c=  0.16327482)
   276a -> 283a  :     0.034964 (c=  0.18698645)
   276a -> 284a  :     0.027703 (c= -0.16644174)
   278a -> 286a  :     0.029203 (c=  0.17088981)
   280a -> 287a  :     0.012888 (c=  0.11352648)
   280a -> 290a  :     0.021764 (c= -0.14752488)


-----------------------------
TD-DFT/TDA-EXCITATION SPECTRA
-----------------------------

Center of mass = (  1.8357, -7.2569, 15.4803)
Calculating the Dipole integrals                  ... done
Transforming integrals                            ... done
Calculating the Linear Momentum integrals         ... done
Transforming integrals                            ... done
Calculating angular momentum integrals            ... done
Transforming integrals                            ... done

-----------------------------------------------------------------------------
         ABSORPTION SPECTRUM VIA TRANSITION ELECTRIC DIPOLE MOMENTS
-----------------------------------------------------------------------------
State   Energy    Wavelength  fosc         T2        TX        TY        TZ  
        (cm-1)      (nm)                 (au**2)    (au)      (au)      (au) 
-----------------------------------------------------------------------------
   1   14618.5    684.1   2.656732290  59.83038  -1.89151  -3.29776   6.73627
   2   16674.7    599.7   0.089752075   1.77200   1.02166  -0.53187  -0.66732
   3   18453.3    541.9   0.193685242   3.45540  -0.22720  -0.81406   1.65562
   4   18903.3    529.0   0.032598672   0.56773  -0.42689   0.48619   0.38615
   5   19254.2    519.4   0.074895955   1.28058   0.63708   0.59905  -0.71823
   6   20194.6    495.2   0.091986693   1.49957   0.31802   0.62215  -1.00567
   7   21313.6    469.2   0.068096639   1.05183  -0.84583   0.57402  -0.08299
   8   21488.7    465.4   0.187334813   2.87001   1.48673  -0.71471  -0.38580
   9   21955.5    455.5   0.161907727   2.42773  -0.56291  -0.54187   1.34805
  10   22696.1    440.6   0.023517386   0.34112  -0.51029   0.24231   0.14839
  11   22944.0    435.8   0.024656776   0.35379   0.30241   0.05738  -0.50896
  12   24094.8    415.0   0.004795084   0.06552   0.13027   0.04730  -0.21519
  13   24186.8    413.4   0.010030576   0.13653  -0.12922   0.32481   0.11969
  14   24624.3    406.1   0.001062971   0.01421   0.02583   0.11228   0.03060
  15   24836.1    402.6   0.010098630   0.13386   0.12518  -0.33678   0.06908
  16   25209.1    396.7   0.002000453   0.02612  -0.10314  -0.00834   0.12416
  17   25388.2    393.9   0.000621994   0.00807   0.05388   0.00896   0.07129
  18   26349.7    379.5   0.012625858   0.15775  -0.35035   0.18687   0.00914
  19   26465.9    377.8   0.015804464   0.19659  -0.23116   0.17541   0.33524
  20   26849.2    372.5   0.017313489   0.21229  -0.11777   0.07381  -0.43928
  21   26876.5    372.1   0.039344980   0.48194   0.21917   0.39501  -0.52713
  22   26905.0    371.7   0.053312353   0.65233   0.62537   0.43207   0.27306
  23   27150.6    368.3   0.082558445   1.00105   0.92727   0.30327  -0.22192
  24   27502.0    363.6   0.086496340   1.03540  -0.53570   0.36542   0.78416
  25   27763.2    360.2   0.352384938   4.17853  -0.20510  -0.99089   1.77612
  26   27892.1    358.5   0.014323612   0.16906   0.00602   0.01838   0.41072
  27   28290.2    353.5   0.063137151   0.73473  -0.03496   0.79555  -0.31719
  28   28799.9    347.2   0.053271888   0.60895  -0.47194   0.60947   0.12152
  29   28842.2    346.7   0.019646426   0.22425   0.37891  -0.05253  -0.27914
  30   29210.1    342.3   0.032424984   0.36545  -0.26976   0.21604   0.49598
  31   29268.9    341.7   0.007203931   0.08103  -0.27504   0.05113  -0.05259
  32   29458.1    339.5   0.037226992   0.41603   0.01531  -0.34354   0.54570
  33   29641.8    337.4   0.037218769   0.41336  -0.53254   0.34243  -0.11185
  34   29998.3    333.4   0.050953098   0.55918  -0.18066  -0.33852   0.64183
  35   30285.7    330.2   0.042131961   0.45798  -0.44748   0.50621   0.03861
  36   30659.8    326.2   0.003507652   0.03766  -0.14202   0.13103   0.01805
  37   30708.5    325.6   0.012152096   0.13028  -0.23561   0.15144   0.22766
  38   30963.2    323.0   0.003224803   0.03429   0.08025   0.16651  -0.01098
  39   31012.2    322.5   0.011109376   0.11793   0.08148  -0.12085   0.31095
  40   31108.8    321.5   0.011445347   0.12112   0.11347   0.28445   0.16533
  41   31370.5    318.8   0.011861103   0.12447   0.27994   0.17503  -0.12439
  42   31411.7    318.4   0.002509319   0.02630   0.08982   0.03350  -0.13080
  43   31573.3    316.7   0.023317451   0.24313  -0.47616  -0.12738  -0.01305
  44   31628.3    316.2   0.014442703   0.15033   0.08235  -0.04348  -0.37638
  45   32039.7    312.1   0.044573685   0.45800  -0.18948  -0.23219   0.60678
  46   32602.6    306.7   0.050149597   0.50640   0.00971   0.65878   0.26890
  47   32908.8    303.9   0.005528586   0.05531   0.21964   0.07014   0.04631
  48   33203.2    301.2   0.013669640   0.13554   0.32544  -0.03648   0.16820
  49   33258.7    300.7   0.442513756   4.38024   0.75838   1.63796   1.05933
  50   33348.7    299.9   0.268048223   2.64612  -0.58180  -1.39579  -0.59949

-----------------------------------------------------------------------------
         ABSORPTION SPECTRUM VIA TRANSITION VELOCITY DIPOLE MOMENTS
-----------------------------------------------------------------------------
State   Energy    Wavelength   fosc        P2         PX        PY        PZ  
        (cm-1)      (nm)                 (au**2)     (au)      (au)      (au) 
-----------------------------------------------------------------------------
   1   14618.5    684.1   0.579956913   0.05794   0.06794   0.09311  -0.21132
   2   16674.7    599.7   0.047735940   0.00544   0.00507  -0.07325  -0.00697
   3   18453.3    541.9   0.087471090   0.01103   0.03845   0.03499  -0.09127
   4   18903.3    529.0   0.162141462   0.02095  -0.08279   0.11581   0.02609
   5   19254.2    519.4   0.032257715   0.00424   0.01625  -0.01838   0.06035
   6   20194.6    495.2   0.018930802   0.00261  -0.01375   0.01678   0.04628
   7   21313.6    469.2   0.004046486   0.00059  -0.00008  -0.00298   0.02409
   8   21488.7    465.4   0.013249868   0.00195  -0.02868  -0.03191   0.01028
   9   21955.5    455.5   0.024877435   0.00373   0.01235   0.02234  -0.05551
  10   22696.1    440.6   0.013102444   0.00203   0.03624  -0.02512  -0.00939
  11   22944.0    435.8   0.049101832   0.00770  -0.04061  -0.05003   0.05956
  12   24094.8    415.0   0.011898770   0.00196   0.03681  -0.02455  -0.00134
  13   24186.8    413.4   0.009181771   0.00152  -0.00035   0.03834   0.00689
  14   24624.3    406.1   0.009374936   0.00158  -0.02373   0.02376   0.02121
  15   24836.1    402.6   0.005730040   0.00097   0.00387  -0.02993  -0.00787
  16   25209.1    396.7   0.006296237   0.00108  -0.01424   0.02778  -0.01049
  17   25388.2    393.9   0.011278233   0.00196   0.02241  -0.03631  -0.01167
  18   26349.7    379.5   0.000030831   0.00001   0.00214   0.00085   0.00049
  19   26465.9    377.8   0.005574750   0.00101   0.01591   0.00731  -0.02649
  20   26849.2    372.5   0.027344430   0.00502  -0.02111  -0.02954   0.06082
  21   26876.5    372.1   0.042442137   0.00780  -0.02524  -0.04575   0.07118
  22   26905.0    371.7   0.004275626   0.00079  -0.01602  -0.02052   0.01043
  23   27150.6    368.3   0.014480407   0.00269  -0.03089  -0.00547   0.04127
  24   27502.0    363.6   0.022574497   0.00424   0.04220   0.01157  -0.04826
  25   27763.2    360.2   0.180442963   0.03424   0.04111   0.08351  -0.15992
  26   27892.1    358.5   0.009179503   0.00175   0.00901   0.00658  -0.04031
  27   28290.2    353.5   0.016900332   0.00327  -0.00947  -0.03185   0.04651
  28   28799.9    347.2   0.019611229   0.00386  -0.03759   0.04111   0.02752
  29   28842.2    346.7   0.010891584   0.00215  -0.01504  -0.02409   0.03661
  30   29210.1    342.3   0.018256942   0.00364  -0.00572   0.04879  -0.03509
  31   29268.9    341.7   0.000385926   0.00008   0.00157   0.00061   0.00862
  32   29458.1    339.5   0.052063474   0.01048   0.02615   0.05189  -0.08429
  33   29641.8    337.4   0.000968619   0.00020   0.00740   0.00476   0.01090
  34   29998.3    333.4   0.023163678   0.00475   0.01603   0.01823  -0.06450
  35   30285.7    330.2   0.005657798   0.00117  -0.00659   0.02630   0.02089
  36   30659.8    326.2   0.000176371   0.00004   0.00245   0.00448  -0.00330
  37   30708.5    325.6   0.001398762   0.00029  -0.00829   0.00826  -0.01252
  38   30963.2    323.0   0.000916046   0.00019  -0.00962  -0.00927   0.00392
  39   31012.2    322.5   0.004982872   0.00106   0.01714   0.02187  -0.01686
  40   31108.8    321.5   0.001092849   0.00023  -0.01267   0.00792  -0.00299
  41   31370.5    318.8   0.009532736   0.00204  -0.00619  -0.04462   0.00376
  42   31411.7    318.4   0.001854072   0.00040  -0.01375  -0.01304   0.00624
  43   31573.3    316.7   0.010236492   0.00221  -0.00830   0.04618   0.00276
  44   31628.3    316.2   0.005642040   0.00122  -0.02630  -0.00857   0.02131
  45   32039.7    312.1   0.007501990   0.00164   0.01635   0.01677  -0.03308
  46   32602.6    306.7   0.001635487   0.00036   0.01708   0.00685   0.00506
  47   32908.8    303.9   0.003044826   0.00068  -0.01777   0.01908   0.00221
  48   33203.2    301.2   0.008906114   0.00202  -0.02197  -0.01935   0.03412
  49   33258.7    300.7   0.016989180   0.00386  -0.00107   0.03376   0.05216
  50   33348.7    299.9   0.009806036   0.00224   0.00214  -0.04718  -0.00209

-------------------------------------------------------------------
                             CD SPECTRUM
-------------------------------------------------------------------
State  Energy     Wavelength     R         MX        MY        MZ   
       (cm-1)       (nm)     (1e40*cgs)   (au)      (au)      (au)  
-------------------------------------------------------------------
   1   14618.5    684.1     99.09952  -0.47635   0.50452   0.14444
   2   16674.7    599.7     20.70782   0.00704  -0.12099   0.04138
   3   18453.3    541.9     39.22950   0.33675  -0.04980   0.07198
   4   18903.3    529.0     46.14783   0.01706   0.09241   0.15600
   5   19254.2    519.4     25.32343  -0.10097   0.04022  -0.13080
   6   20194.6    495.2    -36.69945  -0.67880  -0.47136  -0.42885
   7   21313.6    469.2    -51.13262   0.17184   0.05809  -0.04272
   8   21488.7    465.4      1.48475  -0.01460  -0.09751   0.11622
   9   21955.5    455.5      1.67421  -0.24518   0.23684  -0.00454
  10   22696.1    440.6    -32.65670   0.14446   0.01504   0.00542
  11   22944.0    435.8     37.03068   0.09376  -0.18742  -0.11975
  12   24094.8    415.0      7.58400  -0.06436  -0.01745  -0.11755
  13   24186.8    413.4     12.02925   0.12014   0.10471   0.05873
  14   24624.3    406.1     -9.72962  -0.13332  -0.10381  -0.18095
  15   24836.1    402.6      8.80343   0.24418   0.03746   0.01046
  16   25209.1    396.7     -0.63234   0.07507  -0.07924   0.04624
  17   25388.2    393.9      0.82535   0.14781  -0.13891  -0.06969
  18   26349.7    379.5     -9.53933   0.01823  -0.07240  -0.03494
  19   26465.9    377.8      7.57967  -0.02225   0.05612   0.00325
  20   26849.2    372.5     19.07049  -0.14947  -0.01442  -0.05443
  21   26876.5    372.1     -1.46207  -0.09096  -0.13525  -0.13328
  22   26905.0    371.7     41.98588   0.06708   0.11659  -0.01196
  23   27150.6    368.3    -86.00916  -0.17453  -0.13664  -0.09392
  24   27502.0    363.6    -27.92716   0.05530   0.17352  -0.11862
  25   27763.2    360.2    132.18217   0.12337   0.23993   0.30596
  26   27892.1    358.5     24.30784   0.01714   0.13858   0.11908
  27   28290.2    353.5    -64.74514  -0.05670  -0.17801  -0.00726
  28   28799.9    347.2     -6.26806  -0.02666  -0.05152   0.04544
  29   28842.2    346.7    -12.35378  -0.15557  -0.08336  -0.10161
  30   29210.1    342.3     18.55270   0.11088   0.08940   0.10071
  31   29268.9    341.7     17.14371  -0.11919   0.00265  -0.06550
  32   29458.1    339.5     27.67415   0.18328   0.07878   0.15202
  33   29641.8    337.4    -15.00197   0.06298   0.00124  -0.01154
  34   29998.3    333.4    -12.67433  -0.02854   0.30546   0.11119
  35   30285.7    330.2      8.69310   0.00503   0.04138  -0.00659
  36   30659.8    326.2     -3.11881   0.02950  -0.02398   0.03966
  37   30708.5    325.6    -14.30354   0.02694  -0.11787  -0.02698
  38   30963.2    323.0      1.47043   0.02279   0.00809   0.00514
  39   31012.2    322.5     23.59845   0.14279  -0.02756   0.11285
  40   31108.8    321.5     -4.03622  -0.05420  -0.01671   0.01417
  41   31370.5    318.8    -11.27081  -0.09729   0.02496   0.00835
  42   31411.7    318.4      4.68149   0.05372  -0.04300  -0.05004
  43   31573.3    316.7    -10.04918   0.03209   0.04027   0.06959
  44   31628.3    316.2      9.05276  -0.04047  -0.03823  -0.05546
  45   32039.7    312.1     26.45385  -0.17170   0.06622   0.06419
  46   32602.6    306.7     -4.66766  -0.08907  -0.01823   0.01106
  47   32908.8    303.9      6.87170   0.07568  -0.06045   0.04733
  48   33203.2    301.2      1.81169   0.01034  -0.06775  -0.01185
  49   33258.7    300.7    -46.99076  -0.11039  -0.08740   0.12007
  50   33348.7    299.9    -73.03573   0.12966   0.11440  -0.13379

Total run time:    20583.014 sec

           *** ORCA-CIS/TD-DFT FINISHED WITHOUT ERROR ***

-----------------------
CIS/TD-DFT TOTAL ENERGY
-----------------------

    E(SCF)  =  -8981.699491999 Eh
    DE(CIS) =      0.066606602 Eh (Root  1)
    ----------------------------- ---------
    E(tot)  =  -8981.632885398 Eh


-------------------------   --------------------
FINAL SINGLE POINT ENERGY     -8981.632885397679
-------------------------   --------------------


                            ***************************************
                            *     ORCA property calculations      *
                            ***************************************

                                    ---------------------
                                    Active property flags
                                    ---------------------
   (+) Dipole Moment


------------------------------------------------------------------------------
                       ORCA ELECTRIC PROPERTIES CALCULATION
------------------------------------------------------------------------------

Dipole Moment Calculation                       ... on
Quadrupole Moment Calculation                   ... off
Polarizability Calculation                      ... off
GBWName                                         ... CH1007.orcainp.gbw
Electron density file                           ... CH1007.orcainp.scfp
The origin for moment calculation is the CENTER OF MASS  = ( 1.835696, -7.256918 15.480276)

-------------
DIPOLE MOMENT
-------------
                                X             Y             Z
Electronic contribution:     28.56434     -19.23324       2.87061
Nuclear contribution   :    -28.68078      20.49990      -2.05548
                        -----------------------------------------
Total Dipole Moment    :     -0.11644       1.26666       0.81512
                        -----------------------------------------
Magnitude (a.u.)       :      1.51076
Magnitude (Debye)      :      3.84005



--------------------
Rotational spectrum 
--------------------
 
Rotational constants in cm-1:     0.001929     0.000222     0.000218 
Rotational constants in MHz :    57.832676     6.653206     6.541043 

 Dipole components along the rotational axes: 
x,y,z [a.u.] :     0.217922     1.241563    -0.832726 
x,y,z [Debye]:     0.553914     3.155802    -2.116622 

 

Timings for individual modules:

Sum of individual times         ...    23209.194 sec (= 386.820 min)
GTO integral calculation        ...        8.635 sec (=   0.144 min)   0.0 %
SCF iterations                  ...     2615.813 sec (=  43.597 min)  11.3 %
CIS module                      ...    20584.746 sec (= 343.079 min)  88.7 %
                             ****ORCA TERMINATED NORMALLY****
TOTAL RUN TIME: 0 days 6 hours 26 minutes 51 seconds 250 msec
