
                                 *****************
                                 * O   R   C   A *
                                 *****************

           --- An Ab Initio, DFT and Semiempirical electronic structure package ---

                  #######################################################
                  #                        -***-                        #
                  #          Department of theory and spectroscopy      #
                  #               Directorship: Frank Neese             #
                  #        Max Planck Institute fuer Kohlenforschung    #
                  #                Kaiser Wilhelm Platz 1               #
                  #                 D-45470 Muelheim/Ruhr               #
                  #                      Germany                        #
                  #                                                     #
                  #                  All rights reserved                #
                  #                        -***-                        #
                  #######################################################


                         Program Version 4.2.0 -  RELEASE  -


 With contributions from (in alphabetic order):
   Daniel Aravena         : Magnetic Suceptibility
   Michael Atanasov       : Ab Initio Ligand Field Theory (pilot matlab implementation)
   Alexander A. Auer      : GIAO ZORA, VPT2
   Ute Becker             : Parallelization
   Giovanni Bistoni       : ED, misc. LED, open-shell LED, HFLED
   Martin Brehm           : Molecular dynamics
   Dmytro Bykov           : SCF Hessian
   Vijay G. Chilkuri      : MRCI spin determinant printing, contributions to CSF-ICE
   Dipayan Datta          : RHF DLPNO-CCSD density
   Achintya Kumar Dutta   : EOM-CC, STEOM-CC
   Dmitry Ganyushin       : Spin-Orbit,Spin-Spin,Magnetic field MRCI
   Miquel Garcia          : C-PCM Hessian, Gaussian charge scheme
   Yang Guo               : DLPNO-NEVPT2, CIM, IAO-localization
   Andreas Hansen         : Spin unrestricted coupled pair/coupled cluster methods
   Benjamin Helmich-Paris : CASSCF linear response (MC-RPA)
   Lee Huntington         : MR-EOM, pCC
   Robert Izsak           : Overlap fitted RIJCOSX, COSX-SCS-MP3, EOM
   Christian Kollmar      : KDIIS, OOCD, Brueckner-CCSD(T), CCSD density
   Simone Kossmann        : Meta GGA functionals, TD-DFT gradient, OOMP2, MP2 Hessian
   Martin Krupicka        : AUTO-CI
   Lucas Lang             : DCDCAS
   Dagmar Lenk            : GEPOL surface, SMD
   Dimitrios Liakos       : Extrapolation schemes; Compound Job, initial MDCI parallelization
   Dimitrios Manganas     : Further ROCIS development; embedding schemes
   Dimitrios Pantazis     : SARC Basis sets
   Taras Petrenko         : DFT Hessian,TD-DFT gradient, ASA, ECA, R-Raman, ABS, FL, XAS/XES, NRVS
   Peter Pinski           : DLPNO-MP2, DLPNO-MP2 Gradient
   Christoph Reimann      : Effective Core Potentials
   Marius Retegan         : Local ZFS, SOC
   Christoph Riplinger    : Optimizer, TS searches, QM/MM, DLPNO-CCSD(T), (RO)-DLPNO pert. Triples
   Tobias Risthaus        : Range-separated hybrids, TD-DFT gradient, RPA, STAB
   Michael Roemelt        : Original ROCIS implementation
   Masaaki Saitow         : Open-shell DLPNO-CCSD energy and density
   Barbara Sandhoefer     : DKH picture change effects
   Avijit Sen             : IP-ROCIS
   Kantharuban Sivalingam : CASSCF convergence, NEVPT2, FIC-MRCI
   Bernardo de Souza      : ESD, SOC TD-DFT
   Georgi Stoychev        : AutoAux, RI-MP2 NMR
   Willem Van den Heuvel  : Paramagnetic NMR
   Boris Wezisla          : Elementary symmetry handling
   Frank Wennmohs         : Technical directorship


 We gratefully acknowledge several colleagues who have allowed us to
 interface, adapt or use parts of their codes:
   Stefan Grimme, W. Hujo, H. Kruse,             : VdW corrections, initial TS optimization,
                  C. Bannwarth                     DFT functionals, gCP, sTDA/sTD-DF
   Ed Valeev, F. Pavosevic, A. Kumar             : LibInt (2-el integral package), F12 methods
   Garnet Chan, S. Sharma, J. Yang, R. Olivares  : DMRG
   Ulf Ekstrom                                   : XCFun DFT Library
   Mihaly Kallay                                 : mrcc  (arbitrary order and MRCC methods)
   Andreas Klamt, Michael Diedenhofen            : otool_cosmo (COSMO solvation model)
   Jiri Pittner, Ondrej Demel                    : Mk-CCSD
   Frank Weinhold                                : gennbo (NPA and NBO analysis)
   Christopher J. Cramer and Donald G. Truhlar   : smd solvation model
   Lars Goerigk                                  : TD-DFT with DH, B97 family of functionals
   V. Asgeirsson, H. Jonsson                     : NEB implementation
   FAccTs GmbH                                   : IRC, NEB, NEB-TS, Multilevel, MM, QM/MM, CI optimization
   S Lehtola, MJT Oliveira, MAL Marques          : LibXC Library


 Your calculation uses the libint2 library for the computation of 2-el integrals
 For citations please refer to: http://libint.valeyev.net

 Your ORCA version has been built with support for libXC version: 4.2.3
 For citations please refer to: https://tddft.org/programs/libxc/

 This ORCA versions uses:
   CBLAS   interface :  Fast vector & matrix operations
   LAPACKE interface :  Fast linear algebra routines
   SCALAPACK package :  Parallel linear algebra routines


----- Orbital basis set information -----
Your calculation utilizes the basis: def2-TZVP
   F. Weigend and R. Ahlrichs, Phys. Chem. Chem. Phys. 7, 3297 (2005).

----- AuxJ basis set information -----
Your calculation utilizes the auxiliary basis: def2/J
   F. Weigend, Phys. Chem. Chem. Phys. 8, 1057 (2006).

================================================================================
                                        WARNINGS
                       Please study these warnings very carefully!
================================================================================

INFO   : Checking CIS options ...

WARNING: CIS/ROCIS methods need fully converged wavefunctions
  ===> : Setting SCFConvForced true
         You can overwrite this default with %scf ConvForced false 


INFO   : the flag for use of LIBINT has been found!

================================================================================
                                       INPUT FILE
================================================================================
NAME = CPDT-4F.inp
|  1> # ORCA input file
|  2> # CPDT-4F.out: Geometry 22
|  3> ! B3LYP def2-TZVP def2/J RIJCOSX Grid4 TightSCF
|  4> 
|  5> %maxcore 6000
|  6> %tddft
|  7>   maxdim 5
|  8>   nroots 50
|  9>   end
| 10> %pal
| 11>   nprocs 6
| 12>   end
| 13> 
| 14> 
| 15> * xyz 0 1
| 16>    C       -0.99898         5.03151         1.95528
| 17>    C       -2.15001         4.29619         2.22677
| 18>    C       -2.13921         2.89017         2.26939
| 19>    C       -0.95885         2.18759         2.05091
| 20>    C        0.18826         2.92488         1.78189
| 21>    C        0.19338         4.33225         1.72441
| 22>    C        1.55237         2.41287         1.49732
| 23>    C        2.39922         3.59881         1.23801
| 24>    C        1.56697         4.79321         1.39287
| 25>    C        3.72803         3.56360         0.85543
| 26>    C        4.64053         2.52429         0.56151
| 27>    C        5.93146         2.82144         0.05400
| 28>    C        6.66894         1.69331        -0.28882
| 29>    C        5.95467         0.50979        -0.00506
| 30>    S        4.38728         0.76744         0.64665
| 31>    C        8.02133         1.36997        -0.93351
| 32>    C        7.95509        -0.15655        -0.93767
| 33>    C        6.74815        -0.60889        -0.39629
| 34>    C        8.76661        -1.20627        -1.40156
| 35>    C        8.17753        -2.46101        -1.21560
| 36>    S        6.59551        -2.32685        -0.44783
| 37>    C        8.66122        -3.75331        -1.60926
| 38>    S       10.09727        -3.89920        -2.62323
| 39>    C        9.91114        -5.61712        -2.67070
| 40>    C        8.80341        -6.05513        -1.93985
| 41>    C        8.09684        -5.00273        -1.33680
| 42>    C       10.54364        -6.74493        -3.27661
| 43>    C        9.83909        -7.91648        -2.91804
| 44>    C        8.64455        -7.56865        -2.02787
| 45>    S       11.86996        -7.05639        -4.30751
| 46>    C       11.51954        -8.80516        -4.27522
| 47>    C       10.39958        -9.07256        -3.45878
| 48>    C       12.36337        -9.59947        -5.08692
| 49>    C       12.43546       -10.95799        -5.34409
| 50>    C       13.37468       -11.58557        -6.28057
| 51>    C       13.16482       -13.05310        -6.20615
| 52>    C       12.13920       -13.31461        -5.27881
| 53>    C       11.62629       -12.03819        -4.71800
| 54>    C       13.78854       -14.12401        -6.86189
| 55>    C       13.36629       -15.41455        -6.55520
| 56>    C       12.34151       -15.65809        -5.62119
| 57>    C       11.71146       -14.60143        -4.97200
| 58>    F       11.98569       -16.91517        -5.37117
| 59>    F       13.94408       -16.45450        -7.15203
| 60>    O       10.72199       -11.95007        -3.90351
| 61>    C       14.29714       -10.97431        -7.11520
| 62>    C       15.15393       -11.71229        -7.99060
| 63>    C       14.48924        -9.56005        -7.20291
| 64>    C        8.73526        -8.21734        -0.62516
| 65>    C        7.28979        -7.89083        -2.72341
| 66>    C        7.04989        -9.35660        -3.07789
| 67>    C       10.05818        -7.97488         0.10038
| 68>    C        9.22855         1.89731        -0.12091
| 69>    C        8.09213         1.86401        -2.40763
| 70>    C        8.03818         3.37520        -2.62037
| 71>    C        9.31086         1.39997         1.31957
| 72>    O        1.88776         1.23958         1.48232
| 73>    F       -3.29951         4.92831         2.45237
| 74>    F       -3.27671         2.24794         2.52153
| 75>    C        1.93646         6.12115         1.24863
| 76>    C        1.01447         7.20427         1.39245
| 77>    C        3.26693         6.54037         0.93356
| 78>    N        4.34557         6.89061         0.67596
| 79>    N        0.28011         8.09886         1.50066
| 80>    N       15.85444       -12.29753        -8.71016
| 81>    N       14.66910        -8.41456        -7.29063
| 82>    H       -1.07943         6.11649         1.93087
| 83>    H       -0.93968         1.09684         2.08750
| 84>    H        4.19785         4.53308         0.69491
| 85>    H        6.26054         3.85528        -0.05641
| 86>    H        9.74491        -1.08084        -1.86728
| 87>    H        7.19858        -5.12004        -0.72952
| 88>    H       10.05982       -10.09509        -3.30869
| 89>    H       13.09683        -8.99559        -5.62031
| 90>    H       14.58666       -14.00765        -7.59171
| 91>    H       10.91335       -14.78089        -4.24965
| 92>    H        8.56044        -9.30017        -0.72779
| 93>    H        7.89656        -7.82653        -0.02348
| 94>    H        7.23015        -7.28076        -3.63901
| 95>    H        6.48517        -7.52786        -2.06054
| 96>    H        7.79986        -9.72921        -3.78981
| 97>    H        6.06327        -9.47485        -3.55282
| 98>    H        7.07086       -10.01149        -2.19406
| 99>    H       10.90545        -8.38299        -0.47145
|100>    H       10.05480        -8.46412         1.08542
|101>    H       10.24584        -6.90098         0.25721
|102>    H        9.19244         2.99811        -0.12873
|103>    H       10.14461         1.61676        -0.67008
|104>    H        7.27063         1.38620        -2.96508
|105>    H        9.02620         1.46511        -2.83868
|106>    H        7.06416         3.79340        -2.32546
|107>    H        8.18725         3.61338        -3.68482
|108>    H        8.81713         3.90922        -2.05776
|109>    H        8.39713         1.65146         1.88120
|110>    H       10.15879         1.86686         1.84274
|111>    H        9.44541         0.30804         1.36649
|112> *
|113> 
|114>                          ****END OF INPUT****
================================================================================

                       ****************************
                       * Single Point Calculation *
                       ****************************

---------------------------------
CARTESIAN COORDINATES (ANGSTROEM)
---------------------------------
  C     -0.998980    5.031510    1.955280
  C     -2.150010    4.296190    2.226770
  C     -2.139210    2.890170    2.269390
  C     -0.958850    2.187590    2.050910
  C      0.188260    2.924880    1.781890
  C      0.193380    4.332250    1.724410
  C      1.552370    2.412870    1.497320
  C      2.399220    3.598810    1.238010
  C      1.566970    4.793210    1.392870
  C      3.728030    3.563600    0.855430
  C      4.640530    2.524290    0.561510
  C      5.931460    2.821440    0.054000
  C      6.668940    1.693310   -0.288820
  C      5.954670    0.509790   -0.005060
  S      4.387280    0.767440    0.646650
  C      8.021330    1.369970   -0.933510
  C      7.955090   -0.156550   -0.937670
  C      6.748150   -0.608890   -0.396290
  C      8.766610   -1.206270   -1.401560
  C      8.177530   -2.461010   -1.215600
  S      6.595510   -2.326850   -0.447830
  C      8.661220   -3.753310   -1.609260
  S     10.097270   -3.899200   -2.623230
  C      9.911140   -5.617120   -2.670700
  C      8.803410   -6.055130   -1.939850
  C      8.096840   -5.002730   -1.336800
  C     10.543640   -6.744930   -3.276610
  C      9.839090   -7.916480   -2.918040
  C      8.644550   -7.568650   -2.027870
  S     11.869960   -7.056390   -4.307510
  C     11.519540   -8.805160   -4.275220
  C     10.399580   -9.072560   -3.458780
  C     12.363370   -9.599470   -5.086920
  C     12.435460  -10.957990   -5.344090
  C     13.374680  -11.585570   -6.280570
  C     13.164820  -13.053100   -6.206150
  C     12.139200  -13.314610   -5.278810
  C     11.626290  -12.038190   -4.718000
  C     13.788540  -14.124010   -6.861890
  C     13.366290  -15.414550   -6.555200
  C     12.341510  -15.658090   -5.621190
  C     11.711460  -14.601430   -4.972000
  F     11.985690  -16.915170   -5.371170
  F     13.944080  -16.454500   -7.152030
  O     10.721990  -11.950070   -3.903510
  C     14.297140  -10.974310   -7.115200
  C     15.153930  -11.712290   -7.990600
  C     14.489240   -9.560050   -7.202910
  C      8.735260   -8.217340   -0.625160
  C      7.289790   -7.890830   -2.723410
  C      7.049890   -9.356600   -3.077890
  C     10.058180   -7.974880    0.100380
  C      9.228550    1.897310   -0.120910
  C      8.092130    1.864010   -2.407630
  C      8.038180    3.375200   -2.620370
  C      9.310860    1.399970    1.319570
  O      1.887760    1.239580    1.482320
  F     -3.299510    4.928310    2.452370
  F     -3.276710    2.247940    2.521530
  C      1.936460    6.121150    1.248630
  C      1.014470    7.204270    1.392450
  C      3.266930    6.540370    0.933560
  N      4.345570    6.890610    0.675960
  N      0.280110    8.098860    1.500660
  N     15.854440  -12.297530   -8.710160
  N     14.669100   -8.414560   -7.290630
  H     -1.079430    6.116490    1.930870
  H     -0.939680    1.096840    2.087500
  H      4.197850    4.533080    0.694910
  H      6.260540    3.855280   -0.056410
  H      9.744910   -1.080840   -1.867280
  H      7.198580   -5.120040   -0.729520
  H     10.059820  -10.095090   -3.308690
  H     13.096830   -8.995590   -5.620310
  H     14.586660  -14.007650   -7.591710
  H     10.913350  -14.780890   -4.249650
  H      8.560440   -9.300170   -0.727790
  H      7.896560   -7.826530   -0.023480
  H      7.230150   -7.280760   -3.639010
  H      6.485170   -7.527860   -2.060540
  H      7.799860   -9.729210   -3.789810
  H      6.063270   -9.474850   -3.552820
  H      7.070860  -10.011490   -2.194060
  H     10.905450   -8.382990   -0.471450
  H     10.054800   -8.464120    1.085420
  H     10.245840   -6.900980    0.257210
  H      9.192440    2.998110   -0.128730
  H     10.144610    1.616760   -0.670080
  H      7.270630    1.386200   -2.965080
  H      9.026200    1.465110   -2.838680
  H      7.064160    3.793400   -2.325460
  H      8.187250    3.613380   -3.684820
  H      8.817130    3.909220   -2.057760
  H      8.397130    1.651460    1.881200
  H     10.158790    1.866860    1.842740
  H      9.445410    0.308040    1.366490

----------------------------
CARTESIAN COORDINATES (A.U.)
----------------------------
  NO LB      ZA    FRAG     MASS         X           Y           Z
   0 C     6.0000    0    12.011   -1.887799    9.508176    3.694944
   1 C     6.0000    0    12.011   -4.062930    8.118623    4.207985
   2 C     6.0000    0    12.011   -4.042521    5.461630    4.288526
   3 C     6.0000    0    12.011   -1.811964    4.133946    3.875658
   4 C     6.0000    0    12.011    0.355760    5.527222    3.367284
   5 C     6.0000    0    12.011    0.365435    8.186766    3.258663
   6 C     6.0000    0    12.011    2.933554    4.559663    2.829525
   7 C     6.0000    0    12.011    4.533869    6.800765    2.339500
   8 C     6.0000    0    12.011    2.961144    9.057854    2.632143
   9 C     6.0000    0    12.011    7.044956    6.734228    1.616528
  10 C     6.0000    0    12.011    8.769331    4.770217    1.061100
  11 C     6.0000    0    12.011   11.208835    5.331749    0.102045
  12 C     6.0000    0    12.011   12.602470    3.199892   -0.545791
  13 C     6.0000    0    12.011   11.252696    0.963363   -0.009562
  14 S    16.0000    0    32.060    8.290758    1.450251    1.221991
  15 C     6.0000    0    12.011   15.158117    2.588868   -1.764078
  16 C     6.0000    0    12.011   15.032941   -0.295837   -1.771940
  17 C     6.0000    0    12.011   12.752155   -1.150635   -0.748880
  18 C     6.0000    0    12.011   16.566492   -2.279520   -2.648565
  19 C     6.0000    0    12.011   15.453292   -4.650635   -2.297151
  20 S    16.0000    0    32.060   12.463708   -4.397109   -0.846276
  21 C     6.0000    0    12.011   16.367334   -7.092728   -3.041061
  22 S    16.0000    0    32.060   19.081075   -7.368420   -4.957186
  23 C     6.0000    0    12.011   18.729340  -10.614818   -5.046892
  24 C     6.0000    0    12.011   16.636034  -11.442537   -3.665785
  25 C     6.0000    0    12.011   15.300810   -9.453790   -2.526186
  26 C     6.0000    0    12.011   19.924592  -12.746070   -6.191896
  27 C     6.0000    0    12.011   18.593186  -14.959979   -5.514296
  28 C     6.0000    0    12.011   16.335832  -14.302676   -3.832119
  29 S    16.0000    0    32.060   22.430974  -13.334645   -8.140014
  30 C     6.0000    0    12.011   21.768776  -16.639341   -8.078995
  31 C     6.0000    0    12.011   19.652358  -17.144654   -6.536147
  32 C     6.0000    0    12.011   23.363383  -18.140369   -9.612886
  33 C     6.0000    0    12.011   23.499614  -20.707600  -10.098867
  34 C     6.0000    0    12.011   25.274482  -21.893554  -11.868557
  35 C     6.0000    0    12.011   24.877904  -24.666784  -11.727924
  36 C     6.0000    0    12.011   22.939763  -25.160966   -9.975505
  37 C     6.0000    0    12.011   21.970504  -22.748882   -8.915728
  38 C     6.0000    0    12.011   26.056564  -26.690511  -12.967093
  39 C     6.0000    0    12.011   25.258628  -29.129278  -12.387533
  40 C     6.0000    0    12.011   23.322074  -29.589502  -10.622510
  41 C     6.0000    0    12.011   22.131452  -27.592704   -9.395718
  42 F     9.0000    0    18.998   22.649672  -31.965039  -10.150040
  43 F     9.0000    0    18.998   26.350492  -31.094499  -13.515378
  44 O     8.0000    0    15.999   20.261625  -22.582360   -7.376565
  45 C     6.0000    0    12.011   27.017679  -20.738440  -13.445779
  46 C     6.0000    0    12.011   28.636778  -22.133021  -15.100046
  47 C     6.0000    0    12.011   27.380695  -18.065876  -13.611527
  48 C     6.0000    0    12.011   16.507249  -15.528522   -1.181381
  49 C     6.0000    0    12.011   13.775707  -14.911508   -5.146499
  50 C     6.0000    0    12.011   13.322361  -17.681412   -5.816369
  51 C     6.0000    0    12.011   19.007206  -15.070339    0.189691
  52 C     6.0000    0    12.011   17.439432    3.585396   -0.228487
  53 C     6.0000    0    12.011   15.291910    3.522468   -4.549761
  54 C     6.0000    0    12.011   15.189959    6.378204   -4.951782
  55 C     6.0000    0    12.011   17.594975    2.645560    2.493626
  56 O     8.0000    0    15.999    3.567349    2.342467    2.801179
  57 F     9.0000    0    18.998   -6.235170    9.313156    4.634308
  58 F     9.0000    0    18.998   -6.192085    4.247991    4.765001
  59 C     6.0000    0    12.011    3.659379   11.567297    2.359569
  60 C     6.0000    0    12.011    1.917070   13.614097    2.631349
  61 C     6.0000    0    12.011    6.173603   12.359508    1.764173
  62 N     7.0000    0    14.007    8.211937   13.021366    1.277379
  63 N     7.0000    0    14.007    0.529331   15.304627    2.835836
  64 N     7.0000    0    14.007   29.960550  -23.238964  -16.459817
  65 N     7.0000    0    14.007   27.720582  -15.901214  -13.777294
  66 H     1.0000    0     1.008   -2.039827   11.558491    3.648816
  67 H     1.0000    0     1.008   -1.775738    2.072727    3.944803
  68 H     1.0000    0     1.008    7.932787    8.566280    1.313190
  69 H     1.0000    0     1.008   11.830706    7.285423   -0.106599
  70 H     1.0000    0     1.008   18.415211   -2.042492   -3.528648
  71 H     1.0000    0     1.008   13.603345   -9.675473   -1.378593
  72 H     1.0000    0     1.008   19.010305  -19.076955   -6.252518
  73 H     1.0000    0     1.008   24.749422  -16.999202  -10.620847
  74 H     1.0000    0     1.008   27.564793  -26.470622  -14.346253
  75 H     1.0000    0     1.008   20.623243  -27.931834   -8.030675
  76 H     1.0000    0     1.008   16.176887  -17.574774   -1.375324
  77 H     1.0000    0     1.008   14.922336  -14.789998   -0.044371
  78 H     1.0000    0     1.008   13.663003  -13.758642   -6.876732
  79 H     1.0000    0     1.008   12.255195  -14.225594   -3.893856
  80 H     1.0000    0     1.008   14.739599  -18.385542   -7.161703
  81 H     1.0000    0     1.008   11.457920  -17.904872   -6.713857
  82 H     1.0000    0     1.008   13.361989  -18.918974   -4.146173
  83 H     1.0000    0     1.008   20.608314  -15.841555   -0.890911
  84 H     1.0000    0     1.008   19.000818  -15.994869    2.051147
  85 H     1.0000    0     1.008   19.361832  -13.040962    0.486056
  86 H     1.0000    0     1.008   17.371194    5.665607   -0.243264
  87 H     1.0000    0     1.008   19.170535    3.055234   -1.266268
  88 H     1.0000    0     1.008   13.739500    2.619538   -5.603189
  89 H     1.0000    0     1.008   17.057046    2.768657   -5.364328
  90 H     1.0000    0     1.008   13.349328    7.168487   -4.394483
  91 H     1.0000    0     1.008   15.471660    6.828299   -6.963301
  92 H     1.0000    0     1.008   16.661961    7.387355   -3.888603
  93 H     1.0000    0     1.008   15.868276    3.120807    3.554953
  94 H     1.0000    0     1.008   19.197331    3.527854    3.482274
  95 H     1.0000    0     1.008   17.849238    0.582111    2.582292

--------------------------------
INTERNAL COORDINATES (ANGSTROEM)
--------------------------------
 C      0   0   0     0.000000000000     0.00000000     0.00000000
 C      1   0   0     1.392577604085     0.00000000     0.00000000
 C      2   1   0     1.406707270472   121.82529282     0.00000000
 C      3   2   1     1.390899671580   120.43999838     0.62386357
 C      4   3   2     1.389902750771   117.57064297   359.47979406
 C      1   2   3     1.401423517035   118.15721330   359.83396071
 C      5   4   3     1.484564049511   127.77073904   180.96014315
 C      7   5   4     1.480152114548   106.43706723   178.25035174
 C      8   7   5     1.463971667110   108.05366389     1.19072055
 C      8   7   5     1.383236500603   125.28788558   183.94942084
 C     10   8   7     1.413934401767   134.12084726     2.39870466
 C     11  10   8     1.418578438966   120.50998929   173.40860469
 C     12  11  10     1.390711903918   113.63086172   185.05248529
 C     13  12  11     1.411177154329   111.24456570   358.20329193
 S     14  13  12     1.716921913979   114.36448439     1.05947652
 C     13  12  11     1.532688051692   137.96422385   175.48471683
 C     16  13  12     1.527962157123   100.00049083   181.71382691
 C     17  16  13     1.398001410443   111.07742898     0.66764089
 C     17  16  13     1.405585543786   136.21858785   176.95034941
 C     19  17  16     1.398559557402   112.51682458   183.83747909
 S     18  17  16     1.725497581221   112.76503858   177.29593809
 C     20  19  17     1.434908882717   129.01615702   176.88001469
 S     22  20  19     1.763989414793   120.43784162   352.43615332
 C     23  22  20     1.728625727044    90.59130246   182.87698998
 C     24  23  22     1.397519314893   112.48645881   359.80374022
 C     22  20  19     1.397787384547   127.98380455   175.46823849
 C     24  23  22     1.427984094519   138.49169506   177.53458211
 C     27  24  23     1.413326766852   109.04001289   181.66390821
 C     25  24  23     1.524377515709   111.32108270   178.59701129
 S     27  24  23     1.708475017084   138.06201147     0.53610182
 C     30  27  24     1.783825477282    90.87640549   180.67498924
 C     28  27  24     1.393940369636   112.86870695   180.59615393
 C     31  30  27     1.414861949096   115.01324133   177.23323735
 C     33  31  30     1.384525177597   133.50954030   179.93770361
 C     34  33  31     1.467305576627   124.85861628   177.43271390
 C     35  34  33     1.484326061517   107.47985812   177.23472616
 C     36  35  34     1.407211192430   108.65191581     0.49625333
 C     37  36  35     1.485541160857   109.92222494     0.53284196
 C     36  35  34     1.402094794976   131.97506318   180.83978642
 C     39  36  35     1.392065842624   118.04186729   179.17565551
 C     40  39  36     1.407785658437   121.82655187     0.24439369
 C     37  36  35     1.390323558061   122.79622046   180.57905943
 F     41  40  39     1.330175927913   118.87595132   180.09784058
 F     40  39  36     1.330993364183   119.59619276   180.50158868
 O     38  37  36     1.220212106357   124.74452683   178.94519521
 C     35  34  33     1.386065826756   128.44003481   356.55140012
 C     46  35  34     1.430045014851   122.66778115   180.33186541
 C     46  35  34     1.429939439871   124.22960225   359.88937718
 C     29  25  24     1.548102827431   110.95367690   119.52433630
 C     29  25  24     1.556582956864   108.78433837   242.73808448
 C     50  29  25     1.526987155578   116.04955067   171.60131256
 C     49  29  25     1.528172918750   114.48335518   299.87680704
 C     16  13  12     1.547832795879   113.29675819    62.29446443
 C     16  13  12     1.556315500148   111.81334685   296.34560847
 C     54  16  13     1.527044245004   116.39110704    65.37593961
 C     53  16  13     1.526140439835   115.24967851    57.25106015
 O      7   5   4     1.220377349921   125.90648886   358.39689020
 F      2   1   3     1.331097781682   119.74044044   180.08945880
 F      3   2   1     1.330390996099   118.79516318   180.64629485
 C      9   8   7     1.385912219911   128.25519045   179.83466029
 C     60   9   8     1.429649847655   122.92337361   178.26226674
 C     60   9   8     1.430092631335   123.49342818   358.73645593
 N     62  60   9     1.162966064509   179.50769365   170.56065367
 N     61  60   9     1.162447969502   178.89348899   191.99042862
 N     47  46  35     1.162319539240   179.15430066   167.29790377
 N     48  46  35     1.162837803866   178.56439835   170.90893542
 H      1   2   3     1.088232351568   118.01603556   179.58867368
 H      4   3   2     1.091531895778   120.95755802   179.65657668
 H     10   8   7     1.089214842536   115.62443679   179.29008233
 H     12  11  10     1.090554519545   120.62379770     3.91590861
 H     19  17  16     1.090733099021   124.95100389     3.23215504
 H     26  22  20     1.090606098507   122.49600625   357.53912746
 H     32  28  27     1.087902324016   126.90070366   178.22979693
 H     33  31  30     1.089559322892   111.78833339   359.23389047
 H     39  36  35     1.087737291997   123.95167801   359.54838901
 H     42  37  36     1.091318004158   121.55144133   180.04130854
 H     49  29  25     1.101642300477   108.55151590   176.91632564
 H     49  29  25     1.103706921470   107.52067633    62.47793396
 H     50  29  25     1.101846493165   107.68703121    48.81545660
 H     50  29  25     1.103882784629   107.33834759   294.94522374
 H     51  50  29     1.099146623249   111.62754865   298.31432968
 H     51  50  29     1.101344901382   110.11540254   179.38129115
 H     51  50  29     1.100216397760   112.45102152    59.60959619
 H     52  49  29     1.100640619776   111.15591158   299.64759352
 H     52  49  29     1.099850446015   110.60842607   180.15352494
 H     52  49  29     1.101395993501   111.70344150    59.99742226
 H     53  16  13     1.101419867489   108.13193687   294.34837435
 H     53  16  13     1.104292495220   107.41920450   180.21499837
 H     54  16  13     1.101778175769   107.91755455   301.98447694
 H     54  16  13     1.103363982283   107.08457539   188.17648643
 H     55  54  16     1.100262745211   111.72051488   293.96352482
 H     55  54  16     1.100911158904   110.12191910   174.87237181
 H     55  54  16     1.099304541517   112.60666379    55.43361290
 H     56  53  16     1.101625158527   111.22763155   302.73731165
 H     56  53  16     1.100308323108   110.61402211   183.40576452
 H     56  53  16     1.101188591387   111.71239804    63.26850297

---------------------------
INTERNAL COORDINATES (A.U.)
---------------------------
 C      0   0   0     0.000000000000     0.00000000     0.00000000
 C      1   0   0     2.631590291953     0.00000000     0.00000000
 C      2   1   0     2.658291491789   121.82529282     0.00000000
 C      3   2   1     2.628419459046   120.43999838     0.62386357
 C      4   3   2     2.626535551740   117.57064297   359.47979406
 C      1   2   3     2.648306644834   118.15721330   359.83396071
 C      5   4   3     2.805419481841   127.77073904   180.96014315
 C      7   5   4     2.797082133040   106.43706723   178.25035174
 C      8   7   5     2.766505518657   108.05366389     1.19072055
 C      8   7   5     2.613938164583   125.28788558   183.94942084
 C     10   8   7     2.671948790669   134.12084726     2.39870466
 C     11  10   8     2.680724749132   120.50998929   173.40860469
 C     12  11  10     2.628064629590   113.63086172   185.05248529
 C     13  12  11     2.666738348128   111.24456570   358.20329193
 S     14  13  12     3.244512210747   114.36448439     1.05947652
 C     13  12  11     2.896360666432   137.96422385   175.48471683
 C     16  13  12     2.887430019958   100.00049083   181.71382691
 C     17  16  13     2.641839800572   111.07742898     0.66764089
 C     17  16  13     2.656171735554   136.21858785   176.95034941
 C     19  17  16     2.642894545468   112.51682458   183.83747909
 S     18  17  16     3.260717873251   112.76503858   177.29593809
 C     20  19  17     2.711584815466   129.01615702   176.88001469
 S     22  20  19     3.333456897094   120.43784162   352.43615332
 C     23  22  20     3.266629212165    90.59130246   182.87698998
 C     24  23  22     2.640928772014   112.48645881   359.80374022
 C     22  20  19     2.641435350245   127.98380455   175.46823849
 C     24  23  22     2.698498862237   138.49169506   177.53458211
 C     27  24  23     2.670800527090   109.04001289   181.66390821
 C     25  24  23     2.880656029398   111.32108270   178.59701129
 S     27  24  23     3.228549888935   138.06201147     0.53610182
 C     30  27  24     3.370941622774    90.87640549   180.67498924
 C     28  27  24     2.634165545628   112.86870695   180.59615393
 C     31  30  27     2.673701601098   115.01324133   177.23323735
 C     33  31  30     2.616373411177   133.50954030   179.93770361
 C     34  33  31     2.772805694600   124.85861628   177.43271390
 C     35  34  33     2.804969749710   107.47985812   177.23472616
 C     36  35  34     2.659243766281   108.65191581     0.49625333
 C     37  36  35     2.807265954687   109.92222494     0.53284196
 C     36  35  34     2.649575176302   131.97506318   180.83978642
 C     39  36  35     2.630623202945   118.04186729   179.17565551
 C     40  39  36     2.660329349707   121.82655187     0.24439369
 C     37  36  35     2.627330762275   122.79622046   180.57905943
 F     41  40  39     2.513668213691   118.87595132   180.09784058
 F     40  39  36     2.515212944373   119.59619276   180.50158868
 O     38  37  36     2.305866706310   124.74452683   178.94519521
 C     35  34  33     2.619284816155   128.44003481   356.55140012
 C     46  35  34     2.702393437248   122.66778115   180.33186541
 C     46  35  34     2.702193929450   124.22960225   359.88937718
 C     29  25  24     2.925490370994   110.95367690   119.52433630
 C     29  25  24     2.941515493203   108.78433837   242.73808448
 C     50  29  25     2.885587534058   116.04955067   171.60131256
 C     49  29  25     2.887828301712   114.48335518   299.87680704
 C     16  13  12     2.924980085314   113.29675819    62.29446443
 C     16  13  12     2.941010073256   111.81334685   296.34560847
 C     54  16  13     2.885695417438   116.39110704    65.37593961
 C     53  16  13     2.883987473190   115.24967851    57.25106015
 O      7   5   4     2.306178971391   125.90648886   358.39689020
 F      2   1   3     2.515410264850   119.74044044   180.08945880
 F      3   2   1     2.514074633661   118.79516318   180.64629485
 C      9   8   7     2.618994541288   128.25519045   179.83466029
 C     60   9   8     2.701646679470   122.92337361   178.26226674
 C     60   9   8     2.702483419363   123.49342818   358.73645593
 N     62  60   9     2.197687364967   179.50769365   170.56065367
 N     61  60   9     2.196708307292   178.89348899   191.99042862
 N     47  46  35     2.196465609270   179.15430066   167.29790377
 N     48  46  35     2.197444987477   178.56439835   170.90893542
 H      1   2   3     2.056461114537   118.01603556   179.58867368
 H      4   3   2     2.062696349460   120.95755802   179.65657668
 H     10   8   7     2.058317753395   115.62443679   179.29008233
 H     12  11  10     2.060849376050   120.62379770     3.91590861
 H     19  17  16     2.061186842353   124.95100389     3.23215504
 H     26  22  20     2.060946846162   122.49600625   357.53912746
 H     32  28  27     2.055837452847   126.90070366   178.22979693
 H     33  31  30     2.058968726926   111.78833339   359.23389047
 H     39  36  35     2.055525587527   123.95167801   359.54838901
 H     42  37  36     2.062292152877   121.55144133   180.04130854
 H     49  29  25     2.081802245444   108.55151590   176.91632564
 H     49  29  25     2.085703813691   107.52067633    62.47793396
 H     50  29  25     2.082188113703   107.68703121    48.81545660
 H     50  29  25     2.086036146899   107.33834759   294.94522374
 H     51  50  29     2.077086098965   111.62754865   298.31432968
 H     51  50  29     2.081240242602   110.11540254   179.38129115
 H     51  50  29     2.079107679816   112.45102152    59.60959619
 H     52  49  29     2.079909343245   111.15591158   299.64759352
 H     52  49  29     2.078416131240   110.60842607   180.15352494
 H     52  49  29     2.081336792715   111.70344150    59.99742226
 H     53  16  13     2.081381908014   108.13193687   294.34837435
 H     53  16  13     2.086810387711   107.41920450   180.21499837
 H     54  16  13     2.082059012534   107.91755455   301.98447694
 H     54  16  13     2.085055752548   107.08457539   188.17648643
 H     55  54  16     2.079195263806   111.72051488   293.96352482
 H     55  54  16     2.080420588107   110.12191910   174.87237181
 H     55  54  16     2.077384521243   112.60666379    55.43361290
 H     56  53  16     2.081769851854   111.22763155   302.73731165
 H     56  53  16     2.079281393548   110.61402211   183.40576452
 H     56  53  16     2.080944859519   111.71239804    63.26850297

---------------------
BASIS SET INFORMATION
---------------------
There are 6 groups of distinct atoms

 Group   1 Type C   : 11s6p2d1f contracted to 5s3p2d1f pattern {62111/411/11/1}
 Group   2 Type S   : 14s9p3d1f contracted to 5s5p2d1f pattern {73211/51111/21/1}
 Group   3 Type F   : 11s6p2d1f contracted to 5s3p2d1f pattern {62111/411/11/1}
 Group   4 Type O   : 11s6p2d1f contracted to 5s3p2d1f pattern {62111/411/11/1}
 Group   5 Type N   : 11s6p2d1f contracted to 5s3p2d1f pattern {62111/411/11/1}
 Group   6 Type H   : 5s1p contracted to 3s1p pattern {311/1}

Atom   0C    basis set group =>   1
Atom   1C    basis set group =>   1
Atom   2C    basis set group =>   1
Atom   3C    basis set group =>   1
Atom   4C    basis set group =>   1
Atom   5C    basis set group =>   1
Atom   6C    basis set group =>   1
Atom   7C    basis set group =>   1
Atom   8C    basis set group =>   1
Atom   9C    basis set group =>   1
Atom  10C    basis set group =>   1
Atom  11C    basis set group =>   1
Atom  12C    basis set group =>   1
Atom  13C    basis set group =>   1
Atom  14S    basis set group =>   2
Atom  15C    basis set group =>   1
Atom  16C    basis set group =>   1
Atom  17C    basis set group =>   1
Atom  18C    basis set group =>   1
Atom  19C    basis set group =>   1
Atom  20S    basis set group =>   2
Atom  21C    basis set group =>   1
Atom  22S    basis set group =>   2
Atom  23C    basis set group =>   1
Atom  24C    basis set group =>   1
Atom  25C    basis set group =>   1
Atom  26C    basis set group =>   1
Atom  27C    basis set group =>   1
Atom  28C    basis set group =>   1
Atom  29S    basis set group =>   2
Atom  30C    basis set group =>   1
Atom  31C    basis set group =>   1
Atom  32C    basis set group =>   1
Atom  33C    basis set group =>   1
Atom  34C    basis set group =>   1
Atom  35C    basis set group =>   1
Atom  36C    basis set group =>   1
Atom  37C    basis set group =>   1
Atom  38C    basis set group =>   1
Atom  39C    basis set group =>   1
Atom  40C    basis set group =>   1
Atom  41C    basis set group =>   1
Atom  42F    basis set group =>   3
Atom  43F    basis set group =>   3
Atom  44O    basis set group =>   4
Atom  45C    basis set group =>   1
Atom  46C    basis set group =>   1
Atom  47C    basis set group =>   1
Atom  48C    basis set group =>   1
Atom  49C    basis set group =>   1
Atom  50C    basis set group =>   1
Atom  51C    basis set group =>   1
Atom  52C    basis set group =>   1
Atom  53C    basis set group =>   1
Atom  54C    basis set group =>   1
Atom  55C    basis set group =>   1
Atom  56O    basis set group =>   4
Atom  57F    basis set group =>   3
Atom  58F    basis set group =>   3
Atom  59C    basis set group =>   1
Atom  60C    basis set group =>   1
Atom  61C    basis set group =>   1
Atom  62N    basis set group =>   5
Atom  63N    basis set group =>   5
Atom  64N    basis set group =>   5
Atom  65N    basis set group =>   5
Atom  66H    basis set group =>   6
Atom  67H    basis set group =>   6
Atom  68H    basis set group =>   6
Atom  69H    basis set group =>   6
Atom  70H    basis set group =>   6
Atom  71H    basis set group =>   6
Atom  72H    basis set group =>   6
Atom  73H    basis set group =>   6
Atom  74H    basis set group =>   6
Atom  75H    basis set group =>   6
Atom  76H    basis set group =>   6
Atom  77H    basis set group =>   6
Atom  78H    basis set group =>   6
Atom  79H    basis set group =>   6
Atom  80H    basis set group =>   6
Atom  81H    basis set group =>   6
Atom  82H    basis set group =>   6
Atom  83H    basis set group =>   6
Atom  84H    basis set group =>   6
Atom  85H    basis set group =>   6
Atom  86H    basis set group =>   6
Atom  87H    basis set group =>   6
Atom  88H    basis set group =>   6
Atom  89H    basis set group =>   6
Atom  90H    basis set group =>   6
Atom  91H    basis set group =>   6
Atom  92H    basis set group =>   6
Atom  93H    basis set group =>   6
Atom  94H    basis set group =>   6
Atom  95H    basis set group =>   6
---------------------------------
AUXILIARY/J BASIS SET INFORMATION
---------------------------------
There are 6 groups of distinct atoms

 Group   1 Type C   : 12s5p4d2f1g contracted to 6s4p3d1f1g pattern {711111/2111/211/2/1}
 Group   2 Type S   : 14s5p5d2f1g contracted to 8s4p3d1f1g pattern {71111111/2111/311/2/1}
 Group   3 Type F   : 12s5p4d2f1g contracted to 6s4p3d1f1g pattern {711111/2111/211/2/1}
 Group   4 Type O   : 12s5p4d2f1g contracted to 6s4p3d1f1g pattern {711111/2111/211/2/1}
 Group   5 Type N   : 12s5p4d2f1g contracted to 6s4p3d1f1g pattern {711111/2111/211/2/1}
 Group   6 Type H   : 5s2p1d contracted to 3s1p1d pattern {311/2/1}

Atom   0C    basis set group =>   1
Atom   1C    basis set group =>   1
Atom   2C    basis set group =>   1
Atom   3C    basis set group =>   1
Atom   4C    basis set group =>   1
Atom   5C    basis set group =>   1
Atom   6C    basis set group =>   1
Atom   7C    basis set group =>   1
Atom   8C    basis set group =>   1
Atom   9C    basis set group =>   1
Atom  10C    basis set group =>   1
Atom  11C    basis set group =>   1
Atom  12C    basis set group =>   1
Atom  13C    basis set group =>   1
Atom  14S    basis set group =>   2
Atom  15C    basis set group =>   1
Atom  16C    basis set group =>   1
Atom  17C    basis set group =>   1
Atom  18C    basis set group =>   1
Atom  19C    basis set group =>   1
Atom  20S    basis set group =>   2
Atom  21C    basis set group =>   1
Atom  22S    basis set group =>   2
Atom  23C    basis set group =>   1
Atom  24C    basis set group =>   1
Atom  25C    basis set group =>   1
Atom  26C    basis set group =>   1
Atom  27C    basis set group =>   1
Atom  28C    basis set group =>   1
Atom  29S    basis set group =>   2
Atom  30C    basis set group =>   1
Atom  31C    basis set group =>   1
Atom  32C    basis set group =>   1
Atom  33C    basis set group =>   1
Atom  34C    basis set group =>   1
Atom  35C    basis set group =>   1
Atom  36C    basis set group =>   1
Atom  37C    basis set group =>   1
Atom  38C    basis set group =>   1
Atom  39C    basis set group =>   1
Atom  40C    basis set group =>   1
Atom  41C    basis set group =>   1
Atom  42F    basis set group =>   3
Atom  43F    basis set group =>   3
Atom  44O    basis set group =>   4
Atom  45C    basis set group =>   1
Atom  46C    basis set group =>   1
Atom  47C    basis set group =>   1
Atom  48C    basis set group =>   1
Atom  49C    basis set group =>   1
Atom  50C    basis set group =>   1
Atom  51C    basis set group =>   1
Atom  52C    basis set group =>   1
Atom  53C    basis set group =>   1
Atom  54C    basis set group =>   1
Atom  55C    basis set group =>   1
Atom  56O    basis set group =>   4
Atom  57F    basis set group =>   3
Atom  58F    basis set group =>   3
Atom  59C    basis set group =>   1
Atom  60C    basis set group =>   1
Atom  61C    basis set group =>   1
Atom  62N    basis set group =>   5
Atom  63N    basis set group =>   5
Atom  64N    basis set group =>   5
Atom  65N    basis set group =>   5
Atom  66H    basis set group =>   6
Atom  67H    basis set group =>   6
Atom  68H    basis set group =>   6
Atom  69H    basis set group =>   6
Atom  70H    basis set group =>   6
Atom  71H    basis set group =>   6
Atom  72H    basis set group =>   6
Atom  73H    basis set group =>   6
Atom  74H    basis set group =>   6
Atom  75H    basis set group =>   6
Atom  76H    basis set group =>   6
Atom  77H    basis set group =>   6
Atom  78H    basis set group =>   6
Atom  79H    basis set group =>   6
Atom  80H    basis set group =>   6
Atom  81H    basis set group =>   6
Atom  82H    basis set group =>   6
Atom  83H    basis set group =>   6
Atom  84H    basis set group =>   6
Atom  85H    basis set group =>   6
Atom  86H    basis set group =>   6
Atom  87H    basis set group =>   6
Atom  88H    basis set group =>   6
Atom  89H    basis set group =>   6
Atom  90H    basis set group =>   6
Atom  91H    basis set group =>   6
Atom  92H    basis set group =>   6
Atom  93H    basis set group =>   6
Atom  94H    basis set group =>   6
Atom  95H    basis set group =>   6


           ************************************************************
           *        Program running with 6 parallel MPI-processes     *
           *              working on a common directory               *
           ************************************************************
------------------------------------------------------------------------------
                           ORCA GTO INTEGRAL CALCULATION
                           -- RI-GTO INTEGRALS CHOSEN --
------------------------------------------------------------------------------

                         BASIS SET STATISTICS AND STARTUP INFO

Gaussian basis set:
 # of primitive gaussian shells          ... 1528
 # of primitive gaussian functions       ... 3344
 # of contracted shells                  ...  854
 # of contracted basis functions         ... 2250
 Highest angular momentum                ...    3
 Maximum contraction depth               ...    7
Auxiliary gaussian basis set:
 # of primitive gaussian shells          ... 1836
 # of primitive gaussian functions       ... 5128
 # of contracted shells                  ... 1148
 # of contracted aux-basis functions     ... 3572
 Highest angular momentum                ...    4
 Maximum contraction depth               ...    7
Ratio of auxiliary to basis functions    ...  1.59
Integral package used                  ... LIBINT
 One Electron integrals                  ... done
 Ordering auxiliary basis shells         ... done
 Integral threshhold             Thresh  ...  2.500e-11
 Primitive cut-off               TCut    ...  2.500e-12
 Pre-screening matrix                    ... done
 Shell pair data                         ... 
 Ordering of the shell pairs             ... done (   0.026 sec) 116985 of 365085 pairs
 Determination of significant pairs      ... done (   0.000 sec)
 Creation of shell pair data             ... done (   0.010 sec)
 Storage of shell pair data              ... done (   0.104 sec)
 Shell pair data done in (   0.140 sec)
 Computing two index integrals           ... done
 Cholesky decomposition of the V-matrix  ... done


Timings:
 Total evaluation time                   ...   5.366 sec (  0.089 min)
 One electron matrix time                ...   1.498 sec (  0.025 min) = 27.9%
 Schwartz matrix evaluation time         ...   2.739 sec (  0.046 min) = 51.0%
 Two index repulsion integral time       ...   0.212 sec (  0.004 min) =  4.0%
 Cholesky decomposition of V             ...   0.760 sec (  0.013 min) = 14.2%
 Three index repulsion integral time     ...   0.000 sec (  0.000 min) =  0.0%



           ************************************************************
           *        Program running with 6 parallel MPI-processes     *
           *              working on a common directory               *
           ************************************************************
-------------------------------------------------------------------------------
                                 ORCA SCF
-------------------------------------------------------------------------------

------------
SCF SETTINGS
------------
Hamiltonian:
 Density Functional     Method          .... DFT(GTOs)
 Exchange Functional    Exchange        .... B88
   X-Alpha parameter    XAlpha          ....  0.666667
   Becke's b parameter  XBeta           ....  0.004200
 Correlation Functional Correlation     .... LYP
 LDA part of GGA corr.  LDAOpt          .... VWN-5
 Gradients option       PostSCFGGA      .... off
 Hybrid DFT is turned on
   Fraction HF Exchange ScalHFX         ....  0.200000
   Scaling of DF-GGA-X  ScalDFX         ....  0.720000
   Scaling of DF-GGA-C  ScalDFC         ....  0.810000
   Scaling of DF-LDA-C  ScalLDAC        ....  1.000000
   Perturbative correction              ....  0.000000
   Density functional embedding theory  .... OFF
   NL short-range parameter             ....  4.800000
 RI-approximation to the Coulomb term is turned on
   Number of auxiliary basis functions  .... 3572
   RIJ-COSX (HFX calculated with COS-X)).... on


General Settings:
 Integral files         IntName         .... CPDT-4F
 Hartree-Fock type      HFTyp           .... RHF
 Total Charge           Charge          ....    0
 Multiplicity           Mult            ....    1
 Number of Electrons    NEL             ....  486
 Basis Dimension        Dim             .... 2250
 Nuclear Repulsion      ENuc            ....   9120.0844242364 Eh

Convergence Acceleration:
 DIIS                   CNVDIIS         .... on
   Start iteration      DIISMaxIt       ....    12
   Startup error        DIISStart       ....  0.200000
   # of expansion vecs  DIISMaxEq       ....     5
   Bias factor          DIISBfac        ....   1.050
   Max. coefficient     DIISMaxC        ....  10.000
 Newton-Raphson         CNVNR           .... off
 SOSCF                  CNVSOSCF        .... on
   Start iteration      SOSCFMaxIt      ....   150
   Startup grad/error   SOSCFStart      ....  0.003300
 Level Shifting         CNVShift        .... on
   Level shift para.    LevelShift      ....    0.2500
   Turn off err/grad.   ShiftErr        ....    0.0010
 Zerner damping         CNVZerner       .... off
 Static damping         CNVDamp         .... on
   Fraction old density DampFac         ....    0.7000
   Max. Damping (<1)    DampMax         ....    0.9800
   Min. Damping (>=0)   DampMin         ....    0.0000
   Turn off err/grad.   DampErr         ....    0.1000
 Fernandez-Rico         CNVRico         .... off

SCF Procedure:
 Maximum # iterations   MaxIter         ....   125
 SCF integral mode      SCFMode         .... Direct
   Integral package                     .... LIBINT
 Reset frequency        DirectResetFreq ....    20
 Integral Threshold     Thresh          ....  2.500e-11 Eh
 Primitive CutOff       TCut            ....  2.500e-12 Eh

Convergence Tolerance:
 Convergence Check Mode ConvCheckMode   .... Total+1el-Energy
 Convergence forced     ConvForced      .... 1
 Energy Change          TolE            ....  1.000e-08 Eh
 1-El. energy change                    ....  1.000e-05 Eh
 Orbital Gradient       TolG            ....  1.000e-05
 Orbital Rotation angle TolX            ....  1.000e-05
 DIIS Error             TolErr          ....  5.000e-07


Diagonalization of the overlap matrix:
Smallest eigenvalue                        ... 2.881e-06
Time for diagonalization                   ...    1.669 sec
Threshold for overlap eigenvalues          ... 1.000e-08
Number of eigenvalues below threshold      ... 0
Time for construction of square roots      ...    1.227 sec
Total time needed                          ...    2.900 sec

-------------------
DFT GRID GENERATION
-------------------

General Integration Accuracy     IntAcc      ...  4.670
Radial Grid Type                 RadialGrid  ... Gauss-Chebyshev
Angular Grid (max. acc.)         AngularGrid ... Lebedev-302
Angular grid pruning method      GridPruning ... 3 (G Style)
Weight generation scheme         WeightScheme... Becke
Basis function cutoff            BFCut       ...    1.0000e-11
Integration weight cutoff        WCut        ...    1.0000e-14
Grids for H and He will be reduced by one unit

# of grid points (after initial pruning)     ... 514588 (   0.0 sec)
# of grid points (after weights+screening)   ... 441094 (   3.9 sec)
nearest neighbour list constructed           ...    0.0 sec
Grid point re-assignment to atoms done       ...    0.1 sec
Grid point division into batches done        ...    1.7 sec
Reduced shell lists constructed in    3.0 sec

Total number of grid points                  ...   441094
Total number of batches                      ...     6940
Average number of points per batch           ...       63
Average number of grid points per atom       ...     4595
Average number of shells per batch           ...   171.85 (20.12%)
Average number of basis functions per batch  ...   450.29 (20.01%)
Average number of large shells per batch     ...   112.79 (65.63%)
Average number of large basis fcns per batch ...   300.21 (66.67%)
Maximum spatial batch extension              ...  16.37, 14.41, 20.81 au
Average spatial batch extension              ...   0.26,  0.24,  0.30 au

Time for grid setup =    7.329 sec

------------------------------
INITIAL GUESS: MODEL POTENTIAL
------------------------------
Loading Hartree-Fock densities                     ... done
Calculating cut-offs                               ... done
Setting up the integral package                    ... done
Initializing the effective Hamiltonian             ... done
Starting the Coulomb interaction                   ... done (   3.5 sec)
Reading the grid                                   ... done
Mapping shells                                     ... done
Starting the XC term evaluation                    ... done (   3.1 sec)
  promolecular density results
     # of electrons  =    485.985488340
     EX              =   -459.205115673
     EC              =    -17.243784490
     EX+EC           =   -476.448900164
Transforming the Hamiltonian                       ... done (   1.5 sec)
Diagonalizing the Hamiltonian                      ... done (   1.6 sec)
Back transforming the eigenvectors                 ... done (   0.6 sec)
Now organizing SCF variables                       ... done
                      ------------------
                      INITIAL GUESS DONE (  17.8 sec)
                      ------------------
--------------------
COSX GRID GENERATION
--------------------

General Integration Accuracy     IntAcc      ...  3.340
Radial Grid Type                 RadialGrid  ... Gauss-Chebyshev
Angular Grid (max. acc.)         AngularGrid ... Lebedev-50
Angular grid pruning method      GridPruning ... 3 (G Style)
Weight generation scheme         WeightScheme... Becke
Basis function cutoff            BFCut       ...    1.0000e-11
Integration weight cutoff        WCut        ...    1.0000e-14
Grids for H and He will be reduced by one unit

# of grid points (after initial pruning)     ...  48328 (   0.0 sec)
# of grid points (after weights+screening)   ...  43259 (   0.4 sec)
nearest neighbour list constructed           ...    0.0 sec
Grid point re-assignment to atoms done       ...    0.0 sec
Grid point division into batches done        ...    0.0 sec
Reduced shell lists constructed in    0.2 sec

Total number of grid points                  ...    43259
Total number of batches                      ...      725
Average number of points per batch           ...       59
Average number of grid points per atom       ...      451
Average number of shells per batch           ...   194.89 (22.82%)
Average number of basis functions per batch  ...   515.07 (22.89%)
Average number of large shells per batch     ...   129.25 (66.32%)
Average number of large basis fcns per batch ...   349.19 (67.79%)
Maximum spatial batch extension              ...  14.06, 14.93, 25.73 au
Average spatial batch extension              ...   0.52,  0.44,  0.87 au

Overlap Fitting                  UseSFitting ... on
Constructing numerical overlap ... done (      0.5 sec)
Inverting numerical overlap    ... done (      0.5 sec)
Obtaining analytic overlap     ... done (      0.0 sec)
Final contraction and storage  ... done (      5.6 sec)


General Integration Accuracy     IntAcc      ...  3.670
Radial Grid Type                 RadialGrid  ... Gauss-Chebyshev
Angular Grid (max. acc.)         AngularGrid ... Lebedev-50
Angular grid pruning method      GridPruning ... 3 (G Style)
Weight generation scheme         WeightScheme... Becke
Basis function cutoff            BFCut       ...    1.0000e-11
Integration weight cutoff        WCut        ...    1.0000e-14
Grids for H and He will be reduced by one unit

# of grid points (after initial pruning)     ...  60380 (   0.0 sec)
# of grid points (after weights+screening)   ...  53810 (   0.5 sec)
nearest neighbour list constructed           ...    0.0 sec
Grid point re-assignment to atoms done       ...    0.0 sec
Grid point division into batches done        ...    0.0 sec
Reduced shell lists constructed in    0.2 sec

Total number of grid points                  ...    53810
Total number of batches                      ...      896
Average number of points per batch           ...       60
Average number of grid points per atom       ...      561
Average number of shells per batch           ...   193.91 (22.71%)
Average number of basis functions per batch  ...   512.60 (22.78%)
Average number of large shells per batch     ...   127.46 (65.73%)
Average number of large basis fcns per batch ...   343.38 (66.99%)
Maximum spatial batch extension              ...  15.93, 16.03, 27.37 au
Average spatial batch extension              ...   0.47,  0.42,  0.75 au

Overlap Fitting                  UseSFitting ... on
Constructing numerical overlap ... done (      0.5 sec)
Inverting numerical overlap    ... done (      0.5 sec)
Obtaining analytic overlap     ... done (      0.0 sec)
Final contraction and storage  ... done (      5.7 sec)


General Integration Accuracy     IntAcc      ...  4.010
Radial Grid Type                 RadialGrid  ... Gauss-Chebyshev
Angular Grid (max. acc.)         AngularGrid ... Lebedev-110
Angular grid pruning method      GridPruning ... 3 (G Style)
Weight generation scheme         WeightScheme... Becke
Basis function cutoff            BFCut       ...    1.0000e-11
Integration weight cutoff        WCut        ...    1.0000e-14
Grids for H and He will be reduced by one unit

# of grid points (after initial pruning)     ... 117404 (   0.0 sec)
# of grid points (after weights+screening)   ... 103750 (   0.9 sec)
nearest neighbour list constructed           ...    0.0 sec
Grid point re-assignment to atoms done       ...    0.0 sec
Grid point division into batches done        ...    0.1 sec
Reduced shell lists constructed in    0.4 sec

Total number of grid points                  ...   103750
Total number of batches                      ...     1671
Average number of points per batch           ...       62
Average number of grid points per atom       ...     1081
Average number of shells per batch           ...   185.79 (21.76%)
Average number of basis functions per batch  ...   490.45 (21.80%)
Average number of large shells per batch     ...   122.91 (66.15%)
Average number of large basis fcns per batch ...   330.11 (67.31%)
Maximum spatial batch extension              ...  14.06, 12.14, 31.54 au
Average spatial batch extension              ...   0.43,  0.38,  0.60 au

Overlap Fitting                  UseSFitting ... on
Constructing numerical overlap ... done (      1.0 sec)
Inverting numerical overlap    ... done (      0.5 sec)
Obtaining analytic overlap     ... done (      0.0 sec)
Final contraction and storage  ... done (      5.6 sec)

Time for X-Grid setup             =   23.474 sec
--------------
SCF ITERATIONS
--------------
ITER       Energy         Delta-E        Max-DP      RMS-DP      [F,P]     Damp
               ***  Starting incremental Fock matrix formation  ***
  0  -4358.6880591170   0.000000000000 0.15646033  0.00089775  0.2881983 0.7000
  1  -4359.5169163260  -0.828857209097 0.14152308  0.00072159  0.1090630 0.7000
                               ***Turning on DIIS***
  2  -4359.7925114770  -0.275595150912 0.19530213  0.00100042  0.0435339 0.0000
  3  -4360.2713286968  -0.478817219875 0.14158153  0.00066863  0.0559575 0.0000
  4  -4360.3710943343  -0.099765637478 0.04809870  0.00020818  0.0351359 0.0000
  5  -4360.3851085418  -0.014014207443 0.01995946  0.00010752  0.0094297 0.0000
  6  -4360.3861345172  -0.001025975462 0.00690920  0.00003235  0.0034884 0.0000
                      *** Initiating the SOSCF procedure ***
                           *** Shutting down DIIS ***
                      *** Re-Reading the Fockian *** 
                      *** Removing any level shift *** 
ITER      Energy       Delta-E        Grad      Rot      Max-DP    RMS-DP
  7  -4360.38625482  -0.0001203023  0.000465  0.000465  0.002468  0.000016
               *** Restarting incremental Fock matrix formation ***
  8  -4360.38627662  -0.0000217981  0.000253  0.001440  0.006071  0.000045
  9  -4360.38625196   0.0000246581  0.000569  0.000848  0.000924  0.000005
 10  -4360.38628337  -0.0000314119  0.000111  0.001355  0.000648  0.000006
 11  -4360.38628112   0.0000022492  0.000206  0.000817  0.000453  0.000003
 12  -4360.38628424  -0.0000031165  0.000019  0.000085  0.000616  0.000002
 13  -4360.38628411   0.0000001280  0.000059  0.000066  0.000143  0.000001
 14  -4360.38628427  -0.0000001643  0.000016  0.000075  0.000419  0.000001
 15  -4360.38628411   0.0000001640  0.000023  0.000041  0.000204  0.000001
                  ***Gradient check signals convergence***
              ***Rediagonalizing the Fockian in SOSCF/NRSCF***

               *****************************************************
               *                     SUCCESS                       *
               *           SCF CONVERGED AFTER  16 CYCLES          *
               *****************************************************

Setting up the final grid:

General Integration Accuracy     IntAcc      ...  5.010
Radial Grid Type                 RadialGrid  ... Gauss-Chebyshev
Angular Grid (max. acc.)         AngularGrid ... Lebedev-434
Angular grid pruning method      GridPruning ... 3 (G Style)
Weight generation scheme         WeightScheme... Becke
Basis function cutoff            BFCut       ...    1.0000e-11
Integration weight cutoff        WCut        ...    1.0000e-14
Grids for H and He will be reduced by one unit

# of grid points (after initial pruning)     ... 911332 (   0.0 sec)
# of grid points (after weights+screening)   ... 778601 (   6.8 sec)
nearest neighbour list constructed           ...    0.0 sec
Grid point re-assignment to atoms done       ...    0.1 sec
Grid point division into batches done        ...    5.4 sec
Reduced shell lists constructed in    7.6 sec

Total number of grid points                  ...   778601
Total number of batches                      ...    12214
Average number of points per batch           ...       63
Average number of grid points per atom       ...     8110
Average number of shells per batch           ...   168.45 (19.72%)
Average number of basis functions per batch  ...   440.27 (19.57%)
Average number of large shells per batch     ...   110.30 (65.48%)
Average number of large basis fcns per batch ...   292.87 (66.52%)
Maximum spatial batch extension              ...  16.48, 14.03, 23.06 au
Average spatial batch extension              ...   0.21,  0.20,  0.24 au

Final grid set up in   15.1 sec
Final integration                            ... done (   8.9 sec)
Change in XC energy                          ...    -0.000039740
Integrated number of electrons               ...   486.000086936
Previous integrated no of electrons          ...   486.000094015
Old exchange energy                            =    -92.663622259 Eh
New exchange energy                            =    -92.664793924 Eh
Exchange energy change after final integration =     -0.001171665 Eh
Total energy after final integration           =  -4360.387495739 Eh
Final COS-X integration done in                =   214.180 sec

----------------
TOTAL SCF ENERGY
----------------

Total Energy       :        -4360.38749574 Eh         -118652.17592 eV

Components:
Nuclear Repulsion  :         9120.08442424 Eh          248170.11391 eV
Electronic Energy  :       -13480.47191997 Eh         -366822.28983 eV
One Electron Energy:       -24132.93429795 Eh         -656690.52775 eV
Two Electron Energy:        10652.46237798 Eh          289868.23792 eV

Virial components:
Potential Energy   :        -8705.21092405 Eh         -236880.83203 eV
Kinetic Energy     :         4344.82342831 Eh          118228.65611 eV
Virial Ratio       :            2.00358221


DFT components:
N(Alpha)           :      243.000043468007 electrons
N(Beta)            :      243.000043468007 electrons
N(Total)           :      486.000086936013 electrons
E(X)               :     -368.432853859946 Eh       
E(C)               :      -20.255418811512 Eh       
E(XC)              :     -388.688272671458 Eh       
DFET-embed. en.    :        0.000000000000 Eh       

---------------
SCF CONVERGENCE
---------------

  Last Energy change         ...   -2.2216e-07  Tolerance :   1.0000e-08
  Last MAX-Density change    ...    5.7732e-15  Tolerance :   1.0000e-07
  Last RMS-Density change    ...    1.3442e-17  Tolerance :   5.0000e-09
  Last Orbital Gradient      ...    2.2240e-06  Tolerance :   1.0000e-05
  Last Orbital Rotation      ...    1.4693e-05  Tolerance :   1.0000e-05

             **** THE GBW FILE WAS UPDATED (CPDT-4F.gbw) ****
             **** DENSITY FILE WAS UPDATED (CPDT-4F.scfp) ****
             **** ENERGY FILE WAS UPDATED (CPDT-4F.en.tmp) ****
             **** THE GBW FILE WAS UPDATED (CPDT-4F.gbw) ****
             **** DENSITY FILE WAS UPDATED (CPDT-4F.scfp) ****
----------------
ORBITAL ENERGIES
----------------

  NO   OCC          E(Eh)            E(eV) 
   0   2.0000     -88.923968     -2419.7442 
   1   2.0000     -88.922681     -2419.7092 
   2   2.0000     -88.918390     -2419.5924 
   3   2.0000     -88.915153     -2419.5043 
   4   2.0000     -24.727030      -672.8567 
   5   2.0000     -24.726617      -672.8455 
   6   2.0000     -24.724718      -672.7938 
   7   2.0000     -24.724194      -672.7795 
   8   2.0000     -19.137158      -520.7485 
   9   2.0000     -19.135846      -520.7129 
  10   2.0000     -14.336260      -390.1095 
  11   2.0000     -14.335132      -390.0788 
  12   2.0000     -14.332022      -389.9942 
  13   2.0000     -14.331540      -389.9810 
  14   2.0000     -10.300731      -280.2971 
  15   2.0000     -10.300408      -280.2883 
  16   2.0000     -10.299872      -280.2738 
  17   2.0000     -10.299404      -280.2610 
  18   2.0000     -10.282834      -279.8101 
  19   2.0000     -10.281531      -279.7747 
  20   2.0000     -10.262465      -279.2559 
  21   2.0000     -10.262109      -279.2462 
  22   2.0000     -10.261340      -279.2253 
  23   2.0000     -10.260874      -279.2126 
  24   2.0000     -10.256846      -279.1030 
  25   2.0000     -10.256270      -279.0873 
  26   2.0000     -10.251864      -278.9674 
  27   2.0000     -10.245388      -278.7912 
  28   2.0000     -10.244502      -278.7671 
  29   2.0000     -10.243606      -278.7427 
  30   2.0000     -10.243349      -278.7357 
  31   2.0000     -10.242728      -278.7188 
  32   2.0000     -10.236900      -278.5602 
  33   2.0000     -10.235493      -278.5219 
  34   2.0000     -10.233919      -278.4791 
  35   2.0000     -10.233774      -278.4751 
  36   2.0000     -10.232943      -278.4525 
  37   2.0000     -10.232883      -278.4509 
  38   2.0000     -10.232340      -278.4361 
  39   2.0000     -10.231971      -278.4261 
  40   2.0000     -10.231748      -278.4200 
  41   2.0000     -10.230128      -278.3759 
  42   2.0000     -10.222504      -278.1685 
  43   2.0000     -10.221759      -278.1482 
  44   2.0000     -10.221239      -278.1340 
  45   2.0000     -10.220361      -278.1102 
  46   2.0000     -10.220282      -278.1080 
  47   2.0000     -10.220013      -278.1007 
  48   2.0000     -10.219795      -278.0948 
  49   2.0000     -10.219733      -278.0931 
  50   2.0000     -10.219377      -278.0834 
  51   2.0000     -10.219259      -278.0802 
  52   2.0000     -10.218011      -278.0462 
  53   2.0000     -10.217097      -278.0213 
  54   2.0000     -10.217074      -278.0207 
  55   2.0000     -10.215143      -277.9682 
  56   2.0000     -10.213871      -277.9336 
  57   2.0000     -10.211946      -277.8812 
  58   2.0000     -10.200123      -277.5595 
  59   2.0000     -10.199371      -277.5390 
  60   2.0000     -10.198634      -277.5189 
  61   2.0000     -10.198058      -277.5033 
  62   2.0000     -10.181960      -277.0652 
  63   2.0000     -10.179522      -276.9989 
  64   2.0000     -10.179219      -276.9906 
  65   2.0000     -10.178415      -276.9688 
  66   2.0000      -7.999620      -217.6807 
  67   2.0000      -7.998479      -217.6497 
  68   2.0000      -7.994155      -217.5320 
  69   2.0000      -7.989635      -217.4090 
  70   2.0000      -5.962216      -162.2401 
  71   2.0000      -5.961030      -162.2079 
  72   2.0000      -5.958467      -162.1381 
  73   2.0000      -5.957299      -162.1064 
  74   2.0000      -5.956533      -162.0855 
  75   2.0000      -5.956149      -162.0751 
  76   2.0000      -5.955035      -162.0447 
  77   2.0000      -5.952872      -161.9859 
  78   2.0000      -5.952284      -161.9699 
  79   2.0000      -5.950969      -161.9341 
  80   2.0000      -5.948286      -161.8611 
  81   2.0000      -5.946279      -161.8065 
  82   2.0000      -1.271912       -34.6105 
  83   2.0000      -1.271498       -34.5992 
  84   2.0000      -1.257759       -34.2254 
  85   2.0000      -1.257473       -34.2176 
  86   2.0000      -1.063780       -28.9469 
  87   2.0000      -1.062490       -28.9118 
  88   2.0000      -0.949426       -25.8352 
  89   2.0000      -0.944121       -25.6908 
  90   2.0000      -0.939400       -25.5624 
  91   2.0000      -0.938906       -25.5489 
  92   2.0000      -0.922704       -25.1081 
  93   2.0000      -0.921926       -25.0869 
  94   2.0000      -0.919197       -25.0126 
  95   2.0000      -0.918729       -24.9999 
  96   2.0000      -0.914237       -24.8776 
  97   2.0000      -0.900700       -24.5093 
  98   2.0000      -0.876521       -23.8513 
  99   2.0000      -0.874368       -23.7928 
 100   2.0000      -0.865482       -23.5510 
 101   2.0000      -0.856120       -23.2962 
 102   2.0000      -0.827896       -22.5282 
 103   2.0000      -0.826185       -22.4816 
 104   2.0000      -0.820041       -22.3145 
 105   2.0000      -0.815606       -22.1938 
 106   2.0000      -0.800563       -21.7844 
 107   2.0000      -0.796296       -21.6683 
 108   2.0000      -0.795675       -21.6514 
 109   2.0000      -0.784367       -21.3437 
 110   2.0000      -0.780319       -21.2336 
 111   2.0000      -0.775250       -21.0956 
 112   2.0000      -0.774525       -21.0759 
 113   2.0000      -0.771487       -20.9932 
 114   2.0000      -0.769065       -20.9273 
 115   2.0000      -0.765377       -20.8270 
 116   2.0000      -0.751963       -20.4619 
 117   2.0000      -0.735922       -20.0255 
 118   2.0000      -0.717156       -19.5148 
 119   2.0000      -0.702732       -19.1223 
 120   2.0000      -0.699367       -19.0308 
 121   2.0000      -0.697117       -18.9695 
 122   2.0000      -0.696413       -18.9504 
 123   2.0000      -0.687346       -18.7036 
 124   2.0000      -0.669833       -18.2271 
 125   2.0000      -0.650943       -17.7131 
 126   2.0000      -0.638082       -17.3631 
 127   2.0000      -0.637898       -17.3581 
 128   2.0000      -0.636269       -17.3138 
 129   2.0000      -0.635451       -17.2915 
 130   2.0000      -0.630064       -17.1449 
 131   2.0000      -0.625888       -17.0313 
 132   2.0000      -0.621295       -16.9063 
 133   2.0000      -0.616848       -16.7853 
 134   2.0000      -0.608482       -16.5576 
 135   2.0000      -0.596659       -16.2359 
 136   2.0000      -0.593616       -16.1531 
 137   2.0000      -0.582724       -15.8567 
 138   2.0000      -0.575931       -15.6719 
 139   2.0000      -0.575613       -15.6632 
 140   2.0000      -0.573136       -15.5958 
 141   2.0000      -0.572519       -15.5790 
 142   2.0000      -0.569067       -15.4851 
 143   2.0000      -0.565469       -15.3872 
 144   2.0000      -0.559225       -15.2173 
 145   2.0000      -0.552892       -15.0450 
 146   2.0000      -0.545623       -14.8472 
 147   2.0000      -0.542793       -14.7701 
 148   2.0000      -0.530564       -14.4374 
 149   2.0000      -0.523508       -14.2454 
 150   2.0000      -0.521471       -14.1899 
 151   2.0000      -0.521287       -14.1849 
 152   2.0000      -0.520852       -14.1731 
 153   2.0000      -0.519081       -14.1249 
 154   2.0000      -0.506262       -13.7761 
 155   2.0000      -0.499454       -13.5908 
 156   2.0000      -0.497686       -13.5427 
 157   2.0000      -0.486752       -13.2452 
 158   2.0000      -0.486529       -13.2391 
 159   2.0000      -0.486477       -13.2377 
 160   2.0000      -0.485319       -13.2062 
 161   2.0000      -0.484357       -13.1800 
 162   2.0000      -0.481356       -13.0984 
 163   2.0000      -0.480747       -13.0818 
 164   2.0000      -0.477327       -12.9887 
 165   2.0000      -0.472295       -12.8518 
 166   2.0000      -0.470722       -12.8090 
 167   2.0000      -0.467506       -12.7215 
 168   2.0000      -0.466596       -12.6967 
 169   2.0000      -0.463306       -12.6072 
 170   2.0000      -0.461203       -12.5500 
 171   2.0000      -0.460254       -12.5241 
 172   2.0000      -0.458965       -12.4891 
 173   2.0000      -0.456725       -12.4281 
 174   2.0000      -0.454478       -12.3670 
 175   2.0000      -0.447400       -12.1744 
 176   2.0000      -0.445805       -12.1310 
 177   2.0000      -0.444297       -12.0899 
 178   2.0000      -0.442542       -12.0422 
 179   2.0000      -0.430937       -11.7264 
 180   2.0000      -0.430324       -11.7097 
 181   2.0000      -0.429873       -11.6974 
 182   2.0000      -0.429274       -11.6811 
 183   2.0000      -0.424903       -11.5622 
 184   2.0000      -0.424565       -11.5530 
 185   2.0000      -0.423334       -11.5195 
 186   2.0000      -0.422757       -11.5038 
 187   2.0000      -0.421997       -11.4831 
 188   2.0000      -0.418961       -11.4005 
 189   2.0000      -0.416377       -11.3302 
 190   2.0000      -0.415526       -11.3070 
 191   2.0000      -0.411974       -11.2104 
 192   2.0000      -0.408853       -11.1254 
 193   2.0000      -0.404610       -11.0100 
 194   2.0000      -0.402103       -10.9418 
 195   2.0000      -0.398408       -10.8412 
 196   2.0000      -0.396862       -10.7992 
 197   2.0000      -0.393487       -10.7073 
 198   2.0000      -0.391653       -10.6574 
 199   2.0000      -0.391127       -10.6431 
 200   2.0000      -0.390344       -10.6218 
 201   2.0000      -0.389013       -10.5856 
 202   2.0000      -0.387734       -10.5508 
 203   2.0000      -0.386418       -10.5150 
 204   2.0000      -0.385562       -10.4917 
 205   2.0000      -0.385362       -10.4862 
 206   2.0000      -0.382626       -10.4118 
 207   2.0000      -0.382467       -10.4075 
 208   2.0000      -0.380018       -10.3408 
 209   2.0000      -0.376110       -10.2345 
 210   2.0000      -0.373183       -10.1548 
 211   2.0000      -0.368792       -10.0353 
 212   2.0000      -0.367703       -10.0057 
 213   2.0000      -0.362931        -9.8759 
 214   2.0000      -0.362054        -9.8520 
 215   2.0000      -0.360984        -9.8229 
 216   2.0000      -0.357111        -9.7175 
 217   2.0000      -0.356574        -9.7029 
 218   2.0000      -0.356241        -9.6938 
 219   2.0000      -0.352788        -9.5999 
 220   2.0000      -0.352289        -9.5863 
 221   2.0000      -0.349089        -9.4992 
 222   2.0000      -0.348553        -9.4846 
 223   2.0000      -0.345717        -9.4074 
 224   2.0000      -0.345069        -9.3898 
 225   2.0000      -0.343032        -9.3344 
 226   2.0000      -0.342786        -9.3277 
 227   2.0000      -0.335491        -9.1292 
 228   2.0000      -0.321048        -8.7362 
 229   2.0000      -0.301090        -8.1931 
 230   2.0000      -0.295081        -8.0296 
 231   2.0000      -0.294030        -8.0010 
 232   2.0000      -0.291053        -7.9200 
 233   2.0000      -0.286987        -7.8093 
 234   2.0000      -0.285008        -7.7555 
 235   2.0000      -0.283461        -7.7134 
 236   2.0000      -0.280400        -7.6301 
 237   2.0000      -0.280195        -7.6245 
 238   2.0000      -0.272408        -7.4126 
 239   2.0000      -0.266058        -7.2398 
 240   2.0000      -0.261724        -7.1219 
 241   2.0000      -0.236688        -6.4406 
 242   2.0000      -0.209068        -5.6890 
 243   0.0000      -0.139887        -3.8065 
 244   0.0000      -0.124910        -3.3990 
 245   0.0000      -0.111538        -3.0351 
 246   0.0000      -0.107301        -2.9198 
 247   0.0000      -0.086310        -2.3486 
 248   0.0000      -0.064282        -1.7492 
 249   0.0000      -0.049668        -1.3515 
 250   0.0000      -0.038599        -1.0503 
 251   0.0000      -0.034154        -0.9294 
 252   0.0000      -0.027521        -0.7489 
 253   0.0000      -0.023174        -0.6306 
 254   0.0000      -0.022524        -0.6129 
 255   0.0000      -0.020874        -0.5680 
 256   0.0000      -0.006443        -0.1753 
 257   0.0000      -0.003661        -0.0996 
 258   0.0000      -0.002995        -0.0815 
 259   0.0000       0.002160         0.0588 
 260   0.0000       0.005781         0.1573 
 261   0.0000       0.007003         0.1906 
 262   0.0000       0.009843         0.2679 
 263   0.0000       0.012485         0.3397 
 264   0.0000       0.018820         0.5121 
 265   0.0000       0.023116         0.6290 
 266   0.0000       0.024369         0.6631 
 267   0.0000       0.025475         0.6932 
 268   0.0000       0.029789         0.8106 
 269   0.0000       0.030765         0.8372 
 270   0.0000       0.032482         0.8839 
 271   0.0000       0.032632         0.8880 
 272   0.0000       0.035020         0.9529 
 273   0.0000       0.035246         0.9591 
 274   0.0000       0.036272         0.9870 
 275   0.0000       0.037985         1.0336 
 276   0.0000       0.039443         1.0733 
 277   0.0000       0.042310         1.1513 
 278   0.0000       0.043664         1.1881 
 279   0.0000       0.046099         1.2544 
 280   0.0000       0.047051         1.2803 
 281   0.0000       0.050545         1.3754 
 282   0.0000       0.055856         1.5199 
 283   0.0000       0.064669         1.7597 
 284   0.0000       0.065772         1.7897 
 285   0.0000       0.066818         1.8182 
 286   0.0000       0.067679         1.8416 
 287   0.0000       0.074722         2.0333 
 288   0.0000       0.075646         2.0584 
 289   0.0000       0.077517         2.1093 
 290   0.0000       0.078994         2.1495 
 291   0.0000       0.079857         2.1730 
 292   0.0000       0.082743         2.2516 
 293   0.0000       0.084435         2.2976 
 294   0.0000       0.087404         2.3784 
 295   0.0000       0.088920         2.4196 
 296   0.0000       0.089485         2.4350 
 297   0.0000       0.091327         2.4851 
 298   0.0000       0.095126         2.5885 
 299   0.0000       0.097791         2.6610 
 300   0.0000       0.098508         2.6805 
 301   0.0000       0.100231         2.7274 
 302   0.0000       0.101799         2.7701 
 303   0.0000       0.104893         2.8543 
 304   0.0000       0.107790         2.9331 
 305   0.0000       0.111101         3.0232 
 306   0.0000       0.114051         3.1035 
 307   0.0000       0.118465         3.2236 
 308   0.0000       0.120083         3.2676 
 309   0.0000       0.122507         3.3336 
 310   0.0000       0.122961         3.3459 
 311   0.0000       0.124111         3.3772 
 312   0.0000       0.126822         3.4510 
 313   0.0000       0.127580         3.4716 
 314   0.0000       0.128833         3.5057 
[...]

STATE 44:  E=   0.156233 au      4.251 eV    34289.2 cm**-1
   229a -> 243a  :     0.042904 (c= -0.20713179)
   230a -> 244a  :     0.205072 (c= -0.45284896)
   230a -> 246a  :     0.014343 (c= -0.11976061)
   231a -> 244a  :     0.235955 (c= -0.48575237)
   232a -> 245a  :     0.026613 (c= -0.16313641)
   233a -> 246a  :     0.016547 (c=  0.12863501)
   234a -> 245a  :     0.045558 (c=  0.21344394)
   234a -> 246a  :     0.010133 (c=  0.10066406)
   235a -> 245a  :     0.096825 (c= -0.31116748)
   235a -> 246a  :     0.098771 (c= -0.31427840)
   240a -> 246a  :     0.013823 (c=  0.11757199)
   242a -> 250a  :     0.069390 (c= -0.26342030)
   242a -> 251a  :     0.011672 (c= -0.10803922)
   242a -> 252a  :     0.011111 (c=  0.10540909)

STATE 45:  E=   0.157325 au      4.281 eV    34528.8 cm**-1
   241a -> 251a  :     0.015564 (c= -0.12475419)
   242a -> 252a  :     0.798091 (c= -0.89335934)
   242a -> 253a  :     0.032248 (c= -0.17957863)
   242a -> 255a  :     0.061715 (c= -0.24842578)

STATE 46:  E=   0.157945 au      4.298 eV    34664.9 cm**-1
   229a -> 243a  :     0.015077 (c=  0.12278662)
   231a -> 244a  :     0.024620 (c=  0.15690671)
   233a -> 244a  :     0.011955 (c=  0.10933901)
   233a -> 245a  :     0.096094 (c= -0.30999085)
   233a -> 246a  :     0.070016 (c=  0.26460615)
   234a -> 244a  :     0.010374 (c= -0.10185244)
   234a -> 245a  :     0.420490 (c=  0.64845203)
   234a -> 246a  :     0.165074 (c= -0.40629329)
   235a -> 245a  :     0.027070 (c=  0.16453095)
   235a -> 246a  :     0.030889 (c= -0.17575213)
   242a -> 250a  :     0.014755 (c= -0.12147219)
   242a -> 252a  :     0.020092 (c= -0.14174636)

STATE 47:  E=   0.158532 au      4.314 eV    34793.8 cm**-1
   229a -> 243a  :     0.071738 (c=  0.26783923)
   230a -> 244a  :     0.210513 (c= -0.45881674)
   231a -> 244a  :     0.258406 (c=  0.50833635)
   232a -> 243a  :     0.029898 (c= -0.17290907)
   232a -> 245a  :     0.019316 (c=  0.13898331)
   234a -> 245a  :     0.023468 (c= -0.15319296)
   235a -> 245a  :     0.012509 (c= -0.11184221)
   239a -> 247a  :     0.021923 (c=  0.14806448)
   242a -> 250a  :     0.235615 (c= -0.48540182)
   242a -> 251a  :     0.030687 (c= -0.17517771)

STATE 48:  E=   0.160371 au      4.364 eV    35197.5 cm**-1
   228a -> 243a  :     0.044148 (c=  0.21011413)
   229a -> 244a  :     0.078339 (c=  0.27989065)
   232a -> 244a  :     0.013791 (c= -0.11743313)
   239a -> 246a  :     0.017689 (c=  0.13299895)
   241a -> 248a  :     0.745997 (c= -0.86371131)

STATE 49:  E=   0.161306 au      4.389 eV    35402.5 cm**-1
   229a -> 243a  :     0.101618 (c=  0.31877512)
   230a -> 244a  :     0.066900 (c=  0.25865051)
   231a -> 244a  :     0.038976 (c= -0.19742451)
   232a -> 243a  :     0.030539 (c=  0.17475422)
   233a -> 243a  :     0.016791 (c= -0.12957860)
   233a -> 245a  :     0.017073 (c= -0.13066251)
   234a -> 244a  :     0.015210 (c=  0.12332969)
   234a -> 245a  :     0.022384 (c= -0.14961415)
   235a -> 245a  :     0.112232 (c= -0.33501092)
   237a -> 245a  :     0.025628 (c=  0.16008705)
   238a -> 244a  :     0.013405 (c= -0.11577784)
   238a -> 246a  :     0.207776 (c= -0.45582408)
   239a -> 247a  :     0.045508 (c= -0.21332543)
   241a -> 247a  :     0.050713 (c= -0.22519460)
   242a -> 248a  :     0.016589 (c=  0.12879794)
   242a -> 250a  :     0.079605 (c= -0.28214287)

STATE 50:  E=   0.162854 au      4.431 eV    35742.4 cm**-1
   228a -> 243a  :     0.045847 (c= -0.21411954)
   229a -> 243a  :     0.010200 (c=  0.10099262)
   229a -> 244a  :     0.014751 (c= -0.12145472)
   231a -> 245a  :     0.034531 (c= -0.18582568)
   232a -> 244a  :     0.054978 (c=  0.23447288)
   232a -> 246a  :     0.033982 (c=  0.18434132)
   233a -> 245a  :     0.049191 (c=  0.22179023)
   235a -> 245a  :     0.024026 (c=  0.15500221)
   235a -> 246a  :     0.016755 (c= -0.12944115)
   237a -> 245a  :     0.095284 (c= -0.30868130)
   237a -> 246a  :     0.068585 (c=  0.26188802)
   238a -> 245a  :     0.011150 (c= -0.10559476)
   239a -> 247a  :     0.018865 (c= -0.13735011)
   239a -> 248a  :     0.011934 (c=  0.10924252)
   240a -> 247a  :     0.373096 (c= -0.61081597)
   241a -> 248a  :     0.011487 (c= -0.10717883)


-----------------------------
TD-DFT/TDA-EXCITATION SPECTRA
-----------------------------

Center of mass = ( 14.2303, -6.9953, -3.5900)
Calculating the Dipole integrals                  ... done
Transforming integrals                            ... done
Calculating the Linear Momentum integrals         ... done
Transforming integrals                            ... done
Calculating angular momentum integrals            ... done
Transforming integrals                            ... done

-----------------------------------------------------------------------------
         ABSORPTION SPECTRUM VIA TRANSITION ELECTRIC DIPOLE MOMENTS
-----------------------------------------------------------------------------
State   Energy    Wavelength  fosc         T2        TX        TY        TZ  
        (cm-1)      (nm)                 (au**2)    (au)      (au)      (au) 
-----------------------------------------------------------------------------
   1   14769.3    677.1   3.868236771  86.22392  -5.03173   7.09445   3.25184
   2   17036.5    587.0   0.005579987   0.10783   0.18161  -0.17062   0.21386
   3   19090.1    523.8   0.272008860   4.69085   1.10845  -1.73780  -0.66502
   4   19472.0    513.6   0.014020481   0.23704  -0.25716  -0.16087   0.38083
   5   22631.1    441.9   0.150955371   2.19593  -0.96026   0.98968   0.54256
   6   23072.7    433.4   0.086202767   1.22998  -0.68484  -0.36451  -0.79253
   7   24247.4    412.4   0.003965781   0.05384   0.01742   0.22422   0.05714
   8   24690.6    405.0   0.002647353   0.03530  -0.07715   0.12925  -0.11243
   9   25621.5    390.3   0.002160274   0.02776  -0.16400   0.00910   0.02787
  10   25673.1    389.5   0.018681505   0.23956   0.32858  -0.29877  -0.20574
  11   25820.4    387.3   0.002782226   0.03547  -0.04512   0.18252   0.01111
  12   25975.1    385.0   0.063718801   0.80758  -0.07403  -0.89230  -0.07680
  13   26145.2    382.5   0.078585978   0.98953  -0.78156  -0.61525  -0.01291
  14   27581.6    362.6   0.000210677   0.00251  -0.03204  -0.02196   0.03171
  15   27587.5    362.5   0.000294800   0.00352  -0.04816  -0.03294  -0.01066
  16   28343.8    352.8   0.014832673   0.17228  -0.20878  -0.33566   0.12659
  17   28398.6    352.1   0.008770939   0.10168   0.23861   0.08361  -0.19430
  18   28721.5    348.2   0.024684333   0.28294   0.08253   0.52489   0.02478
  19   29115.8    343.5   0.002846472   0.03218  -0.17698  -0.01847  -0.02283
  20   29270.9    341.6   0.007220498   0.08121   0.25256  -0.12361  -0.04629
  21   29563.1    338.3   0.098207107   1.09362  -0.96143   0.01757   0.41105
  22   29669.7    337.0   0.014504297   0.16094  -0.08833  -0.39119   0.01012
  23   29734.4    336.3   0.014486612   0.16039   0.38656   0.06720  -0.08032
  24   30484.8    328.0   0.004981924   0.05380  -0.15520  -0.16403  -0.05301
  25   30733.1    325.4   0.027318931   0.29264   0.19749  -0.48584  -0.13266
  26   30993.4    322.6   0.009254569   0.09830   0.11171   0.28855  -0.05063
  27   31106.4    321.5   0.053800526   0.56939  -0.46365  -0.57067   0.16959
  28   31345.2    319.0   0.005046510   0.05300  -0.13308  -0.18194   0.04680
  29   31496.3    317.5   0.001074179   0.01123   0.07681   0.04089  -0.06047
  30   31744.7    315.0   0.015761616   0.16346   0.34212  -0.16326  -0.14057
  31   31822.3    314.2   0.004544942   0.04702  -0.19926  -0.06854   0.05115
  32   31933.4    313.2   0.014467532   0.14915   0.19754   0.23094  -0.23831
  33   32222.0    310.3   0.031440935   0.32123  -0.04726  -0.55303  -0.11471
  34   32640.9    306.4   0.028637225   0.28883   0.00659   0.51696  -0.14676
  35   32834.4    304.6   0.088351691   0.88585  -0.90660   0.05246   0.24735
  36   32927.7    303.7   0.244784675   2.44736   0.69129   1.35752  -0.35583
  37   32967.7    303.3   0.058709476   0.58627  -0.31531   0.54901   0.43062
  38   33032.2    302.7   0.374595243   3.73336   1.14800   1.31769  -0.82411
  39   33207.6    301.1   0.007087008   0.07026  -0.21591   0.15275  -0.01752
  40   33571.7    297.9   0.123665571   1.21269  -0.64918  -0.84077   0.29046
  41   34003.8    294.1   0.052910066   0.51226   0.56576   0.31170  -0.30825
  42   34130.6    293.0   0.032054298   0.30918   0.04605  -0.55372  -0.02142
  43   34187.6    292.5   0.069255229   0.66690  -0.42359  -0.59590   0.36383
  44   34289.2    291.6   0.011578301   0.11116  -0.09909  -0.27376   0.16248
  45   34528.8    289.6   0.000512256   0.00488   0.06236  -0.01544  -0.02751
  46   34664.9    288.5   0.015390083   0.14616   0.31607  -0.11136  -0.18401
  47   34793.8    287.4   0.005657688   0.05353  -0.16623  -0.14805   0.06309
  48   35197.5    284.1   0.056885475   0.53207  -0.32925   0.58989   0.27512
  49   35402.5    282.5   0.005387473   0.05010   0.19732   0.05374   0.09097
  50   35742.4    279.8   0.000792346   0.00730   0.04722   0.07110   0.00364

-----------------------------------------------------------------------------
         ABSORPTION SPECTRUM VIA TRANSITION VELOCITY DIPOLE MOMENTS
-----------------------------------------------------------------------------
State   Energy    Wavelength   fosc        P2         PX        PY        PZ  
        (cm-1)      (nm)                 (au**2)     (au)      (au)      (au) 
-----------------------------------------------------------------------------
   1   14769.3    677.1   0.889816910   0.08982   0.13939  -0.25264  -0.08100
   2   17036.5    587.0   0.009118660   0.00106  -0.01966  -0.02229   0.01335
   3   19090.1    523.8   0.140914271   0.01839  -0.06601   0.11054   0.04251
   4   19472.0    513.6   0.016889483   0.00225  -0.01626  -0.04336   0.01014
   5   22631.1    441.9   0.055066022   0.00852   0.05883  -0.06214  -0.03458
   6   23072.7    433.4   0.014258693   0.00225   0.02370   0.03349   0.02377
   7   24247.4    412.4   0.003318106   0.00055   0.02103  -0.00448  -0.00935
   8   24690.6    405.0   0.001297488   0.00022  -0.00090  -0.00920   0.01156
   9   25621.5    390.3   0.002775221   0.00049   0.01989  -0.00913   0.00262
  10   25673.1    389.5   0.016170372   0.00284  -0.02839   0.04032   0.02014
  11   25820.4    387.3   0.003238449   0.00057  -0.00617  -0.01832  -0.01407
  12   25975.1    385.0   0.009844560   0.00175   0.00598   0.04137   0.00046
  13   26145.2    382.5   0.001532854   0.00027   0.01371   0.00333   0.00865
  14   27581.6    362.6   0.000125242   0.00002   0.00485   0.00018   0.00011
  15   27587.5    362.5   0.000197811   0.00004  -0.00236  -0.00503   0.00253
  16   28343.8    352.8   0.000802810   0.00016  -0.01097  -0.00591   0.00042
  17   28398.6    352.1   0.078560090   0.01525  -0.09162  -0.06437   0.05205
  18   28721.5    348.2   0.045324694   0.00890   0.07334   0.03353  -0.04892
  19   29115.8    343.5   0.014940645   0.00297   0.04220   0.02539  -0.02341
  20   29270.9    341.6   0.000756650   0.00015  -0.00827   0.00849   0.00331
  21   29563.1    338.3   0.048160409   0.00973   0.06299  -0.06434  -0.04030
  22   29669.7    337.0   0.006508708   0.00132  -0.02964  -0.01061   0.01813
  23   29734.4    336.3   0.004130158   0.00084  -0.01968   0.01662   0.01327
  24   30484.8    328.0   0.006429398   0.00134   0.02509   0.02622  -0.00476
  25   30733.1    325.4   0.020982832   0.00441  -0.05087   0.03039   0.02994
  26   30993.4    322.6   0.015534769   0.00329   0.04971   0.00165  -0.02858
  27   31106.4    321.5   0.000974239   0.00021  -0.00977   0.01052   0.00099
  28   31345.2    319.0   0.000316668   0.00007   0.00426   0.00699  -0.00094
  29   31496.3    317.5   0.000079640   0.00002  -0.00234   0.00097   0.00327
  30   31744.7    315.0   0.007847900   0.00170  -0.03425  -0.01757   0.01487
  31   31822.3    314.2   0.001093625   0.00024   0.01383   0.00435  -0.00525
  32   31933.4    313.2   0.004179670   0.00091   0.01522   0.02531  -0.00631
  33   32222.0    310.3   0.000676050   0.00015  -0.00032   0.01163   0.00369
  34   32640.9    306.4   0.005433485   0.00121   0.01767  -0.02671  -0.01365
  35   32834.4    304.6   0.038819173   0.00871   0.07815  -0.02677  -0.04344
  36   32927.7    303.7   0.014670215   0.00330   0.02832   0.04076  -0.02895
  37   32967.7    303.3   0.003072077   0.00069   0.00896   0.02473  -0.00019
  38   33032.2    302.7   0.012216176   0.00276   0.03375   0.02513  -0.03142
  39   33207.6    301.1   0.004623225   0.00105   0.02781  -0.00845  -0.01430
  40   33571.7    297.9   0.001530062   0.00035   0.01521   0.01093  -0.00037
  41   34003.8    294.1   0.000902308   0.00021  -0.00010   0.01400  -0.00369
  42   34130.6    293.0   0.000193734   0.00005  -0.00559   0.00366   0.00076
  43   34187.6    292.5   0.015743426   0.00368  -0.03925  -0.04322   0.01641
  44   34289.2    291.6   0.001230671   0.00029  -0.00784  -0.01165   0.00955
  45   34528.8    289.6   0.002895599   0.00068  -0.02353   0.00247   0.01112
  46   34664.9    288.5   0.009558919   0.00226   0.01291   0.04414  -0.01225
  47   34793.8    287.4   0.003419216   0.00081   0.01344   0.02076  -0.01419
  48   35197.5    284.1   0.007421449   0.00179   0.02436   0.03302  -0.01007
  49   35402.5    282.5   0.001199682   0.00029  -0.00890  -0.00818  -0.01201
  50   35742.4    279.8   0.004863177   0.00119  -0.00217  -0.03378  -0.00649

-------------------------------------------------------------------
                             CD SPECTRUM
-------------------------------------------------------------------
State  Energy     Wavelength     R         MX        MY        MZ   
       (cm-1)       (nm)     (1e40*cgs)   (au)      (au)      (au)  
-------------------------------------------------------------------
   1   14769.3    677.1    247.86367   0.11935  -0.27242   0.94067
   2   17036.5    587.0     -0.09175   0.04751   0.01135  -0.03220
   3   19090.1    523.8      8.46527   0.30914   0.11447   0.18915
   4   19472.0    513.6    -18.23718   0.03710  -0.00492  -0.07860
   5   22631.1    441.9     12.71285   0.10962  -0.08353   0.39608
   6   23072.7    433.4    -178.75849   0.11258  -0.06037   0.40891
   7   24247.4    412.4     -0.83064   0.00248  -0.01621   0.03201
   8   24690.6    405.0     -8.93422   0.04284  -0.03456   0.09943
   9   25621.5    390.3     -9.17904   0.10539   0.01099  -0.08200
  10   25673.1    389.5     13.36423   0.16398   0.08985  -0.00636
  11   25820.4    387.3     11.28317   0.02287   0.14311  -0.10413
  12   25975.1    385.0    -12.57513   0.08433   0.01408   0.10238
  13   26145.2    382.5    -28.27432   0.09702  -0.02914   0.16072
  14   27581.6    362.6      3.69417  -0.15425   0.06434   0.13580
  15   27587.5    362.5      1.70093   0.06501  -0.20252  -0.00643
  16   28343.8    352.8     -7.96255  -0.14269   0.02785  -0.29490
  17   28398.6    352.1     13.77180  -0.11030   0.10653  -0.23995
  18   28721.5    348.2    -20.73642  -0.11527  -0.05989  -0.12246
  19   29115.8    343.5     28.92933  -0.28834  -0.01375  -0.44146
  20   29270.9    341.6     -1.36763  -0.01415   0.01885  -0.06489
  21   29563.1    338.3     46.43896  -0.09242  -0.09638   0.02759
  22   29669.7    337.0     -7.10043   0.10611   0.01961   0.19616
  23   29734.4    336.3     14.29992   0.09546   0.03149   0.10810
  24   30484.8    328.0     -1.35737   0.02008  -0.02733   0.08010
  25   30733.1    325.4    -10.72143  -0.09848   0.07154  -0.23718
  26   30993.4    322.6     -6.88794  -0.01687  -0.04462  -0.00292
  27   31106.4    321.5      3.00362  -0.06640   0.01974  -0.07757
  28   31345.2    319.0      5.16954   0.02521  -0.06313   0.06054
  29   31496.3    317.5      2.62166   0.05772   0.00646  -0.01428
  30   31744.7    315.0     -7.41700  -0.05953   0.03786  -0.07695
  31   31822.3    314.2     -0.15619   0.05686  -0.01661   0.19277
  32   31933.4    313.2      3.34871   0.05672  -0.02972  -0.01159
  33   32222.0    310.3    -11.78675   0.14530  -0.02118   0.26021
  34   32640.9    306.4    -18.22897   0.04849  -0.04259   0.11562
  35   32834.4    304.6     40.19942  -0.06270  -0.12319   0.14106
  36   32927.7    303.7      3.54851   0.04220  -0.03674  -0.07933
  37   32967.7    303.3     -4.18242   0.07287   0.00469   0.02678
  38   33032.2    302.7     -0.28449  -0.02111  -0.03078  -0.07789
  39   33207.6    301.1    -10.55043   0.05765  -0.04554   0.16974
  40   33571.7    297.9     30.74240  -0.05046  -0.02768   0.03159
  41   34003.8    294.1      2.21223  -0.19193   0.02383  -0.34340
  42   34130.6    293.0     -1.91284  -0.04507   0.00649  -0.07522
  43   34187.6    292.5    -27.48819  -0.10615   0.04312  -0.21321
  44   34289.2    291.6     -0.78074   0.03363   0.01950   0.04318
  45   34528.8    289.6      0.86963   0.05319   0.02484   0.03960
  46   34664.9    288.5      0.62814  -0.15644   0.01275  -0.28367
  47   34793.8    287.4      1.93242  -0.04193  -0.00745  -0.06301
  48   35197.5    284.1     -5.94219   0.05737  -0.02453   0.07545
  49   35402.5    282.5    -21.66155  -0.14584   0.01890  -0.19990
  50   35742.4    279.8     -1.43522  -0.05242  -0.00566  -0.04580

Total run time:    13544.686 sec

           *** ORCA-CIS/TD-DFT FINISHED WITHOUT ERROR ***

-----------------------
CIS/TD-DFT TOTAL ENERGY
-----------------------

    E(SCF)  =  -4360.387495739 Eh
    DE(CIS) =      0.067294031 Eh (Root  1)
    ----------------------------- ---------
    E(tot)  =  -4360.320201708 Eh


-------------------------   --------------------
FINAL SINGLE POINT ENERGY     -4360.320201707820
-------------------------   --------------------


                            ***************************************
                            *     ORCA property calculations      *
                            ***************************************

                                    ---------------------
                                    Active property flags
                                    ---------------------
   (+) Dipole Moment


------------------------------------------------------------------------------
                       ORCA ELECTRIC PROPERTIES CALCULATION
------------------------------------------------------------------------------

Dipole Moment Calculation                       ... on
Quadrupole Moment Calculation                   ... off
Polarizability Calculation                      ... off
GBWName                                         ... CPDT-4F.gbw
Electron density file                           ... CPDT-4F.scfp
The origin for moment calculation is the CENTER OF MASS  = (14.230272, -6.995273 -3.590048)

-------------
DIPOLE MOMENT
-------------
                                X             Y             Z
Electronic contribution:    -27.34538     -21.26289     -11.17245
Nuclear contribution   :     26.90997      20.13229      12.66126
                        -----------------------------------------
Total Dipole Moment    :     -0.43541      -1.13060       1.48881
                        -----------------------------------------
Magnitude (a.u.)       :      1.91947
Magnitude (Debye)      :      4.87892



--------------------
Rotational spectrum 
--------------------
 
Rotational constants in cm-1:     0.002686     0.000227     0.000214 
Rotational constants in MHz :    80.525230     6.810972     6.423055 

 Dipole components along the rotational axes: 
x,y,z [a.u.] :    -0.150050     1.340552     1.365573 
x,y,z [Debye]:    -0.381396     3.407413     3.471010 

 

Timings for individual modules:

Sum of individual times         ...    15696.948 sec (= 261.616 min)
GTO integral calculation        ...        7.218 sec (=   0.120 min)   0.0 %
SCF iterations                  ...     2143.762 sec (=  35.729 min)  13.7 %
CIS module                      ...    13545.967 sec (= 225.766 min)  86.3 %
                             ****ORCA TERMINATED NORMALLY****
TOTAL RUN TIME: 0 days 4 hours 21 minutes 39 seconds 388 msec
