
                                 *****************
                                 * O   R   C   A *
                                 *****************

           --- An Ab Initio, DFT and Semiempirical electronic structure package ---

                  #######################################################
                  #                        -***-                        #
                  #          Department of theory and spectroscopy      #
                  #               Directorship: Frank Neese             #
                  #        Max Planck Institute fuer Kohlenforschung    #
                  #                Kaiser Wilhelm Platz 1               #
                  #                 D-45470 Muelheim/Ruhr               #
                  #                      Germany                        #
                  #                                                     #
                  #                  All rights reserved                #
                  #                        -***-                        #
                  #######################################################


                         Program Version 4.2.0 -  RELEASE  -


 With contributions from (in alphabetic order):
   Daniel Aravena         : Magnetic Suceptibility
   Michael Atanasov       : Ab Initio Ligand Field Theory (pilot matlab implementation)
   Alexander A. Auer      : GIAO ZORA, VPT2
   Ute Becker             : Parallelization
   Giovanni Bistoni       : ED, misc. LED, open-shell LED, HFLED
   Martin Brehm           : Molecular dynamics
   Dmytro Bykov           : SCF Hessian
   Vijay G. Chilkuri      : MRCI spin determinant printing, contributions to CSF-ICE
   Dipayan Datta          : RHF DLPNO-CCSD density
   Achintya Kumar Dutta   : EOM-CC, STEOM-CC
   Dmitry Ganyushin       : Spin-Orbit,Spin-Spin,Magnetic field MRCI
   Miquel Garcia          : C-PCM Hessian, Gaussian charge scheme
   Yang Guo               : DLPNO-NEVPT2, CIM, IAO-localization
   Andreas Hansen         : Spin unrestricted coupled pair/coupled cluster methods
   Benjamin Helmich-Paris : CASSCF linear response (MC-RPA)
   Lee Huntington         : MR-EOM, pCC
   Robert Izsak           : Overlap fitted RIJCOSX, COSX-SCS-MP3, EOM
   Christian Kollmar      : KDIIS, OOCD, Brueckner-CCSD(T), CCSD density
   Simone Kossmann        : Meta GGA functionals, TD-DFT gradient, OOMP2, MP2 Hessian
   Martin Krupicka        : AUTO-CI
   Lucas Lang             : DCDCAS
   Dagmar Lenk            : GEPOL surface, SMD
   Dimitrios Liakos       : Extrapolation schemes; Compound Job, initial MDCI parallelization
   Dimitrios Manganas     : Further ROCIS development; embedding schemes
   Dimitrios Pantazis     : SARC Basis sets
   Taras Petrenko         : DFT Hessian,TD-DFT gradient, ASA, ECA, R-Raman, ABS, FL, XAS/XES, NRVS
   Peter Pinski           : DLPNO-MP2, DLPNO-MP2 Gradient
   Christoph Reimann      : Effective Core Potentials
   Marius Retegan         : Local ZFS, SOC
   Christoph Riplinger    : Optimizer, TS searches, QM/MM, DLPNO-CCSD(T), (RO)-DLPNO pert. Triples
   Tobias Risthaus        : Range-separated hybrids, TD-DFT gradient, RPA, STAB
   Michael Roemelt        : Original ROCIS implementation
   Masaaki Saitow         : Open-shell DLPNO-CCSD energy and density
   Barbara Sandhoefer     : DKH picture change effects
   Avijit Sen             : IP-ROCIS
   Kantharuban Sivalingam : CASSCF convergence, NEVPT2, FIC-MRCI
   Bernardo de Souza      : ESD, SOC TD-DFT
   Georgi Stoychev        : AutoAux, RI-MP2 NMR
   Willem Van den Heuvel  : Paramagnetic NMR
   Boris Wezisla          : Elementary symmetry handling
   Frank Wennmohs         : Technical directorship


 We gratefully acknowledge several colleagues who have allowed us to
 interface, adapt or use parts of their codes:
   Stefan Grimme, W. Hujo, H. Kruse,             : VdW corrections, initial TS optimization,
                  C. Bannwarth                     DFT functionals, gCP, sTDA/sTD-DF
   Ed Valeev, F. Pavosevic, A. Kumar             : LibInt (2-el integral package), F12 methods
   Garnet Chan, S. Sharma, J. Yang, R. Olivares  : DMRG
   Ulf Ekstrom                                   : XCFun DFT Library
   Mihaly Kallay                                 : mrcc  (arbitrary order and MRCC methods)
   Andreas Klamt, Michael Diedenhofen            : otool_cosmo (COSMO solvation model)
   Jiri Pittner, Ondrej Demel                    : Mk-CCSD
   Frank Weinhold                                : gennbo (NPA and NBO analysis)
   Christopher J. Cramer and Donald G. Truhlar   : smd solvation model
   Lars Goerigk                                  : TD-DFT with DH, B97 family of functionals
   V. Asgeirsson, H. Jonsson                     : NEB implementation
   FAccTs GmbH                                   : IRC, NEB, NEB-TS, Multilevel, MM, QM/MM, CI optimization
   S Lehtola, MJT Oliveira, MAL Marques          : LibXC Library


 Your calculation uses the libint2 library for the computation of 2-el integrals
 For citations please refer to: http://libint.valeyev.net

 Your ORCA version has been built with support for libXC version: 4.2.3
 For citations please refer to: https://tddft.org/programs/libxc/

 This ORCA versions uses:
   CBLAS   interface :  Fast vector & matrix operations
   LAPACKE interface :  Fast linear algebra routines
   SCALAPACK package :  Parallel linear algebra routines


----- Orbital basis set information -----
Your calculation utilizes the basis: def2-TZVP
   F. Weigend and R. Ahlrichs, Phys. Chem. Chem. Phys. 7, 3297 (2005).

----- AuxJ basis set information -----
Your calculation utilizes the auxiliary basis: def2/J
   F. Weigend, Phys. Chem. Chem. Phys. 8, 1057 (2006).

================================================================================
                                        WARNINGS
                       Please study these warnings very carefully!
================================================================================

INFO   : Checking CIS options ...

WARNING: CIS/ROCIS methods need fully converged wavefunctions
  ===> : Setting SCFConvForced true
         You can overwrite this default with %scf ConvForced false 


INFO   : the flag for use of LIBINT has been found!

================================================================================
                                       INPUT FILE
================================================================================
NAME = CPDT-4Cl.inp
|  1> # ORCA input file
|  2> # CPDT-4Cl.out: Geometry 103
|  3> ! B3LYP def2-TZVP def2/J RIJCOSX Grid4 TightSCF
|  4> 
|  5> %maxcore 6000
|  6> %tddft
|  7>   maxdim 5
|  8>   nroots 50
|  9>   end
| 10> %pal
| 11>   nprocs 6
| 12>   end
| 13> 
| 14> 
| 15> * xyz 0 1
| 16>    C       -0.57575         2.01495         1.56806
| 17>    C       -1.63919         2.35525         2.41426
| 18>    C       -1.58080         3.50067         3.23958
| 19>    C       -0.43707         4.30746         3.23674
| 20>    C        0.61909         3.95079         2.41249
| 21>    C        0.56491         2.81932         1.57077
| 22>    C        1.94214         4.62201         2.26629
| 23>    C        2.73638         3.73034         1.35969
| 24>    C        1.81397         2.76246         0.77645
| 25>    C        4.10419         3.85762         1.30100
| 26>    C        5.08317         2.90612         0.90263
| 27>    C        6.38165         3.17481         0.43648
| 28>    C        7.07001         2.02268         0.03556
| 29>    C        6.32059         0.85707         0.27332
| 30>    S        4.77190         1.16547         0.94235
| 31>    C        8.39493         1.67089        -0.64947
| 32>    C        8.27667         0.14835        -0.70435
| 33>    C        7.06119        -0.27946        -0.16322
| 34>    C        9.03152        -0.91045        -1.23774
| 35>    C        8.38983        -2.14586        -1.10492
| 36>    S        6.82955        -1.98278        -0.29876
| 37>    C        8.80459        -3.43495        -1.57563
| 38>    S       10.26741        -3.60426        -2.54570
| 39>    C        9.96871        -5.29677        -2.73325
| 40>    C        8.80557        -5.70978        -2.07522
| 41>    C        8.14736        -4.65895        -1.41914
| 42>    C       10.54718        -6.41772        -3.40268
| 43>    C        9.74597        -7.55668        -3.16031
| 44>    C        8.55523        -7.19935        -2.27415
| 45>    S       11.88036        -6.74985        -4.42109
| 46>    C       11.38381        -8.45918        -4.55660
| 47>    C       10.22655        -8.70183        -3.78667
| 48>    C       12.15476        -9.25753        -5.43116
| 49>    C       12.04198       -10.57541        -5.84800
| 50>    C       12.90823       -11.21885        -6.84312
| 51>    C       12.41502       -12.60683        -7.03326
| 52>    C       11.33174       -12.82034        -6.16269
| 53>    C       11.04241       -11.58327        -5.39883
| 54>    C       12.81388       -13.64066        -7.88555
| 55>    C       12.12825       -14.86148        -7.83068
| 56>    C       11.06334       -15.06653        -6.92704
| 57>    C       10.65406       -14.02620        -6.08710
| 58>   Cl       10.25007       -16.59199        -6.85112
| 59>   Cl       12.61171       -16.12926        -8.90510
| 60>    O       10.14403       -11.48036        -4.57847
| 61>    C       14.00059       -10.68767        -7.51174
| 62>    C       14.78857       -11.45121        -8.42930
| 63>    C       14.46715        -9.34550        -7.35171
| 64>    C        8.58529        -7.94970        -0.91822
| 65>    C        7.19965        -7.40528        -3.01001
| 66>    C        6.88549        -8.83620        -3.44390
| 67>    C        9.88607        -7.79491        -0.13216
| 68>    C        9.64223         2.12920         0.14243
| 69>    C        8.43392         2.20452        -2.11194
| 70>    C        8.39597         3.72131        -2.27976
| 71>    C        9.73385         1.60118         1.57198
| 72>    O        2.31173         5.63995         2.81252
| 73>   Cl       -3.04096         1.33928         2.42651
| 74>   Cl       -2.91082         3.92047         4.26505
| 75>    C        1.95871         2.10698        -0.43386
| 76>    C        1.00243         1.16039        -0.91226
| 77>    C        3.03246         2.39606        -1.33224
| 78>    N        3.87306         2.65770        -2.09058
| 79>    N        0.24256         0.36515        -1.28840
| 80>    N       15.44654       -12.06183        -9.16782
| 81>    N       14.86557        -8.25848        -7.24175
| 82>    H       -0.66849         1.12669         0.94723
| 83>    H       -0.37909         5.19605         3.86647
| 84>    H        4.48843         4.80925         1.68986
| 85>    H        6.75841         4.19507         0.36484
| 86>    H       10.00227        -0.80376        -1.72321
| 87>    H        7.21784        -4.75878        -0.85787
| 88>    H        9.80052        -9.70120        -3.74205
| 89>    H       12.97634        -8.70100        -5.88084
| 90>    H       13.63130       -13.54299        -8.59454
| 91>    H        9.82220       -14.15379        -5.39362
| 92>    H        8.39269        -9.01749        -1.10702
| 93>    H        7.73472        -7.58442        -0.31694
| 94>    H        7.19121        -6.74672        -3.89356
| 95>    H        6.40320        -7.03241        -2.34289
| 96>    H        7.61742        -9.21162        -4.17266
| 97>    H        5.89638        -8.87752        -3.92645
| 98>    H        6.86599        -9.53706        -2.59590
| 99>    H       10.74557        -8.17188        -0.70760
|100>    H        9.83954        -8.36345         0.80819
|101>    H       10.08698        -6.74247         0.12069
|102>    H        9.65749         3.23062         0.15340
|103>    H       10.53152         1.81676        -0.43271
|104>    H        7.58591         1.76005        -2.65627
|105>    H        9.34865         1.80068        -2.57836
|106>    H        7.42396         4.13443        -1.97189
|107>    H        8.54080         3.98668        -3.33811
|108>    H        9.18346         4.23296        -1.70737
|109>    H        8.84386         1.88043         2.15825
|110>    H       10.61268         2.01972         2.08564
|111>    H        9.82011         0.50353         1.59552
|112> *
|113> 
|114>                          ****END OF INPUT****
================================================================================

                       ****************************
                       * Single Point Calculation *
                       ****************************

---------------------------------
CARTESIAN COORDINATES (ANGSTROEM)
---------------------------------
  C     -0.575750    2.014950    1.568060
  C     -1.639190    2.355250    2.414260
  C     -1.580800    3.500670    3.239580
  C     -0.437070    4.307460    3.236740
  C      0.619090    3.950790    2.412490
  C      0.564910    2.819320    1.570770
  C      1.942140    4.622010    2.266290
  C      2.736380    3.730340    1.359690
  C      1.813970    2.762460    0.776450
  C      4.104190    3.857620    1.301000
  C      5.083170    2.906120    0.902630
  C      6.381650    3.174810    0.436480
  C      7.070010    2.022680    0.035560
  C      6.320590    0.857070    0.273320
  S      4.771900    1.165470    0.942350
  C      8.394930    1.670890   -0.649470
  C      8.276670    0.148350   -0.704350
  C      7.061190   -0.279460   -0.163220
  C      9.031520   -0.910450   -1.237740
  C      8.389830   -2.145860   -1.104920
  S      6.829550   -1.982780   -0.298760
  C      8.804590   -3.434950   -1.575630
  S     10.267410   -3.604260   -2.545700
  C      9.968710   -5.296770   -2.733250
  C      8.805570   -5.709780   -2.075220
  C      8.147360   -4.658950   -1.419140
  C     10.547180   -6.417720   -3.402680
  C      9.745970   -7.556680   -3.160310
  C      8.555230   -7.199350   -2.274150
  S     11.880360   -6.749850   -4.421090
  C     11.383810   -8.459180   -4.556600
  C     10.226550   -8.701830   -3.786670
  C     12.154760   -9.257530   -5.431160
  C     12.041980  -10.575410   -5.848000
  C     12.908230  -11.218850   -6.843120
  C     12.415020  -12.606830   -7.033260
  C     11.331740  -12.820340   -6.162690
  C     11.042410  -11.583270   -5.398830
  C     12.813880  -13.640660   -7.885550
  C     12.128250  -14.861480   -7.830680
  C     11.063340  -15.066530   -6.927040
  C     10.654060  -14.026200   -6.087100
  Cl    10.250070  -16.591990   -6.851120
  Cl    12.611710  -16.129260   -8.905100
  O     10.144030  -11.480360   -4.578470
  C     14.000590  -10.687670   -7.511740
  C     14.788570  -11.451210   -8.429300
  C     14.467150   -9.345500   -7.351710
  C      8.585290   -7.949700   -0.918220
  C      7.199650   -7.405280   -3.010010
  C      6.885490   -8.836200   -3.443900
  C      9.886070   -7.794910   -0.132160
  C      9.642230    2.129200    0.142430
  C      8.433920    2.204520   -2.111940
  C      8.395970    3.721310   -2.279760
  C      9.733850    1.601180    1.571980
  O      2.311730    5.639950    2.812520
  Cl    -3.040960    1.339280    2.426510
  Cl    -2.910820    3.920470    4.265050
  C      1.958710    2.106980   -0.433860
  C      1.002430    1.160390   -0.912260
  C      3.032460    2.396060   -1.332240
  N      3.873060    2.657700   -2.090580
  N      0.242560    0.365150   -1.288400
  N     15.446540  -12.061830   -9.167820
  N     14.865570   -8.258480   -7.241750
  H     -0.668490    1.126690    0.947230
  H     -0.379090    5.196050    3.866470
  H      4.488430    4.809250    1.689860
  H      6.758410    4.195070    0.364840
  H     10.002270   -0.803760   -1.723210
  H      7.217840   -4.758780   -0.857870
  H      9.800520   -9.701200   -3.742050
  H     12.976340   -8.701000   -5.880840
  H     13.631300  -13.542990   -8.594540
  H      9.822200  -14.153790   -5.393620
  H      8.392690   -9.017490   -1.107020
  H      7.734720   -7.584420   -0.316940
  H      7.191210   -6.746720   -3.893560
  H      6.403200   -7.032410   -2.342890
  H      7.617420   -9.211620   -4.172660
  H      5.896380   -8.877520   -3.926450
  H      6.865990   -9.537060   -2.595900
  H     10.745570   -8.171880   -0.707600
  H      9.839540   -8.363450    0.808190
  H     10.086980   -6.742470    0.120690
  H      9.657490    3.230620    0.153400
  H     10.531520    1.816760   -0.432710
  H      7.585910    1.760050   -2.656270
  H      9.348650    1.800680   -2.578360
  H      7.423960    4.134430   -1.971890
  H      8.540800    3.986680   -3.338110
  H      9.183460    4.232960   -1.707370
  H      8.843860    1.880430    2.158250
  H     10.612680    2.019720    2.085640
  H      9.820110    0.503530    1.595520

----------------------------
CARTESIAN COORDINATES (A.U.)
----------------------------
  NO LB      ZA    FRAG     MASS         X           Y           Z
   0 C     6.0000    0    12.011   -1.088010    3.807704    2.963204
   1 C     6.0000    0    12.011   -3.097620    4.450777    4.562290
   2 C     6.0000    0    12.011   -2.987279    6.615308    6.121919
   3 C     6.0000    0    12.011   -0.825943    8.139920    6.116552
   4 C     6.0000    0    12.011    1.169911    7.465911    4.558945
   5 C     6.0000    0    12.011    1.067525    5.327743    2.968325
   6 C     6.0000    0    12.011    3.670113    8.734333    4.282667
   7 C     6.0000    0    12.011    5.171009    7.049321    2.569442
   8 C     6.0000    0    12.011    3.427907    5.220293    1.467278
   9 C     6.0000    0    12.011    7.755795    7.289845    2.458534
  10 C     6.0000    0    12.011    9.605799    5.491771    1.705724
  11 C     6.0000    0    12.011   12.059571    5.999521    0.824828
  12 C     6.0000    0    12.011   13.360383    3.822311    0.067199
  13 C     6.0000    0    12.011   11.944184    1.619628    0.516500
  14 S    16.0000    0    32.060    9.017584    2.202419    1.780783
  15 C     6.0000    0    12.011   15.864119    3.157524   -1.227320
  16 C     6.0000    0    12.011   15.640640    0.280341   -1.331029
  17 C     6.0000    0    12.011   13.343715   -0.528103   -0.308441
  18 C     6.0000    0    12.011   17.067099   -1.720501   -2.338990
  19 C     6.0000    0    12.011   15.854481   -4.055088   -2.087996
  20 S    16.0000    0    32.060   12.905979   -3.746911   -0.564575
  21 C     6.0000    0    12.011   16.638264   -6.491115   -2.977509
  22 S    16.0000    0    32.060   19.402593   -6.811064   -4.810676
  23 C     6.0000    0    12.011   18.838132  -10.009445   -5.165094
  24 C     6.0000    0    12.011   16.640116  -10.789920   -3.921597
  25 C     6.0000    0    12.011   15.396279   -8.804140   -2.681786
  26 C     6.0000    0    12.011   19.931282  -12.127733   -6.430133
  27 C     6.0000    0    12.011   18.417214  -14.280056   -5.972120
  28 C     6.0000    0    12.011   16.167042  -13.604800   -4.297521
  29 S    16.0000    0    32.060   22.450627  -12.755368   -8.354649
  30 C     6.0000    0    12.011   21.512283  -15.985534   -8.610726
  31 C     6.0000    0    12.011   19.325379  -16.444076   -7.155769
  32 C     6.0000    0    12.011   22.969168  -17.494196  -10.263405
  33 C     6.0000    0    12.011   22.756044  -19.984629  -11.051118
  34 C     6.0000    0    12.011   24.393020  -21.200554  -12.931623
  35 C     6.0000    0    12.011   23.460988  -23.823456  -13.290935
  36 C     6.0000    0    12.011   21.413885  -24.226932  -11.645796
  37 C     6.0000    0    12.011   20.867131  -21.889208  -10.202310
  38 C     6.0000    0    12.011   24.214724  -25.777112  -14.901530
  39 C     6.0000    0    12.011   22.919071  -28.084127  -14.797841
  40 C     6.0000    0    12.011   20.906683  -28.471615  -13.090209
  41 C     6.0000    0    12.011   20.133256  -26.505677  -11.502952
  42 Cl   17.0000    0    35.453   19.369825  -31.354317  -12.946741
  43 Cl   17.0000    0    35.453   23.832678  -30.479884  -16.828200
  44 O     8.0000    0    15.999   19.169439  -21.694736   -8.652054
  45 C     6.0000    0    12.011   26.457281  -20.196769  -14.195131
  46 C     6.0000    0    12.011   27.946347  -21.639651  -15.929069
  47 C     6.0000    0    12.011   27.338951  -17.660436  -13.892719
  48 C     6.0000    0    12.011   16.223847  -15.022756   -1.735184
  49 C     6.0000    0    12.011   13.605367  -13.993951   -5.688095
  50 C     6.0000    0    12.011   13.011690  -16.697998   -6.508028
  51 C     6.0000    0    12.011   18.681965  -14.730245   -0.249746
  52 C     6.0000    0    12.011   18.221174    4.023605    0.269154
  53 C     6.0000    0    12.011   15.937799    4.165939   -3.990988
  54 C     6.0000    0    12.011   15.866084    7.032257   -4.308122
  55 C     6.0000    0    12.011   18.394311    3.025792    2.970612
  56 O     8.0000    0    15.999    4.368537   10.657961    5.314893
  57 Cl   17.0000    0    35.453   -5.746582    2.530872    4.585439
  58 Cl   17.0000    0    35.453   -5.500653    7.408615    8.059776
  59 C     6.0000    0    12.011    3.701425    3.981615   -0.819877
  60 C     6.0000    0    12.011    1.894318    2.192819   -1.723922
  61 C     6.0000    0    12.011    5.730519    4.527897   -2.517569
  62 N     7.0000    0    14.007    7.319023    5.022325   -3.950624
  63 N     7.0000    0    14.007    0.458372    0.690033   -2.434723
  64 N     7.0000    0    14.007   29.189730  -22.793555  -17.324669
  65 N     7.0000    0    14.007   28.091856  -15.606265  -13.684924
  66 H     1.0000    0     1.008   -1.263263    2.129136    1.790005
  67 H     1.0000    0     1.008   -0.716376    9.819111    7.306569
  68 H     1.0000    0     1.008    8.481903    9.088165    3.193373
  69 H     1.0000    0     1.008   12.771544    7.927533    0.689448
  70 H     1.0000    0     1.008   18.901551   -1.518886   -3.256395
  71 H     1.0000    0     1.008   13.639741   -8.992791   -1.621139
  72 H     1.0000    0     1.008   18.520299  -18.332611   -7.071450
  73 H     1.0000    0     1.008   24.521729  -16.442507  -11.113177
  74 H     1.0000    0     1.008   25.759424  -25.592542  -16.241327
  75 H     1.0000    0     1.008   18.561268  -26.746787  -10.192465
  76 H     1.0000    0     1.008   15.859886  -17.040587   -2.091965
  77 H     1.0000    0     1.008   14.616503  -14.332477   -0.598930
  78 H     1.0000    0     1.008   13.589417  -12.749453   -7.357762
  79 H     1.0000    0     1.008   12.100294  -13.289329   -4.427420
  80 H     1.0000    0     1.008   14.394838  -17.407439   -7.885185
  81 H     1.0000    0     1.008   11.142543  -16.776082   -7.419915
  82 H     1.0000    0     1.008   12.974841  -18.022432   -4.905540
  83 H     1.0000    0     1.008   20.306184  -15.442615   -1.337170
  84 H     1.0000    0     1.008   18.594036  -15.804630    1.527258
  85 H     1.0000    0     1.008   19.061630  -12.741422    0.228071
  86 H     1.0000    0     1.008   18.250011    6.104987    0.289884
  87 H     1.0000    0     1.008   19.901689    3.433179   -0.817703
  88 H     1.0000    0     1.008   14.335292    3.326012   -5.019623
  89 H     1.0000    0     1.008   17.666388    3.402792   -4.872394
  90 H     1.0000    0     1.008   14.029251    7.812940   -3.726332
  91 H     1.0000    0     1.008   16.139773    7.533733   -6.308114
  92 H     1.0000    0     1.008   17.354224    7.999135   -3.226462
  93 H     1.0000    0     1.008   16.712473    3.553498    4.078501
  94 H     1.0000    0     1.008   20.055059    3.816718    3.941288
  95 H     1.0000    0     1.008   18.557319    0.951534    3.015096

--------------------------------
INTERNAL COORDINATES (ANGSTROEM)
--------------------------------
 C      0   0   0     0.000000000000     0.00000000     0.00000000
 C      1   0   0     1.400986496580     0.00000000     0.00000000
 C      2   1   0     1.412993089474   121.22029942     0.00000000
 C      3   2   1     1.399655844342   119.98996035   358.99877392
 C      4   3   2     1.386389374238   118.38695698   359.93294379
 C      1   2   3     1.395752011140   118.63187170     1.18419626
 C      5   4   3     1.490762231511   128.21205158   181.89685417
 C      7   5   4     1.499271865440   105.16943799   174.01502157
 C      8   7   5     1.458698323883   107.54233181    12.15986262
 C      8   7   5     1.374972330849   119.85111228   197.46895006
 C     10   8   7     1.422129652071   129.40709258   156.81034492
 C     11  10   8     1.405539202228   126.93844330   157.21282373
 C     12  11  10     1.400706918988   113.05987569   184.22254635
 C     13  12  11     1.405989625175   111.81180078   356.38150489
 S     14  13  12     1.714978838645   113.46717551     1.50783690
 C     13  12  11     1.532460541547   137.87213742   172.99880401
 C     16  13  12     1.528111675762   100.24554314   181.49095661
 C     17  16  13     1.397581734068   111.00146118     1.22719094
 C     17  16  13     1.405475312697   136.27436258   175.83274876
 C     19  17  16     1.398443805306   112.52119225   185.54940563
 S     18  17  16     1.724333843431   112.87825809   176.06014960
 C     20  19  17     1.433648070413   129.08014192   176.73270030
 S     22  20  19     1.763389926647   120.46052216   356.20506479
 C     23  22  20     1.728868645271    90.59297365   183.13137256
 C     24  23  22     1.398740648083   112.43897768   359.67047542
 C     22  20  19     1.398075961098   127.91268651   179.42614651
 C     24  23  22     1.428038153657   138.53125428   177.46476467
 C     27  24  23     1.413474641654   108.81498088   181.82284984
 C     25  24  23     1.523503214765   111.34048288   179.14095985
 S     27  24  23     1.710215827725   138.36282275   359.83340961
 C     30  27  24     1.785142546549    90.82079121   182.26364604
 C     28  27  24     1.390917865476   112.97580367   179.42424324
 C     31  30  27     1.413004535945   115.86326153   175.83502841
 C     33  31  30     1.386824649478   132.73258322   183.99208965
 C     34  33  31     1.467878711100   124.91287020   176.01906619
 C     35  34  33     1.485226516091   107.48546063   182.14343113
 C     36  35  34     1.406049146865   108.57159694   357.94767809
 C     37  36  35     1.482408895481   110.04113497     1.64719220
 C     36  35  34     1.397959946708   132.40832037   176.91748303
 C     39  36  35     1.401249687315   118.73933367   180.37038213
 C     40  39  36     1.411610449168   121.38233165   359.24062073
 C     37  36  35     1.385302266691   122.87862752   180.63344800
 Cl    41  40  39     1.730375725356   120.71087836   181.27674097
 Cl    40  39  36     1.730716047305   118.50307003   179.09633956
 O     38  37  36     1.220928999615   124.06811686   179.32785977
 C     35  34  33     1.386526330944   128.60284673     2.41914864
 C     46  35  34     1.430322399181   122.60687123   177.72276086
 C     46  35  34     1.429932915699   124.24114561   358.53255755
 C     29  25  24     1.549991900301   110.84887133   118.01429115
 C     29  25  24     1.556115111712   109.52862206   241.46378540
 C     50  29  25     1.527903493058   115.93438804   172.51376242
 C     49  29  25     1.527703792003   114.68183078   302.38279916
 C     16  13  12     1.546903667363   113.59508488    61.76321157
 C     16  13  12     1.557273160977   111.27125357   295.57130425
 C     54  16  13     1.526517493840   116.30230583    64.38201686
 C     53  16  13     1.526699887764   115.16773526    56.52194760
 O      7   5   4     1.212916247974   127.16703192   356.92619146
 Cl     2   1   3     1.731272432721   118.44588296   179.82397390
 Cl     3   2   1     1.731119279917   120.71934217   179.19744943
 C      9   8   7     1.383999275325   126.71095803   153.77609816
 C     60   9   8     1.428065343918   122.47009961   179.24239612
 C     60   9   8     1.429542910619   122.16435585   355.05462436
 N     62  60   9     1.161956713996   177.51635554   257.56539953
 N     61  60   9     1.162450159835   178.34236467   265.36592072
 N     47  46  35     1.162408317116   178.94424869   217.58873986
 N     48  46  35     1.162945475248   178.61667778   184.66763642
 H      1   2   3     1.087674778645   118.58110204   180.31561291
 H      4   3   2     1.090648312427   120.79041327   179.82799817
 H     10   8   7     1.097475345555   114.42062871   341.81179968
 H     12  11  10     1.089959106939   121.33725357     1.46101024
 H     19  17  16     1.090605079532   124.98008540     4.41264812
 H     26  22  20     1.090411606780   122.58167266   357.56172611
 H     32  28  27     1.087305339911   127.07510525   178.96682755
 H     33  31  30     1.089463831295   112.22849837     1.71812308
 H     39  36  35     1.086453729065   123.09536765     0.15669713
 H     42  37  36     1.090497491102   120.64485876   179.60731047
 H     49  29  25     1.101324513529   108.42123442   179.55856006
 H     49  29  25     1.103828085211   107.54047830    65.08947746
 H     50  29  25     1.102013207589   107.86206847    49.64373779
 H     50  29  25     1.103817799186   107.34082786   295.70894299
 H     51  50  29     1.098978088453   111.79554396   297.36183655
 H     51  50  29     1.101317591342   110.13479204   178.36538132
 H     51  50  29     1.100313132522   112.41537382    58.73391582
 H     52  49  29     1.100898644063   111.16863905   300.27215943
 H     52  49  29     1.099845850563   110.58047437   180.77415907
 H     52  49  29     1.100875971306   111.74244712    60.70122546
 H     53  16  13     1.101580330661   108.20998030   293.49807833
 H     53  16  13     1.104192681238   107.39220212   179.38354017
 H     54  16  13     1.101349031824   107.85338988   301.49168066
 H     54  16  13     1.103342800267   106.99771902   187.41640235
 H     55  54  16     1.100116135415   111.36639226   292.36705369
 H     55  54  16     1.100682373939   109.99856980   173.72970642
 H     55  54  16     1.099798406391   112.78285569    54.24034891
 H     56  53  16     1.101714697869   111.23156144   302.86885326
 H     56  53  16     1.100620050744   110.69540544   183.45237471
 H     56  53  16     1.101285812902   111.68050774    63.26866301

---------------------------
INTERNAL COORDINATES (A.U.)
---------------------------
 C      0   0   0     0.000000000000     0.00000000     0.00000000
 C      1   0   0     2.647480795858     0.00000000     0.00000000
 C      2   1   0     2.670169968228   121.22029942     0.00000000
 C      3   2   1     2.644966227548   119.98996035   358.99877392
 C      4   3   2     2.619896232288   118.38695698   359.93294379
 C      1   2   3     2.637589051923   118.63187170     1.18419626
 C      5   4   3     2.817132348349   128.21205158   181.89685417
 C      7   5   4     2.833213225975   105.16943799   174.01502157
 C      8   7   5     2.756540344149   107.54233181    12.15986262
 C      8   7   5     2.598321147024   119.85111228   197.46895006
 C     10   8   7     2.687435569343   129.40709258   156.81034492
 C     11  10   8     2.656084162701   126.93844330   157.21282373
 C     12  11  10     2.646952470775   113.05987569   184.22254635
 C     13  12  11     2.656935338716   111.81180078   356.38150489
 S     14  13  12     3.240840330509   113.46717551     1.50783690
 C     13  12  11     2.895930734565   137.87213742   172.99880401
 C     16  13  12     2.887712569238   100.24554314   181.49095661
 C     17  16  13     2.641046727159   111.00146118     1.22719094
 C     17  16  13     2.655963428984   136.27436258   175.83274876
 C     19  17  16     2.642675805708   112.52119225   185.54940563
 S     18  17  16     3.258518727536   112.87825809   176.06014960
 C     20  19  17     2.709202225506   129.08014192   176.73270030
 S     22  20  19     3.332324028678   120.46052216   356.20506479
 C     23  22  20     3.267088261085    90.59297365   183.13137256
 C     24  23  22     2.643236757261   112.43897768   359.67047542
 C     22  20  19     2.641980680894   127.91268651   179.42614651
 C     24  23  22     2.698601019202   138.53125428   177.46476467
 C     27  24  23     2.671079969969   108.81498088   181.82284984
 C     25  24  23     2.879003840055   111.34048288   179.14095985
 S     27  24  23     3.231839544297   138.36282275   359.83340961
 C     30  27  24     3.373430522989    90.82079121   182.26364604
 C     28  27  24     2.628453840528   112.97580367   179.42424324
 C     31  30  27     2.670191598924   115.86326153   175.83502841
 C     33  31  30     2.620718783285   132.73258322   183.99208965
 C     34  33  31     2.773888761792   124.91287020   176.01906619
 C     35  34  33     2.806671362250   107.48546063   182.14343113
 C     36  35  34     2.657047818409   108.57159694   357.94767809
 C     37  36  35     2.801346830947   110.04113497     1.64719220
 C     36  35  34     2.641761445469   132.40832037   176.91748303
 C     39  36  35     2.647978154268   118.73933367   180.37038213
 C     40  39  36     2.667557156709   121.38233165   359.24062073
 C     37  36  35     2.617841896747   122.87862752   180.63344800
 Cl    41  40  39     3.269936229707   120.71087836   181.27674097
 Cl    40  39  36     3.270579344990   118.50307003   179.09633956
 O     38  37  36     2.307221438234   124.06811686   179.32785977
 C     35  34  33     2.620155042954   128.60284673     2.41914864
 C     46  35  34     2.702917617666   122.60687123   177.72276086
 C     46  35  34     2.702181600551   124.24114561   358.53255755
 C     29  25  24     2.929060201366   110.84887133   118.01429115
 C     29  25  24     2.940631393993   109.52862206   241.46378540
 C     50  29  25     2.887319160942   115.93438804   172.51376242
 C     49  29  25     2.886941780638   114.68183078   302.38279916
 C     16  13  12     2.923224286874   113.59508488    61.76321157
 C     16  13  12     2.942819789953   111.27125357   295.57130425
 C     54  16  13     2.884700001998   116.30230583    64.38201686
 C     53  16  13     2.885044676563   115.16773526    56.52194760
 O      7   5   4     2.292079532055   127.16703192   356.92619146
 Cl     2   1   3     3.271630761050   118.44588296   179.82397390
 Cl     3   2   1     3.271341344194   120.71934217   179.19744943
 C      9   8   7     2.615379599910   126.71095803   153.77609816
 C     60   9   8     2.698652401349   122.47009961   179.24239612
 C     60   9   8     2.701444597758   122.16435585   355.05462436
 N     62  60   9     2.195779968923   177.51635554   257.56539953
 N     61  60   9     2.196712446421   178.34236467   265.36592072
 N     47  46  35     2.196633375141   178.94424869   217.58873986
 N     48  46  35     2.197648456902   178.61667778   184.66763642
 H      1   2   3     2.055407454412   118.58110204   180.31561291
 H      4   3   2     2.061026618911   120.79041327   179.82799817
 H     10   8   7     2.073927841829   114.42062871   341.81179968
 H     12  11  10     2.059724209289   121.33725357     1.46101024
 H     19  17  16     2.060944920578   124.98008540     4.41264812
 H     26  22  20     2.060579310063   122.58167266   357.56172611
 H     32  28  27     2.054709316383   127.07510525   178.96682755
 H     33  31  30     2.058788273960   112.22849837     1.71812308
 H     39  36  35     2.053100005111   123.09536765     0.15669713
 H     42  37  36     2.060741607911   120.64485876   179.60731047
 H     49  29  25     2.081201715144   108.42123442   179.55856006
 H     49  29  25     2.085932779979   107.54047830    65.08947746
 H     50  29  25     2.082503158307   107.86206847    49.64373779
 H     50  29  25     2.085913342209   107.34082786   295.70894299
 H     51  50  29     2.076767614357   111.79554396   297.36183655
 H     51  50  29     2.081188634107   110.13479204   178.36538132
 H     51  50  29     2.079290482023   112.41537382    58.73391582
 H     52  49  29     2.080396938485   111.16863905   300.27215943
 H     52  49  29     2.078407447093   110.58047437   180.77415907
 H     52  49  29     2.080354093184   111.74244712    60.70122546
 H     53  16  13     2.081685139464   108.20998030   293.49807833
 H     53  16  13     2.086621766620   107.39220212   179.38354017
 H     54  16  13     2.081248048007   107.85338988   301.49168066
 H     54  16  13     2.085015724338   106.99771902   187.41640235
 H     55  54  16     2.078918211442   111.36639226   292.36705369
 H     55  54  16     2.079988247179   109.99856980   173.72970642
 H     55  54  16     2.078317790602   112.78285569    54.24034891
 H     56  53  16     2.081939056688   111.23156144   302.86885326
 H     56  53  16     2.079870473409   110.69540544   183.45237471
 H     56  53  16     2.081128581558   111.68050774    63.26866301

---------------------
BASIS SET INFORMATION
---------------------
There are 6 groups of distinct atoms

 Group   1 Type C   : 11s6p2d1f contracted to 5s3p2d1f pattern {62111/411/11/1}
 Group   2 Type S   : 14s9p3d1f contracted to 5s5p2d1f pattern {73211/51111/21/1}
 Group   3 Type Cl  : 14s9p3d1f contracted to 5s5p2d1f pattern {73211/51111/21/1}
 Group   4 Type O   : 11s6p2d1f contracted to 5s3p2d1f pattern {62111/411/11/1}
 Group   5 Type N   : 11s6p2d1f contracted to 5s3p2d1f pattern {62111/411/11/1}
 Group   6 Type H   : 5s1p contracted to 3s1p pattern {311/1}

Atom   0C    basis set group =>   1
Atom   1C    basis set group =>   1
Atom   2C    basis set group =>   1
Atom   3C    basis set group =>   1
Atom   4C    basis set group =>   1
Atom   5C    basis set group =>   1
Atom   6C    basis set group =>   1
Atom   7C    basis set group =>   1
Atom   8C    basis set group =>   1
Atom   9C    basis set group =>   1
Atom  10C    basis set group =>   1
Atom  11C    basis set group =>   1
Atom  12C    basis set group =>   1
Atom  13C    basis set group =>   1
Atom  14S    basis set group =>   2
Atom  15C    basis set group =>   1
Atom  16C    basis set group =>   1
Atom  17C    basis set group =>   1
Atom  18C    basis set group =>   1
Atom  19C    basis set group =>   1
Atom  20S    basis set group =>   2
Atom  21C    basis set group =>   1
Atom  22S    basis set group =>   2
Atom  23C    basis set group =>   1
Atom  24C    basis set group =>   1
Atom  25C    basis set group =>   1
Atom  26C    basis set group =>   1
Atom  27C    basis set group =>   1
Atom  28C    basis set group =>   1
Atom  29S    basis set group =>   2
Atom  30C    basis set group =>   1
Atom  31C    basis set group =>   1
Atom  32C    basis set group =>   1
Atom  33C    basis set group =>   1
Atom  34C    basis set group =>   1
Atom  35C    basis set group =>   1
Atom  36C    basis set group =>   1
Atom  37C    basis set group =>   1
Atom  38C    basis set group =>   1
Atom  39C    basis set group =>   1
Atom  40C    basis set group =>   1
Atom  41C    basis set group =>   1
Atom  42Cl   basis set group =>   3
Atom  43Cl   basis set group =>   3
Atom  44O    basis set group =>   4
Atom  45C    basis set group =>   1
Atom  46C    basis set group =>   1
Atom  47C    basis set group =>   1
Atom  48C    basis set group =>   1
Atom  49C    basis set group =>   1
Atom  50C    basis set group =>   1
Atom  51C    basis set group =>   1
Atom  52C    basis set group =>   1
Atom  53C    basis set group =>   1
Atom  54C    basis set group =>   1
Atom  55C    basis set group =>   1
Atom  56O    basis set group =>   4
Atom  57Cl   basis set group =>   3
Atom  58Cl   basis set group =>   3
Atom  59C    basis set group =>   1
Atom  60C    basis set group =>   1
Atom  61C    basis set group =>   1
Atom  62N    basis set group =>   5
Atom  63N    basis set group =>   5
Atom  64N    basis set group =>   5
Atom  65N    basis set group =>   5
Atom  66H    basis set group =>   6
Atom  67H    basis set group =>   6
Atom  68H    basis set group =>   6
Atom  69H    basis set group =>   6
Atom  70H    basis set group =>   6
Atom  71H    basis set group =>   6
Atom  72H    basis set group =>   6
Atom  73H    basis set group =>   6
Atom  74H    basis set group =>   6
Atom  75H    basis set group =>   6
Atom  76H    basis set group =>   6
Atom  77H    basis set group =>   6
Atom  78H    basis set group =>   6
Atom  79H    basis set group =>   6
Atom  80H    basis set group =>   6
Atom  81H    basis set group =>   6
Atom  82H    basis set group =>   6
Atom  83H    basis set group =>   6
Atom  84H    basis set group =>   6
Atom  85H    basis set group =>   6
Atom  86H    basis set group =>   6
Atom  87H    basis set group =>   6
Atom  88H    basis set group =>   6
Atom  89H    basis set group =>   6
Atom  90H    basis set group =>   6
Atom  91H    basis set group =>   6
Atom  92H    basis set group =>   6
Atom  93H    basis set group =>   6
Atom  94H    basis set group =>   6
Atom  95H    basis set group =>   6
---------------------------------
AUXILIARY/J BASIS SET INFORMATION
---------------------------------
There are 6 groups of distinct atoms

 Group   1 Type C   : 12s5p4d2f1g contracted to 6s4p3d1f1g pattern {711111/2111/211/2/1}
 Group   2 Type S   : 14s5p5d2f1g contracted to 8s4p3d1f1g pattern {71111111/2111/311/2/1}
 Group   3 Type Cl  : 14s5p5d2f1g contracted to 8s4p3d1f1g pattern {71111111/2111/311/2/1}
 Group   4 Type O   : 12s5p4d2f1g contracted to 6s4p3d1f1g pattern {711111/2111/211/2/1}
 Group   5 Type N   : 12s5p4d2f1g contracted to 6s4p3d1f1g pattern {711111/2111/211/2/1}
 Group   6 Type H   : 5s2p1d contracted to 3s1p1d pattern {311/2/1}

Atom   0C    basis set group =>   1
Atom   1C    basis set group =>   1
Atom   2C    basis set group =>   1
Atom   3C    basis set group =>   1
Atom   4C    basis set group =>   1
Atom   5C    basis set group =>   1
Atom   6C    basis set group =>   1
Atom   7C    basis set group =>   1
Atom   8C    basis set group =>   1
Atom   9C    basis set group =>   1
Atom  10C    basis set group =>   1
Atom  11C    basis set group =>   1
Atom  12C    basis set group =>   1
Atom  13C    basis set group =>   1
Atom  14S    basis set group =>   2
Atom  15C    basis set group =>   1
Atom  16C    basis set group =>   1
Atom  17C    basis set group =>   1
Atom  18C    basis set group =>   1
Atom  19C    basis set group =>   1
Atom  20S    basis set group =>   2
Atom  21C    basis set group =>   1
Atom  22S    basis set group =>   2
Atom  23C    basis set group =>   1
Atom  24C    basis set group =>   1
Atom  25C    basis set group =>   1
Atom  26C    basis set group =>   1
Atom  27C    basis set group =>   1
Atom  28C    basis set group =>   1
Atom  29S    basis set group =>   2
Atom  30C    basis set group =>   1
Atom  31C    basis set group =>   1
Atom  32C    basis set group =>   1
Atom  33C    basis set group =>   1
Atom  34C    basis set group =>   1
Atom  35C    basis set group =>   1
Atom  36C    basis set group =>   1
Atom  37C    basis set group =>   1
Atom  38C    basis set group =>   1
Atom  39C    basis set group =>   1
Atom  40C    basis set group =>   1
Atom  41C    basis set group =>   1
Atom  42Cl   basis set group =>   3
Atom  43Cl   basis set group =>   3
Atom  44O    basis set group =>   4
Atom  45C    basis set group =>   1
Atom  46C    basis set group =>   1
Atom  47C    basis set group =>   1
Atom  48C    basis set group =>   1
Atom  49C    basis set group =>   1
Atom  50C    basis set group =>   1
Atom  51C    basis set group =>   1
Atom  52C    basis set group =>   1
Atom  53C    basis set group =>   1
Atom  54C    basis set group =>   1
Atom  55C    basis set group =>   1
Atom  56O    basis set group =>   4
Atom  57Cl   basis set group =>   3
Atom  58Cl   basis set group =>   3
Atom  59C    basis set group =>   1
Atom  60C    basis set group =>   1
Atom  61C    basis set group =>   1
Atom  62N    basis set group =>   5
Atom  63N    basis set group =>   5
Atom  64N    basis set group =>   5
Atom  65N    basis set group =>   5
Atom  66H    basis set group =>   6
Atom  67H    basis set group =>   6
Atom  68H    basis set group =>   6
Atom  69H    basis set group =>   6
Atom  70H    basis set group =>   6
Atom  71H    basis set group =>   6
Atom  72H    basis set group =>   6
Atom  73H    basis set group =>   6
Atom  74H    basis set group =>   6
Atom  75H    basis set group =>   6
Atom  76H    basis set group =>   6
Atom  77H    basis set group =>   6
Atom  78H    basis set group =>   6
Atom  79H    basis set group =>   6
Atom  80H    basis set group =>   6
Atom  81H    basis set group =>   6
Atom  82H    basis set group =>   6
Atom  83H    basis set group =>   6
Atom  84H    basis set group =>   6
Atom  85H    basis set group =>   6
Atom  86H    basis set group =>   6
Atom  87H    basis set group =>   6
Atom  88H    basis set group =>   6
Atom  89H    basis set group =>   6
Atom  90H    basis set group =>   6
Atom  91H    basis set group =>   6
Atom  92H    basis set group =>   6
Atom  93H    basis set group =>   6
Atom  94H    basis set group =>   6
Atom  95H    basis set group =>   6


           ************************************************************
           *        Program running with 6 parallel MPI-processes     *
           *              working on a common directory               *
           ************************************************************
------------------------------------------------------------------------------
                           ORCA GTO INTEGRAL CALCULATION
                           -- RI-GTO INTEGRALS CHOSEN --
------------------------------------------------------------------------------

                         BASIS SET STATISTICS AND STARTUP INFO

Gaussian basis set:
 # of primitive gaussian shells          ... 1556
 # of primitive gaussian functions       ... 3412
 # of contracted shells                  ...  862
 # of contracted basis functions         ... 2274
 Highest angular momentum                ...    3
 Maximum contraction depth               ...    7
Auxiliary gaussian basis set:
 # of primitive gaussian shells          ... 1848
 # of primitive gaussian functions       ... 5156
 # of contracted shells                  ... 1156
 # of contracted aux-basis functions     ... 3580
 Highest angular momentum                ...    4
 Maximum contraction depth               ...    7
Ratio of auxiliary to basis functions    ...  1.57
Integral package used                  ... LIBINT
 One Electron integrals                  ... done
 Ordering auxiliary basis shells         ... done
 Integral threshhold             Thresh  ...  2.500e-11
 Primitive cut-off               TCut    ...  2.500e-12
 Pre-screening matrix                    ... done
 Shell pair data                         ... 
 Ordering of the shell pairs             ... done (   0.028 sec) 121524 of 371953 pairs
 Determination of significant pairs      ... done (   0.000 sec)
 Creation of shell pair data             ... done (   0.010 sec)
 Storage of shell pair data              ... done (   0.013 sec)
 Shell pair data done in (   0.052 sec)
 Computing two index integrals           ... done
 Cholesky decomposition of the V-matrix  ... done


Timings:
 Total evaluation time                   ...   5.421 sec (  0.090 min)
 One electron matrix time                ...   1.524 sec (  0.025 min) = 28.1%
 Schwartz matrix evaluation time         ...   2.882 sec (  0.048 min) = 53.2%
 Two index repulsion integral time       ...   0.211 sec (  0.004 min) =  3.9%
 Cholesky decomposition of V             ...   0.736 sec (  0.012 min) = 13.6%
 Three index repulsion integral time     ...   0.000 sec (  0.000 min) =  0.0%



           ************************************************************
           *        Program running with 6 parallel MPI-processes     *
           *              working on a common directory               *
           ************************************************************
-------------------------------------------------------------------------------
                                 ORCA SCF
-------------------------------------------------------------------------------

------------
SCF SETTINGS
------------
Hamiltonian:
 Density Functional     Method          .... DFT(GTOs)
 Exchange Functional    Exchange        .... B88
   X-Alpha parameter    XAlpha          ....  0.666667
   Becke's b parameter  XBeta           ....  0.004200
 Correlation Functional Correlation     .... LYP
 LDA part of GGA corr.  LDAOpt          .... VWN-5
 Gradients option       PostSCFGGA      .... off
 Hybrid DFT is turned on
   Fraction HF Exchange ScalHFX         ....  0.200000
   Scaling of DF-GGA-X  ScalDFX         ....  0.720000
   Scaling of DF-GGA-C  ScalDFC         ....  0.810000
   Scaling of DF-LDA-C  ScalLDAC        ....  1.000000
   Perturbative correction              ....  0.000000
   Density functional embedding theory  .... OFF
   NL short-range parameter             ....  4.800000
 RI-approximation to the Coulomb term is turned on
   Number of auxiliary basis functions  .... 3580
   RIJ-COSX (HFX calculated with COS-X)).... on


General Settings:
 Integral files         IntName         .... CPDT-4Cl
 Hartree-Fock type      HFTyp           .... RHF
 Total Charge           Charge          ....    0
 Multiplicity           Mult            ....    1
 Number of Electrons    NEL             ....  518
 Basis Dimension        Dim             .... 2274
 Nuclear Repulsion      ENuc            ....  10083.6035099245 Eh

Convergence Acceleration:
 DIIS                   CNVDIIS         .... on
   Start iteration      DIISMaxIt       ....    12
   Startup error        DIISStart       ....  0.200000
   # of expansion vecs  DIISMaxEq       ....     5
   Bias factor          DIISBfac        ....   1.050
   Max. coefficient     DIISMaxC        ....  10.000
 Newton-Raphson         CNVNR           .... off
 SOSCF                  CNVSOSCF        .... on
   Start iteration      SOSCFMaxIt      ....   150
   Startup grad/error   SOSCFStart      ....  0.003300
 Level Shifting         CNVShift        .... on
   Level shift para.    LevelShift      ....    0.2500
   Turn off err/grad.   ShiftErr        ....    0.0010
 Zerner damping         CNVZerner       .... off
 Static damping         CNVDamp         .... on
   Fraction old density DampFac         ....    0.7000
   Max. Damping (<1)    DampMax         ....    0.9800
   Min. Damping (>=0)   DampMin         ....    0.0000
   Turn off err/grad.   DampErr         ....    0.1000
 Fernandez-Rico         CNVRico         .... off

SCF Procedure:
 Maximum # iterations   MaxIter         ....   125
 SCF integral mode      SCFMode         .... Direct
   Integral package                     .... LIBINT
 Reset frequency        DirectResetFreq ....    20
 Integral Threshold     Thresh          ....  2.500e-11 Eh
 Primitive CutOff       TCut            ....  2.500e-12 Eh

Convergence Tolerance:
 Convergence Check Mode ConvCheckMode   .... Total+1el-Energy
 Convergence forced     ConvForced      .... 1
 Energy Change          TolE            ....  1.000e-08 Eh
 1-El. energy change                    ....  1.000e-05 Eh
 Orbital Gradient       TolG            ....  1.000e-05
 Orbital Rotation angle TolX            ....  1.000e-05
 DIIS Error             TolErr          ....  5.000e-07


Diagonalization of the overlap matrix:
Smallest eigenvalue                        ... 2.810e-06
Time for diagonalization                   ...    1.486 sec
Threshold for overlap eigenvalues          ... 1.000e-08
Number of eigenvalues below threshold      ... 0
Time for construction of square roots      ...    1.276 sec
Total time needed                          ...    2.766 sec

-------------------
DFT GRID GENERATION
-------------------

General Integration Accuracy     IntAcc      ...  4.670
Radial Grid Type                 RadialGrid  ... Gauss-Chebyshev
Angular Grid (max. acc.)         AngularGrid ... Lebedev-302
Angular grid pruning method      GridPruning ... 3 (G Style)
Weight generation scheme         WeightScheme... Becke
Basis function cutoff            BFCut       ...    1.0000e-11
Integration weight cutoff        WCut        ...    1.0000e-14
Grids for H and He will be reduced by one unit

# of grid points (after initial pruning)     ... 516452 (   0.0 sec)
# of grid points (after weights+screening)   ... 441971 (   4.0 sec)
nearest neighbour list constructed           ...    0.0 sec
Grid point re-assignment to atoms done       ...    0.1 sec
Grid point division into batches done        ...    1.7 sec
Reduced shell lists constructed in    3.0 sec

Total number of grid points                  ...   441971
Total number of batches                      ...     6951
Average number of points per batch           ...       63
Average number of grid points per atom       ...     4604
Average number of shells per batch           ...   179.42 (20.81%)
Average number of basis functions per batch  ...   474.16 (20.85%)
Average number of large shells per batch     ...   117.81 (65.66%)
Average number of large basis fcns per batch ...   315.02 (66.44%)
Maximum spatial batch extension              ...  14.99, 13.48, 16.57 au
Average spatial batch extension              ...   0.25,  0.25,  0.27 au

Time for grid setup =    7.424 sec

------------------------------
INITIAL GUESS: MODEL POTENTIAL
------------------------------
Loading Hartree-Fock densities                     ... done
Calculating cut-offs                               ... done
Setting up the integral package                    ... done
Initializing the effective Hamiltonian             ... done
Starting the Coulomb interaction                   ... done (   3.7 sec)
Reading the grid                                   ... done
Mapping shells                                     ... done
Starting the XC term evaluation                    ... done (   3.3 sec)
  promolecular density results
     # of electrons  =    517.985988752
     EX              =   -529.099375693
     EC              =    -18.708950812
     EX+EC           =   -547.808326506
Transforming the Hamiltonian                       ... done (   1.1 sec)
Diagonalizing the Hamiltonian                      ... done (   1.5 sec)
Back transforming the eigenvectors                 ... done (   0.6 sec)
Now organizing SCF variables                       ... done
                      ------------------
                      INITIAL GUESS DONE (  17.8 sec)
                      ------------------
--------------------
COSX GRID GENERATION
--------------------

General Integration Accuracy     IntAcc      ...  3.340
Radial Grid Type                 RadialGrid  ... Gauss-Chebyshev
Angular Grid (max. acc.)         AngularGrid ... Lebedev-50
Angular grid pruning method      GridPruning ... 3 (G Style)
Weight generation scheme         WeightScheme... Becke
Basis function cutoff            BFCut       ...    1.0000e-11
Integration weight cutoff        WCut        ...    1.0000e-14
Grids for H and He will be reduced by one unit

# of grid points (after initial pruning)     ...  48832 (   0.0 sec)
# of grid points (after weights+screening)   ...  43653 (   0.4 sec)
nearest neighbour list constructed           ...    0.0 sec
Grid point re-assignment to atoms done       ...    0.0 sec
Grid point division into batches done        ...    0.0 sec
Reduced shell lists constructed in    0.2 sec

Total number of grid points                  ...    43653
Total number of batches                      ...      729
Average number of points per batch           ...       59
Average number of grid points per atom       ...      455
Average number of shells per batch           ...   202.76 (23.52%)
Average number of basis functions per batch  ...   540.76 (23.78%)
Average number of large shells per batch     ...   134.25 (66.21%)
Average number of large basis fcns per batch ...   364.25 (67.36%)
Maximum spatial batch extension              ...  12.68, 15.00, 17.20 au
Average spatial batch extension              ...   0.54,  0.61,  0.67 au

Overlap Fitting                  UseSFitting ... on
Constructing numerical overlap ... done (      0.5 sec)
Inverting numerical overlap    ... done (      0.4 sec)
Obtaining analytic overlap     ... done (      0.0 sec)
Final contraction and storage  ... done (      2.4 sec)


General Integration Accuracy     IntAcc      ...  3.670
Radial Grid Type                 RadialGrid  ... Gauss-Chebyshev
Angular Grid (max. acc.)         AngularGrid ... Lebedev-50
Angular grid pruning method      GridPruning ... 3 (G Style)
Weight generation scheme         WeightScheme... Becke
Basis function cutoff            BFCut       ...    1.0000e-11
Integration weight cutoff        WCut        ...    1.0000e-14
Grids for H and He will be reduced by one unit

# of grid points (after initial pruning)     ...  60940 (   0.0 sec)
# of grid points (after weights+screening)   ...  54247 (   0.5 sec)
nearest neighbour list constructed           ...    0.0 sec
Grid point re-assignment to atoms done       ...    0.0 sec
Grid point division into batches done        ...    0.0 sec
Reduced shell lists constructed in    0.2 sec

Total number of grid points                  ...    54247
Total number of batches                      ...      903
Average number of points per batch           ...       60
Average number of grid points per atom       ...      565
Average number of shells per batch           ...   201.01 (23.32%)
Average number of basis functions per batch  ...   535.91 (23.57%)
Average number of large shells per batch     ...   132.73 (66.03%)
Average number of large basis fcns per batch ...   359.20 (67.03%)
Maximum spatial batch extension              ...  16.39, 22.39, 27.42 au
Average spatial batch extension              ...   0.48,  0.55,  0.58 au

Overlap Fitting                  UseSFitting ... on
Constructing numerical overlap ... done (      0.6 sec)
Inverting numerical overlap    ... done (      0.4 sec)
Obtaining analytic overlap     ... done (      0.0 sec)
Final contraction and storage  ... done (      2.4 sec)


General Integration Accuracy     IntAcc      ...  4.010
Radial Grid Type                 RadialGrid  ... Gauss-Chebyshev
Angular Grid (max. acc.)         AngularGrid ... Lebedev-110
Angular grid pruning method      GridPruning ... 3 (G Style)
Weight generation scheme         WeightScheme... Becke
Basis function cutoff            BFCut       ...    1.0000e-11
Integration weight cutoff        WCut        ...    1.0000e-14
Grids for H and He will be reduced by one unit

# of grid points (after initial pruning)     ... 118244 (   0.0 sec)
# of grid points (after weights+screening)   ... 104330 (   1.0 sec)
nearest neighbour list constructed           ...    0.0 sec
Grid point re-assignment to atoms done       ...    0.0 sec
Grid point division into batches done        ...    0.1 sec
Reduced shell lists constructed in    0.4 sec

Total number of grid points                  ...   104330
Total number of batches                      ...     1683
Average number of points per batch           ...       61
Average number of grid points per atom       ...     1087
Average number of shells per batch           ...   192.52 (22.33%)
Average number of basis functions per batch  ...   512.92 (22.56%)
Average number of large shells per batch     ...   127.50 (66.23%)
Average number of large basis fcns per batch ...   344.96 (67.25%)
Maximum spatial batch extension              ...  16.06, 14.32, 17.92 au
Average spatial batch extension              ...   0.41,  0.45,  0.49 au

Overlap Fitting                  UseSFitting ... on
Constructing numerical overlap ... done (      1.0 sec)
Inverting numerical overlap    ... done (      0.4 sec)
Obtaining analytic overlap     ... done (      0.0 sec)
Final contraction and storage  ... done (      2.4 sec)

Time for X-Grid setup             =   13.620 sec
--------------
SCF ITERATIONS
--------------
ITER       Energy         Delta-E        Max-DP      RMS-DP      [F,P]     Damp
               ***  Starting incremental Fock matrix formation  ***
  0  -5799.9182625697   0.000000000000 0.14824452  0.00094048  0.2830654 0.7000
  1  -5800.7534530603  -0.835190490583 0.11012227  0.00073582  0.0991729 0.7000
                               ***Turning on DIIS***
  2  -5801.0264109698  -0.272957909516 0.26492202  0.00096823  0.0484765 0.0000
  3  -5801.5093442436  -0.482933273772 0.11605330  0.00071456  0.0559886 0.0000
  4  -5801.6064962975  -0.097152053901 0.03099450  0.00021779  0.0405659 0.0000
  5  -5801.6223341280  -0.015837830546 0.01901363  0.00010413  0.0093435 0.0000
  6  -5801.6232952706  -0.000961142550 0.00926730  0.00003329  0.0039748 0.0000
                      *** Initiating the SOSCF procedure ***
                           *** Shutting down DIIS ***
                      *** Re-Reading the Fockian *** 
                      *** Removing any level shift *** 
ITER      Energy       Delta-E        Grad      Rot      Max-DP    RMS-DP
  7  -5801.62344435  -0.0001490827  0.000540  0.000540  0.004944  0.000019
               *** Restarting incremental Fock matrix formation ***
  8  -5801.62348067  -0.0000363159  0.000256  0.001605  0.007520  0.000047
  9  -5801.62345178   0.0000288856  0.000569  0.000894  0.000976  0.000006
 10  -5801.62348905  -0.0000372662  0.000115  0.001498  0.000841  0.000006
 11  -5801.62348579   0.0000032590  0.000216  0.000871  0.000370  0.000003
 12  -5801.62349009  -0.0000042989  0.000043  0.000186  0.000598  0.000002
 13  -5801.62348964   0.0000004481  0.000112  0.000142  0.000324  0.000001
 14  -5801.62349024  -0.0000005939  0.000015  0.000030  0.000258  0.000001
 15  -5801.62349016   0.0000000747  0.000019  0.000021  0.000192  0.000001
                  ***Gradient check signals convergence***
              ***Rediagonalizing the Fockian in SOSCF/NRSCF***

               *****************************************************
               *                     SUCCESS                       *
               *           SCF CONVERGED AFTER  16 CYCLES          *
               *****************************************************

Setting up the final grid:

General Integration Accuracy     IntAcc      ...  5.010
Radial Grid Type                 RadialGrid  ... Gauss-Chebyshev
Angular Grid (max. acc.)         AngularGrid ... Lebedev-434
Angular grid pruning method      GridPruning ... 3 (G Style)
Weight generation scheme         WeightScheme... Becke
Basis function cutoff            BFCut       ...    1.0000e-11
Integration weight cutoff        WCut        ...    1.0000e-14
Grids for H and He will be reduced by one unit

# of grid points (after initial pruning)     ... 915596 (   0.0 sec)
# of grid points (after weights+screening)   ... 780977 (   7.0 sec)
nearest neighbour list constructed           ...    0.0 sec
Grid point re-assignment to atoms done       ...    0.1 sec
Grid point division into batches done        ...    5.5 sec
Reduced shell lists constructed in    7.7 sec

Total number of grid points                  ...   780977
Total number of batches                      ...    12248
Average number of points per batch           ...       63
Average number of grid points per atom       ...     8135
Average number of shells per batch           ...   176.10 (20.43%)
Average number of basis functions per batch  ...   463.73 (20.39%)
Average number of large shells per batch     ...   115.21 (65.42%)
Average number of large basis fcns per batch ...   307.29 (66.27%)
Maximum spatial batch extension              ...  15.25, 19.27, 18.77 au
Average spatial batch extension              ...   0.20,  0.21,  0.22 au

Final grid set up in   15.3 sec
Final integration                            ... done (   7.9 sec)
Change in XC energy                          ...    -0.000089500
Integrated number of electrons               ...   518.000048999
Previous integrated no of electrons          ...   518.000333482
Old exchange energy                            =   -106.652002085 Eh
New exchange energy                            =   -106.654764121 Eh
Exchange energy change after final integration =     -0.002762036 Eh
Total energy after final integration           =  -5801.626341828 Eh
Final COS-X integration done in                =   214.609 sec

----------------
TOTAL SCF ENERGY
----------------

Total Energy       :        -5801.62634183 Eh         -157870.27873 eV

Components:
Nuclear Repulsion  :        10083.60350992 Eh          274388.80116 eV
Electronic Energy  :       -15885.22985175 Eh         -432259.07989 eV
One Electron Energy:       -28044.63097324 Eh         -763133.20572 eV
Two Electron Energy:        12159.40112149 Eh          330874.12583 eV

Virial components:
Potential Energy   :       -11586.60021317 Eh         -315287.42070 eV
Kinetic Energy     :         5784.97387134 Eh          157417.14197 eV
Virial Ratio       :            2.00287857


DFT components:
N(Alpha)           :      259.000024499537 electrons
N(Beta)            :      259.000024499537 electrons
N(Total)           :      518.000048999073 electrons
E(X)               :     -423.810166919576 Eh       
E(C)               :      -21.964122515513 Eh       
E(XC)              :     -445.774289435089 Eh       
DFET-embed. en.    :        0.000000000000 Eh       

---------------
SCF CONVERGENCE
---------------

  Last Energy change         ...   -1.3212e-07  Tolerance :   1.0000e-08
  Last MAX-Density change    ...    4.5519e-15  Tolerance :   1.0000e-07
  Last RMS-Density change    ...    1.4760e-17  Tolerance :   5.0000e-09
  Last Orbital Gradient      ...    2.2290e-06  Tolerance :   1.0000e-05
  Last Orbital Rotation      ...    2.8011e-05  Tolerance :   1.0000e-05

             **** THE GBW FILE WAS UPDATED (CPDT-4Cl.gbw) ****
             **** DENSITY FILE WAS UPDATED (CPDT-4Cl.scfp) ****
             **** ENERGY FILE WAS UPDATED (CPDT-4Cl.en.tmp) ****
             **** THE GBW FILE WAS UPDATED (CPDT-4Cl.gbw) ****
             **** DENSITY FILE WAS UPDATED (CPDT-4Cl.scfp) ****
----------------
ORBITAL ENERGIES
----------------

  NO   OCC          E(Eh)            E(eV) 
   0   2.0000    -101.550043     -2763.3172 
   1   2.0000    -101.548831     -2763.2842 
   2   2.0000    -101.547296     -2763.2424 
   3   2.0000    -101.544602     -2763.1691 
   4   2.0000     -88.922553     -2419.7057 
   5   2.0000     -88.921853     -2419.6866 
   6   2.0000     -88.917960     -2419.5807 
   7   2.0000     -88.917192     -2419.5598 
   8   2.0000     -19.134129      -520.6661 
   9   2.0000     -19.134075      -520.6646 
  10   2.0000     -14.334626      -390.0650 
  11   2.0000     -14.333480      -390.0338 
  12   2.0000     -14.333461      -390.0333 
  13   2.0000     -14.329345      -389.9213 
  14   2.0000     -10.281674      -279.7786 
  15   2.0000     -10.280909      -279.7578 
  16   2.0000     -10.276783      -279.6455 
  17   2.0000     -10.276068      -279.6260 
  18   2.0000     -10.272520      -279.5295 
  19   2.0000     -10.271859      -279.5115 
  20   2.0000     -10.263993      -279.2975 
  21   2.0000     -10.261554      -279.2311 
  22   2.0000     -10.260341      -279.1981 
  23   2.0000     -10.259024      -279.1622 
  24   2.0000     -10.255618      -279.0696 
  25   2.0000     -10.254716      -279.0450 
  26   2.0000     -10.250921      -278.9417 
  27   2.0000     -10.249118      -278.8927 
  28   2.0000     -10.243370      -278.7363 
  29   2.0000     -10.243237      -278.7326 
  30   2.0000     -10.242796      -278.7206 
  31   2.0000     -10.241686      -278.6905 
  32   2.0000     -10.236444      -278.5478 
  33   2.0000     -10.234633      -278.4985 
  34   2.0000     -10.234177      -278.4861 
  35   2.0000     -10.233758      -278.4747 
  36   2.0000     -10.232833      -278.4496 
  37   2.0000     -10.232546      -278.4417 
  38   2.0000     -10.230754      -278.3930 
  39   2.0000     -10.229751      -278.3657 
  40   2.0000     -10.229555      -278.3603 
  41   2.0000     -10.228015      -278.3184 
  42   2.0000     -10.224027      -278.2099 
  43   2.0000     -10.223871      -278.2057 
  44   2.0000     -10.222476      -278.1677 
  45   2.0000     -10.219760      -278.0938 
  46   2.0000     -10.219270      -278.0805 
  47   2.0000     -10.219239      -278.0796 
  48   2.0000     -10.219106      -278.0760 
  49   2.0000     -10.218748      -278.0663 
  50   2.0000     -10.218569      -278.0614 
  51   2.0000     -10.218408      -278.0570 
  52   2.0000     -10.218285      -278.0537 
  53   2.0000     -10.217650      -278.0364 
  54   2.0000     -10.215401      -277.9752 
  55   2.0000     -10.212974      -277.9092 
  56   2.0000     -10.212779      -277.9039 
  57   2.0000     -10.208526      -277.7881 
  58   2.0000     -10.198533      -277.5162 
  59   2.0000     -10.197080      -277.4767 
  60   2.0000     -10.196521      -277.4614 
  61   2.0000     -10.196226      -277.4534 
  62   2.0000     -10.179788      -277.0061 
  63   2.0000     -10.178148      -276.9615 
  64   2.0000     -10.177074      -276.9322 
  65   2.0000     -10.176828      -276.9256 
  66   2.0000      -9.482273      -258.0258 
  67   2.0000      -9.481098      -257.9938 
  68   2.0000      -9.479561      -257.9520 
  69   2.0000      -9.476903      -257.8796 
  70   2.0000      -7.998219      -217.6426 
  71   2.0000      -7.997667      -217.6276 
  72   2.0000      -7.994116      -217.5310 
  73   2.0000      -7.992884      -217.4974 
  74   2.0000      -7.244000      -197.1192 
  75   2.0000      -7.242858      -197.0882 
  76   2.0000      -7.241263      -197.0448 
  77   2.0000      -7.238632      -196.9732 
  78   2.0000      -7.235534      -196.8889 
  79   2.0000      -7.234782      -196.8684 
  80   2.0000      -7.234347      -196.8566 
  81   2.0000      -7.233591      -196.8360 
  82   2.0000      -7.232832      -196.8154 
  83   2.0000      -7.232076      -196.7948 
  84   2.0000      -7.230150      -196.7424 
  85   2.0000      -7.229399      -196.7220 
  86   2.0000      -5.960816      -162.2021 
  87   2.0000      -5.960237      -162.1863 
  88   2.0000      -5.957068      -162.1001 
  89   2.0000      -5.956602      -162.0874 
  90   2.0000      -5.956499      -162.0846 
  91   2.0000      -5.955271      -162.0512 
  92   2.0000      -5.954748      -162.0369 
  93   2.0000      -5.954197      -162.0219 
  94   2.0000      -5.952869      -161.9858 
  95   2.0000      -5.951627      -161.9520 
  96   2.0000      -5.950720      -161.9273 
  97   2.0000      -5.949674      -161.8989 
  98   2.0000      -1.061660       -28.8892 
  99   2.0000      -1.060982       -28.8708 
 100   2.0000      -0.949253       -25.8305 
 101   2.0000      -0.945684       -25.7334 
 102   2.0000      -0.943852       -25.6835 
 103   2.0000      -0.941744       -25.6262 
 104   2.0000      -0.934909       -25.4402 
 105   2.0000      -0.932838       -25.3838 
 106   2.0000      -0.920983       -25.0612 
 107   2.0000      -0.918534       -24.9946 
 108   2.0000      -0.914928       -24.8965 
 109   2.0000      -0.907942       -24.7064 
 110   2.0000      -0.903935       -24.5973 
 111   2.0000      -0.899251       -24.4699 
 112   2.0000      -0.880671       -23.9643 
 113   2.0000      -0.877152       -23.8685 
 114   2.0000      -0.868718       -23.6390 
 115   2.0000      -0.857788       -23.3416 
 116   2.0000      -0.850802       -23.1515 
 117   2.0000      -0.848194       -23.0805 
 118   2.0000      -0.827926       -22.5290 
 119   2.0000      -0.824432       -22.4339 
 120   2.0000      -0.813832       -22.1455 
 121   2.0000      -0.804141       -21.8818 
 122   2.0000      -0.788960       -21.4687 
 123   2.0000      -0.783588       -21.3225 
 124   2.0000      -0.779670       -21.2159 
 125   2.0000      -0.779114       -21.2008 
 126   2.0000      -0.776069       -21.1179 
 127   2.0000      -0.773938       -21.0599 
 128   2.0000      -0.772459       -21.0197 
 129   2.0000      -0.771538       -20.9946 
 130   2.0000      -0.768355       -20.9080 
 131   2.0000      -0.764632       -20.8067 
 132   2.0000      -0.743702       -20.2372 
 133   2.0000      -0.723855       -19.6971 
 134   2.0000      -0.709207       -19.2985 
 135   2.0000      -0.700958       -19.0740 
 136   2.0000      -0.696649       -18.9568 
 137   2.0000      -0.690429       -18.7875 
 138   2.0000      -0.686642       -18.6845 
 139   2.0000      -0.676759       -18.4156 
 140   2.0000      -0.657750       -17.8983 
 141   2.0000      -0.641996       -17.4696 
 142   2.0000      -0.636830       -17.3290 
 143   2.0000      -0.634744       -17.2723 
 144   2.0000      -0.629558       -17.1311 
 145   2.0000      -0.625200       -17.0125 
 146   2.0000      -0.621717       -16.9178 
 147   2.0000      -0.616389       -16.7728 
 148   2.0000      -0.614486       -16.7210 
 149   2.0000      -0.609008       -16.5720 
 150   2.0000      -0.602895       -16.4056 
 151   2.0000      -0.586116       -15.9490 
 152   2.0000      -0.578878       -15.7521 
 153   2.0000      -0.574470       -15.6321 
 154   2.0000      -0.570276       -15.5180 
 155   2.0000      -0.564837       -15.3700 
 156   2.0000      -0.561155       -15.2698 
 157   2.0000      -0.553725       -15.0676 
 158   2.0000      -0.551176       -14.9983 
 159   2.0000      -0.543120       -14.7790 
 160   2.0000      -0.539874       -14.6907 
 161   2.0000      -0.532871       -14.5002 
 162   2.0000      -0.522517       -14.2184 
 163   2.0000      -0.513804       -13.9813 
 164   2.0000      -0.509983       -13.8773 
 165   2.0000      -0.505833       -13.7644 
 166   2.0000      -0.499933       -13.6039 
 167   2.0000      -0.494433       -13.4542 
 168   2.0000      -0.491431       -13.3725 
 169   2.0000      -0.486389       -13.2353 
 170   2.0000      -0.483680       -13.1616 
 171   2.0000      -0.481127       -13.0921 
 172   2.0000      -0.480461       -13.0740 
 173   2.0000      -0.478180       -13.0119 
 174   2.0000      -0.473124       -12.8744 
 175   2.0000      -0.471135       -12.8202 
 176   2.0000      -0.468355       -12.7446 
 177   2.0000      -0.465838       -12.6761 
 178   2.0000      -0.464319       -12.6348 
 179   2.0000      -0.463930       -12.6242 
 180   2.0000      -0.463485       -12.6121 
 181   2.0000      -0.460981       -12.5439 
 182   2.0000      -0.458589       -12.4788 
 183   2.0000      -0.451828       -12.2949 
 184   2.0000      -0.448767       -12.2116 
 185   2.0000      -0.445828       -12.1316 
 186   2.0000      -0.443450       -12.0669 
 187   2.0000      -0.442117       -12.0306 
 188   2.0000      -0.438080       -11.9208 
 189   2.0000      -0.434177       -11.8146 
 190   2.0000      -0.431665       -11.7462 
 191   2.0000      -0.431424       -11.7396 
 192   2.0000      -0.429968       -11.7000 
 193   2.0000      -0.427498       -11.6328 
 194   2.0000      -0.422578       -11.4989 
 195   2.0000      -0.421677       -11.4744 
 196   2.0000      -0.420315       -11.4374 
 197   2.0000      -0.419014       -11.4020 
 198   2.0000      -0.416723       -11.3396 
 199   2.0000      -0.414352       -11.2751 
 200   2.0000      -0.413598       -11.2546 
 201   2.0000      -0.408278       -11.1098 
 202   2.0000      -0.408098       -11.1049 
 203   2.0000      -0.404526       -11.0077 
 204   2.0000      -0.400548       -10.8995 
 205   2.0000      -0.400099       -10.8872 
 206   2.0000      -0.397653       -10.8207 
 207   2.0000      -0.396323       -10.7845 
 208   2.0000      -0.394328       -10.7302 
 209   2.0000      -0.390787       -10.6339 
 210   2.0000      -0.389937       -10.6107 
 211   2.0000      -0.387211       -10.5366 
 212   2.0000      -0.386332       -10.5126 
 213   2.0000      -0.384465       -10.4618 
 214   2.0000      -0.382624       -10.4117 
 215   2.0000      -0.380735       -10.3603 
 216   2.0000      -0.379309       -10.3215 
 217   2.0000      -0.377615       -10.2754 
 218   2.0000      -0.374134       -10.1807 
 219   2.0000      -0.372228       -10.1288 
 220   2.0000      -0.370342       -10.0775 
 221   2.0000      -0.368279       -10.0214 
 222   2.0000      -0.365775        -9.9533 
 223   2.0000      -0.365501        -9.9458 
 224   2.0000      -0.363183        -9.8827 
 225   2.0000      -0.363051        -9.8791 
 226   2.0000      -0.361703        -9.8424 
 227   2.0000      -0.359571        -9.7844 
 228   2.0000      -0.357365        -9.7244 
 229   2.0000      -0.355765        -9.6809 
 230   2.0000      -0.354256        -9.6398 
 231   2.0000      -0.352484        -9.5916 
 232   2.0000      -0.349338        -9.5060 
 233   2.0000      -0.349144        -9.5007 
 234   2.0000      -0.347162        -9.4468 
 235   2.0000      -0.346092        -9.4176 
 236   2.0000      -0.344629        -9.3778 
 237   2.0000      -0.342146        -9.3103 
 238   2.0000      -0.341763        -9.2998 
 239   2.0000      -0.340819        -9.2742 
 240   2.0000      -0.339105        -9.2275 
 241   2.0000      -0.327117        -8.9013 
 242   2.0000      -0.325946        -8.8694 
 243   2.0000      -0.322444        -8.7741 
 244   2.0000      -0.313342        -8.5265 
 245   2.0000      -0.296482        -8.0677 
 246   2.0000      -0.293744        -7.9932 
 247   2.0000      -0.287496        -7.8232 
 248   2.0000      -0.287253        -7.8166 
 249   2.0000      -0.285987        -7.7821 
 250   2.0000      -0.282911        -7.6984 
 251   2.0000      -0.282319        -7.6823 
 252   2.0000      -0.278084        -7.5670 
 253   2.0000      -0.277596        -7.5538 
 254   2.0000      -0.268693        -7.3115 
 255   2.0000      -0.261945        -7.1279 
 256   2.0000      -0.258988        -7.0474 
 257   2.0000      -0.235632        -6.4119 
 258   2.0000      -0.207343        -5.6421 
 259   0.0000      -0.141044        -3.8380 
 260   0.0000      -0.126957        -3.4547 
 261   0.0000      -0.111767        -3.0413 
 262   0.0000      -0.107949        -2.9375 
 263   0.0000      -0.088003        -2.3947 
 264   0.0000      -0.065433        -1.7805 
 265   0.0000      -0.051916        -1.4127 
 266   0.0000      -0.041179        -1.1205 
 267   0.0000      -0.034089        -0.9276 
 268   0.0000      -0.029833        -0.8118 
 269   0.0000      -0.026240        -0.7140 
 270   0.0000      -0.021848        -0.5945 
 271   0.0000      -0.019938        -0.5425 
 272   0.0000      -0.016272        -0.4428 
 273   0.0000      -0.013844        -0.3767 
 274   0.0000      -0.011636        -0.3166 
 275   0.0000      -0.007656        -0.2083 
 276   0.0000      -0.003714        -0.1011 
 277   0.0000      -0.002114        -0.0575 
 278   0.0000       0.002854         0.0777 
 279   0.0000       0.005568         0.1515 
 280   0.0000       0.009499         0.2585 
 281   0.0000       0.013599         0.3700 
 282   0.0000       0.017435         0.4744 
 283   0.0000       0.021669         0.5896 
 284   0.0000       0.022906         0.6233 
 285   0.0000       0.025769         0.7012 
 286   0.0000       0.030303         0.8246 
 287   0.0000       0.032296         0.8788 
 288   0.0000       0.032513         0.8847 
 289   0.0000       0.034745         0.9454 
 290   0.0000       0.036189         0.9847 
 291   0.0000       0.037054         1.0083 
 292   0.0000       0.040591         1.1045 
 293   0.0000       0.042086         1.1452 
 294   0.0000       0.044564         1.2127 
 295   0.0000       0.044965         1.2236 
 296   0.0000       0.046469         1.2645 
 297   0.0000       0.047265         1.2862 
 298   0.0000       0.049285         1.3411 
 299   0.0000       0.050856         1.3839 
 300   0.0000       0.054808         1.4914 
 301   0.0000       0.059687         1.6242 
 302   0.0000       0.061136         1.6636 
 303   0.0000       0.068245         1.8570 
 304   0.0000       0.068764         1.8712 
 305   0.0000       0.069767         1.8985 
 306   0.0000       0.074514         2.0276 
 307   0.0000       0.076399         2.0789 
 308   0.0000       0.077280         2.1029 
 309   0.0000       0.080276         2.1844 
 310   0.0000       0.082638         2.2487 
 311   0.0000       0.085406         2.3240 
 312   0.0000       0.087600         2.3837 
 313   0.0000       0.088807         2.4166 
 314   0.0000       0.091159         2.4806 
[...]
   250a -> 262a  :     0.032557 (c=  0.18043478)
   251a -> 260a  :     0.010063 (c=  0.10031569)
   251a -> 261a  :     0.382249 (c= -0.61826315)
   251a -> 262a  :     0.131574 (c=  0.36273182)
   253a -> 261a  :     0.013150 (c= -0.11467304)
   255a -> 263a  :     0.019886 (c= -0.14101643)
   256a -> 263a  :     0.011305 (c= -0.10632545)
   257a -> 264a  :     0.034525 (c= -0.18580795)
   258a -> 266a  :     0.036828 (c=  0.19190670)
   258a -> 268a  :     0.042218 (c= -0.20547023)

STATE 47:  E=   0.155602 au      4.234 eV    34150.6 cm**-1
   244a -> 259a  :     0.137977 (c= -0.37145204)
   245a -> 260a  :     0.132062 (c=  0.36340315)
   247a -> 260a  :     0.037770 (c=  0.19434489)
   247a -> 261a  :     0.012502 (c=  0.11181328)
   249a -> 261a  :     0.012602 (c= -0.11225930)
   251a -> 260a  :     0.011296 (c= -0.10628185)
   251a -> 261a  :     0.013452 (c=  0.11598223)
   253a -> 261a  :     0.015055 (c=  0.12269781)
   254a -> 261a  :     0.019047 (c=  0.13801018)
   254a -> 262a  :     0.023938 (c=  0.15471966)
   256a -> 263a  :     0.231423 (c=  0.48106404)
   257a -> 264a  :     0.162454 (c= -0.40305524)
   258a -> 269a  :     0.013902 (c= -0.11790715)

STATE 48:  E=   0.156684 au      4.264 eV    34388.2 cm**-1
   244a -> 259a  :     0.026730 (c=  0.16349302)
   245a -> 259a  :     0.113529 (c=  0.33694114)
   246a -> 260a  :     0.021256 (c= -0.14579479)
   248a -> 259a  :     0.011875 (c=  0.10897224)
   248a -> 261a  :     0.052374 (c= -0.22885259)
   248a -> 262a  :     0.029163 (c= -0.17077168)
   249a -> 261a  :     0.010764 (c=  0.10374933)
   249a -> 262a  :     0.029994 (c=  0.17318858)
   251a -> 261a  :     0.011803 (c=  0.10864358)
   254a -> 260a  :     0.013175 (c=  0.11478287)
   254a -> 262a  :     0.098808 (c=  0.31433675)
   255a -> 263a  :     0.043693 (c=  0.20902919)
   257a -> 263a  :     0.042576 (c=  0.20633929)
   257a -> 264a  :     0.109210 (c=  0.33046961)
   258a -> 264a  :     0.014807 (c=  0.12168232)
   258a -> 266a  :     0.128041 (c=  0.35782783)
   258a -> 268a  :     0.063062 (c= -0.25112133)

STATE 49:  E=   0.157152 au      4.276 eV    34490.9 cm**-1
   245a -> 260a  :     0.031813 (c=  0.17836286)
   247a -> 260a  :     0.017292 (c=  0.13149888)
   247a -> 262a  :     0.010609 (c=  0.10299998)
   248a -> 261a  :     0.013541 (c=  0.11636612)
   248a -> 262a  :     0.019802 (c= -0.14071812)
   249a -> 260a  :     0.016746 (c= -0.12940733)
   249a -> 261a  :     0.116635 (c=  0.34151915)
   249a -> 262a  :     0.052004 (c= -0.22804318)
   250a -> 261a  :     0.232296 (c=  0.48197095)
   250a -> 262a  :     0.019916 (c= -0.14112378)
   253a -> 261a  :     0.045832 (c= -0.21408305)
   254a -> 262a  :     0.016302 (c=  0.12767941)
   255a -> 263a  :     0.051207 (c= -0.22629044)
   256a -> 262a  :     0.010988 (c=  0.10482208)
   256a -> 263a  :     0.015364 (c= -0.12395323)
   257a -> 264a  :     0.116693 (c= -0.34160308)
   258a -> 266a  :     0.067781 (c=  0.26034762)
   258a -> 268a  :     0.015073 (c= -0.12277374)

STATE 50:  E=   0.158126 au      4.303 eV    34704.7 cm**-1
   244a -> 259a  :     0.035952 (c=  0.18961069)
   245a -> 259a  :     0.016375 (c=  0.12796625)
   245a -> 260a  :     0.032611 (c=  0.18058441)
   247a -> 260a  :     0.018305 (c= -0.13529749)
   247a -> 261a  :     0.055007 (c= -0.23453646)
   247a -> 262a  :     0.045406 (c= -0.21308724)
   248a -> 260a  :     0.018382 (c=  0.13558189)
   248a -> 261a  :     0.038554 (c=  0.19635252)
   248a -> 262a  :     0.024350 (c=  0.15604499)
   249a -> 260a  :     0.011777 (c= -0.10851965)
   249a -> 261a  :     0.019112 (c= -0.13824533)
   249a -> 262a  :     0.016601 (c= -0.12884337)
   253a -> 261a  :     0.045102 (c=  0.21237272)
   254a -> 260a  :     0.012197 (c=  0.11043795)
   254a -> 262a  :     0.016512 (c=  0.12850019)
   254a -> 263a  :     0.013060 (c=  0.11428015)
   254a -> 264a  :     0.010292 (c=  0.10145060)
   255a -> 262a  :     0.015604 (c=  0.12491684)
   255a -> 263a  :     0.198463 (c=  0.44549144)
   255a -> 264a  :     0.014357 (c=  0.11982246)
   256a -> 263a  :     0.136956 (c= -0.37007555)
   256a -> 264a  :     0.012099 (c= -0.10999631)
   257a -> 264a  :     0.115528 (c= -0.33989339)


-----------------------------
TD-DFT/TDA-EXCITATION SPECTRA
-----------------------------

Center of mass = ( 13.7519, -7.5394, -4.0654)
Calculating the Dipole integrals                  ... done
Transforming integrals                            ... done
Calculating the Linear Momentum integrals         ... done
Transforming integrals                            ... done
Calculating angular momentum integrals            ... done
Transforming integrals                            ... done

-----------------------------------------------------------------------------
         ABSORPTION SPECTRUM VIA TRANSITION ELECTRIC DIPOLE MOMENTS
-----------------------------------------------------------------------------
State   Energy    Wavelength  fosc         T2        TX        TY        TZ  
        (cm-1)      (nm)                 (au**2)    (au)      (au)      (au) 
-----------------------------------------------------------------------------
   1   13768.7    726.3   2.686584809  64.23671   4.69964  -5.77880  -2.95897
   2   16271.9    614.6   0.364228472   7.36905   0.99339  -2.11344  -1.38405
   3   18570.2    538.5   0.417440120   7.40037   1.07145  -2.22939  -1.13235
   4   18863.9    530.1   0.018631000   0.32515  -0.11791  -0.16031  -0.53436
   5   21099.8    473.9   0.261870509   4.08587   0.80237   1.45154   1.15546
   6   22149.4    451.5   0.332737556   4.94556   0.42451  -1.66418  -1.41275
   7   23342.6    428.4   0.004993808   0.07043  -0.18184  -0.11913   0.15223
   8   23902.0    418.4   0.014122483   0.19452   0.34989   0.25044  -0.09681
   9   24656.7    405.6   0.026821974   0.35812   0.10740  -0.58427  -0.07223
  10   25184.8    397.1   0.079164896   1.03483  -0.36892  -0.89025  -0.32587
  11   25236.7    396.2   0.005556927   0.07249  -0.09214  -0.23030  -0.10469
  12   25279.5    395.6   0.029452841   0.38356  -0.14591  -0.60160  -0.01860
  13   25453.4    392.9   0.088958970   1.15058  -1.01804   0.18705   0.28142
  14   26945.2    371.1   0.025253973   0.30855   0.48724  -0.06698  -0.25818
  15   27223.6    367.3   0.011014416   0.13320  -0.03970  -0.35102  -0.09168
  16   27276.8    366.6   0.000030421   0.00037  -0.01350  -0.00796  -0.01102
  17   27527.0    363.3   0.030409654   0.36369  -0.27930  -0.52304   0.11002
  18   27807.9    359.6   0.002738830   0.03242   0.09630   0.11829  -0.09570
  19   27913.5    358.2   0.033976456   0.40072   0.29615  -0.32932  -0.45228
  20   28375.8    352.4   0.005379979   0.06242  -0.06095  -0.23968  -0.03542
  21   28595.9    349.7   0.058044717   0.66824  -0.54477  -0.59344  -0.13894
  22   28844.9    346.7   0.016691981   0.19051  -0.23705   0.11762   0.34710
  23   28970.3    345.2   0.042835534   0.48677  -0.64082  -0.23871   0.13833
  24   29024.7    344.5   0.015141461   0.17174   0.39758  -0.04249  -0.10893
  25   29596.4    337.9   0.037527676   0.41743   0.61405   0.06932  -0.18860
  26   30061.5    332.7   0.029286590   0.32073   0.41764   0.35313  -0.14695
  27   30209.0    331.0   0.000712676   0.00777  -0.02637  -0.08371  -0.00801
  28   30359.0    329.4   0.039731179   0.43084  -0.03784  -0.64079  -0.13713
  29   30816.1    324.5   0.006400539   0.06838   0.12921  -0.14569  -0.17452
  30   30920.5    323.4   0.050738280   0.54021  -0.57574  -0.26085   0.37509
  31   31149.8    321.0   0.050688392   0.53571   0.35887  -0.23516  -0.59297
  32   31202.0    320.5   0.007144129   0.07538  -0.23674  -0.05091   0.12938
  33   31395.1    318.5   0.020259373   0.21244  -0.21592   0.19633   0.35676
  34   31575.4    316.7   0.185896973   1.93820   0.19312  -1.21248  -0.65634
  35   31715.8    315.3   0.291715807   3.02803   1.30809   0.58966  -0.98449
  36   31849.3    314.0   0.099331442   1.02674   0.61129   0.79548   0.14241
  37   32126.0    311.3   0.017851077   0.18293   0.31781   0.27883   0.06467
  38   32210.0    310.5   0.084544404   0.86411  -0.66341   0.24556   0.60307
  39   32451.8    308.1   0.021825152   0.22141  -0.33400  -0.31603   0.09987
  40   32583.2    306.9   0.006863271   0.06934  -0.16561   0.18356   0.09068
  41   32755.0    305.3   0.069509213   0.69862   0.68292   0.17181  -0.45025
  42   32868.0    304.2   0.014011166   0.14034  -0.22009  -0.10564   0.28415
  43   33185.8    301.3   0.093421225   0.92676  -0.79376  -0.34924   0.41802
  44   33386.2    299.5   0.010342350   0.10198   0.05926  -0.20090  -0.24106
  45   33825.4    295.6   0.001418105   0.01380  -0.04128  -0.02999   0.10582
  46   34081.6    293.4   0.008393646   0.08108   0.22193  -0.12736  -0.12492
  47   34150.6    292.8   0.032918822   0.31734   0.16516   0.49451   0.21335
  48   34388.2    290.8   0.067855538   0.64961  -0.30361   0.35660   0.65595
  49   34490.9    289.9   0.001463163   0.01397   0.03193  -0.09046   0.06902
  50   34704.7    288.1   0.039785522   0.37741   0.52813   0.31331  -0.01811

-----------------------------------------------------------------------------
         ABSORPTION SPECTRUM VIA TRANSITION VELOCITY DIPOLE MOMENTS
-----------------------------------------------------------------------------
State   Energy    Wavelength   fosc        P2         PX        PY        PZ  
        (cm-1)      (nm)                 (au**2)     (au)      (au)      (au) 
-----------------------------------------------------------------------------
   1   13768.7    726.3   0.610915599   0.05749  -0.09970   0.19211   0.10315
   2   16271.9    614.6   0.074927919   0.00833  -0.03605   0.08225   0.01638
   3   18570.2    538.5   0.098773909   0.01254  -0.08619   0.06307   0.03360
   4   18863.9    530.1   0.012246797   0.00158   0.01852   0.00171  -0.03511
   5   21099.8    473.9   0.028731683   0.00414  -0.00642  -0.06361   0.00748
   6   22149.4    451.5   0.128223551   0.01941  -0.03433   0.12627   0.04783
   7   23342.6    428.4   0.006000805   0.00096  -0.00455   0.00643   0.02992
   8   23902.0    418.4   0.000948442   0.00015  -0.01171  -0.00230  -0.00354
   9   24656.7    405.6   0.003634390   0.00061  -0.01385   0.01067  -0.01751
  10   25184.8    397.1   0.022627944   0.00389   0.00492   0.05719   0.02450
  11   25236.7    396.2   0.002323982   0.00040  -0.00362   0.01968   0.00068
  12   25279.5    395.6   0.002564132   0.00044  -0.02092  -0.00058  -0.00227
  13   25453.4    392.9   0.014582582   0.00254   0.04597  -0.01932   0.00707
  14   26945.2    371.1   0.020795555   0.00383   0.01138   0.02782  -0.05409
  15   27223.6    367.3   0.002974809   0.00055  -0.00039   0.01199  -0.02024
  16   27276.8    366.6   0.000076275   0.00001  -0.00349   0.00035  -0.00139
  17   27527.0    363.3   0.029287083   0.00551   0.04133   0.05917  -0.01734
  18   27807.9    359.6   0.012291701   0.00234  -0.03304  -0.00584   0.03479
  19   27913.5    358.2   0.020546813   0.00392  -0.05689  -0.01103   0.02370
  20   28375.8    352.4   0.007499331   0.00145  -0.02715  -0.02047   0.01728
  21   28595.9    349.7   0.004163988   0.00081  -0.01379  -0.02305   0.00961
  22   28844.9    346.7   0.010679466   0.00211  -0.02391  -0.03098   0.02396
  23   28970.3    345.2   0.027660546   0.00548   0.06745   0.02781  -0.01242
  24   29024.7    344.5   0.019979093   0.00396  -0.05297   0.01420   0.03091
  25   29596.4    337.9   0.039694353   0.00803  -0.03953   0.06178   0.05147
  26   30061.5    332.7   0.000895463   0.00018  -0.00669  -0.00817   0.00851
  27   30209.0    331.0   0.000341257   0.00007  -0.00789  -0.00280   0.00065
  28   30359.0    329.4   0.032907223   0.00683  -0.07702   0.00523   0.02948
  29   30816.1    324.5   0.006424427   0.00135  -0.02865  -0.02278  -0.00366
  30   30920.5    323.4   0.006146853   0.00130   0.03318   0.01366  -0.00337
  31   31149.8    321.0   0.001217711   0.00026  -0.00303  -0.00277  -0.01557
  32   31202.0    320.5   0.003359454   0.00072  -0.01994  -0.01710   0.00514
  33   31395.1    318.5   0.005446099   0.00117   0.02926   0.01764  -0.00101
  34   31575.4    316.7   0.065974097   0.01424  -0.11209  -0.00457   0.04064
  35   31715.8    315.3   0.020144970   0.00437   0.00170  -0.02849  -0.05960
  36   31849.3    314.0   0.001654875   0.00036   0.00865   0.00120   0.01685
  37   32126.0    311.3   0.003149260   0.00069   0.01101   0.02387   0.00080
  38   32210.0    310.5   0.010907173   0.00240   0.04182  -0.01969  -0.01627
  39   32451.8    308.1   0.017391271   0.00386  -0.04779  -0.03778   0.01208
  40   32583.2    306.9   0.010929456   0.00243  -0.00596  -0.04317  -0.02313
  41   32755.0    305.3   0.013831116   0.00310  -0.04768  -0.02824  -0.00503
  42   32868.0    304.2   0.004045024   0.00091  -0.00963   0.02368   0.01597
  43   33185.8    301.3   0.004213271   0.00096   0.02374  -0.01272  -0.01517
  44   33386.2    299.5   0.003109828   0.00071  -0.02577  -0.00528   0.00422
  45   33825.4    295.6   0.008139364   0.00188  -0.02464  -0.03558  -0.00288
  46   34081.6    293.4   0.010334026   0.00241   0.01765   0.04578  -0.00019
  47   34150.6    292.8   0.003274002   0.00076   0.01377  -0.02392   0.00152
  48   34388.2    290.8   0.000664182   0.00016   0.00861   0.00652   0.00628
  49   34490.9    289.9   0.000117257   0.00003  -0.00466   0.00076   0.00230
  50   34704.7    288.1   0.005484849   0.00130  -0.01952   0.02638   0.01497

-------------------------------------------------------------------
                             CD SPECTRUM
-------------------------------------------------------------------
State  Energy     Wavelength     R         MX        MY        MZ   
       (cm-1)       (nm)     (1e40*cgs)   (au)      (au)      (au)  
-------------------------------------------------------------------
   1   13768.7    726.3    165.17875  -0.18290   0.44004  -1.26829
   2   16271.9    614.6    128.92963  -0.09969   0.24634  -0.64530
   3   18570.2    538.5     17.85954   0.13771   0.35572  -0.60349
   4   18863.9    530.1     53.27077  -0.11613   0.12121  -0.22219
   5   21099.8    473.9    -289.03622  -0.27422   0.04685  -0.39902
   6   22149.4    451.5    -41.31965   0.10613   0.10630  -0.03129
   7   23342.6    428.4     13.98361  -0.07945  -0.11416   0.01061
   8   23902.0    418.4     13.76028   0.09709   0.01991   0.10093
   9   24656.7    405.6    -13.05599   0.01570   0.07221  -0.17739
  10   25184.8    397.1    -14.17840   0.19725  -0.12718   0.21644
  11   25236.7    396.2      4.63473  -0.06166  -0.12025   0.22490
  12   25279.5    395.6    -50.68928   0.01623   0.18179  -0.22670
  13   25453.4    392.9     23.21246   0.05593  -0.22206   0.52488
  14   26945.2    371.1     31.83304   0.10615  -0.04135  -0.05048
  15   27223.6    367.3     28.69097  -0.06759  -0.08581  -0.30601
  16   27276.8    366.6      0.01708   0.14645  -0.05695  -0.14161
  17   27527.0    363.3      5.13391   0.12088  -0.04695   0.18268
  18   27807.9    359.6     -3.71202   0.09320   0.03366   0.21765
  19   27913.5    358.2     49.31794  -0.10832   0.17174  -0.42727
  20   28375.8    352.4     -5.40249   0.12352  -0.01365   0.20334
  21   28595.9    349.7     36.19499  -0.09796  -0.04302   0.01528
  22   28844.9    346.7     40.76717   0.17466   0.03013   0.35820
  23   28970.3    345.2     33.51829  -0.09694  -0.05876  -0.03652
  24   29024.7    344.5      8.98611   0.05085   0.06450  -0.01454
  25   29596.4    337.9      5.85419  -0.06410   0.15920  -0.21603
  26   30061.5    332.7      0.78363   0.03223  -0.01061   0.05477
  27   30209.0    331.0      0.04459  -0.02006   0.00050   0.04908
  28   30359.0    329.4    -24.96250  -0.01702   0.13518  -0.24087
  29   30816.1    324.5      9.75023   0.10280   0.03117  -0.06841
  30   30920.5    323.4      6.95147   0.05606  -0.00864   0.11935
  31   31149.8    321.0     28.73788   0.04309  -0.01915  -0.06912
  32   31202.0    320.5     -2.68434  -0.14524   0.10001  -0.27044
  33   31395.1    318.5      2.76413   0.02031  -0.03200   0.04634
  34   31575.4    316.7     17.23221  -0.08323   0.29961  -0.63366
  35   31715.8    315.3     85.44766  -0.08981  -0.02696  -0.31957
  36   31849.3    314.0     19.28931  -0.00392   0.03464   0.11066
  37   32126.0    311.3     -7.39005  -0.05709   0.02246  -0.05867
  38   32210.0    310.5     72.20867   0.20643  -0.16730   0.54918
  39   32451.8    308.1    -22.87810   0.11218   0.04993   0.04727
  40   32583.2    306.9     -5.60381   0.10439  -0.04070   0.14197
  41   32755.0    305.3     52.11550  -0.04121   0.08861  -0.27421
  42   32868.0    304.2      7.27457   0.06850  -0.01366   0.10228
  43   33185.8    301.3     -6.64877   0.09746  -0.02411   0.13118
  44   33386.2    299.5     -6.69486   0.06736   0.00201   0.07379
  45   33825.4    295.6     -4.95012   0.05293   0.06531  -0.06007
  46   34081.6    293.4      0.00496  -0.14729   0.05983  -0.32275
  47   34150.6    292.8    -11.04715  -0.07541  -0.09524   0.16930
  48   34388.2    290.8    -16.00018  -0.15928   0.02784  -0.14059
  49   34490.9    289.9     -2.79359  -0.03913   0.01773  -0.04451
  50   34704.7    288.1      2.89519  -0.02584   0.05666  -0.11255

Total run time:    13544.643 sec

           *** ORCA-CIS/TD-DFT FINISHED WITHOUT ERROR ***

-----------------------
CIS/TD-DFT TOTAL ENERGY
-----------------------

    E(SCF)  =  -5801.626341828 Eh
    DE(CIS) =      0.062734799 Eh (Root  1)
    ----------------------------- ---------
    E(tot)  =  -5801.563607029 Eh


-------------------------   --------------------
FINAL SINGLE POINT ENERGY     -5801.563607028990
-------------------------   --------------------


                            ***************************************
                            *     ORCA property calculations      *
                            ***************************************

                                    ---------------------
                                    Active property flags
                                    ---------------------
   (+) Dipole Moment


------------------------------------------------------------------------------
                       ORCA ELECTRIC PROPERTIES CALCULATION
------------------------------------------------------------------------------

Dipole Moment Calculation                       ... on
Quadrupole Moment Calculation                   ... off
Polarizability Calculation                      ... off
GBWName                                         ... CPDT-4Cl.gbw
Electron density file                           ... CPDT-4Cl.scfp
The origin for moment calculation is the CENTER OF MASS  = (13.751946, -7.539375 -4.065354)

-------------
DIPOLE MOMENT
-------------
                                X             Y             Z
Electronic contribution:    -42.47397     -39.96427     -16.80598
Nuclear contribution   :     42.18295      41.06498      19.65509
                        -----------------------------------------
Total Dipole Moment    :     -0.29102       1.10071       2.84911
                        -----------------------------------------
Magnitude (a.u.)       :      3.06817
Magnitude (Debye)      :      7.79868



--------------------
Rotational spectrum 
--------------------
 
Rotational constants in cm-1:     0.001911     0.000217     0.000201 
Rotational constants in MHz :    57.296606     6.512111     6.023367 

 Dipole components along the rotational axes: 
x,y,z [a.u.] :     2.136875    -0.251042     2.187334 
x,y,z [Debye]:     5.431505    -0.638098     5.559760 

 

Timings for individual modules:

Sum of individual times         ...    15597.520 sec (= 259.959 min)
GTO integral calculation        ...        7.810 sec (=   0.130 min)   0.1 %
SCF iterations                  ...     2043.632 sec (=  34.061 min)  13.1 %
CIS module                      ...    13546.078 sec (= 225.768 min)  86.8 %
                             ****ORCA TERMINATED NORMALLY****
TOTAL RUN TIME: 0 days 4 hours 19 minutes 59 seconds 735 msec
