
                                 *****************
                                 * O   R   C   A *
                                 *****************

           --- An Ab Initio, DFT and Semiempirical electronic structure package ---

                  #######################################################
                  #                        -***-                        #
                  #          Department of theory and spectroscopy      #
                  #               Directorship: Frank Neese             #
                  #        Max Planck Institute fuer Kohlenforschung    #
                  #                Kaiser Wilhelm Platz 1               #
                  #                 D-45470 Muelheim/Ruhr               #
                  #                      Germany                        #
                  #                                                     #
                  #                  All rights reserved                #
                  #                        -***-                        #
                  #######################################################


                         Program Version 4.2.0 -  RELEASE  -


 With contributions from (in alphabetic order):
   Daniel Aravena         : Magnetic Suceptibility
   Michael Atanasov       : Ab Initio Ligand Field Theory (pilot matlab implementation)
   Alexander A. Auer      : GIAO ZORA, VPT2
   Ute Becker             : Parallelization
   Giovanni Bistoni       : ED, misc. LED, open-shell LED, HFLED
   Martin Brehm           : Molecular dynamics
   Dmytro Bykov           : SCF Hessian
   Vijay G. Chilkuri      : MRCI spin determinant printing, contributions to CSF-ICE
   Dipayan Datta          : RHF DLPNO-CCSD density
   Achintya Kumar Dutta   : EOM-CC, STEOM-CC
   Dmitry Ganyushin       : Spin-Orbit,Spin-Spin,Magnetic field MRCI
   Miquel Garcia          : C-PCM Hessian, Gaussian charge scheme
   Yang Guo               : DLPNO-NEVPT2, CIM, IAO-localization
   Andreas Hansen         : Spin unrestricted coupled pair/coupled cluster methods
   Benjamin Helmich-Paris : CASSCF linear response (MC-RPA)
   Lee Huntington         : MR-EOM, pCC
   Robert Izsak           : Overlap fitted RIJCOSX, COSX-SCS-MP3, EOM
   Christian Kollmar      : KDIIS, OOCD, Brueckner-CCSD(T), CCSD density
   Simone Kossmann        : Meta GGA functionals, TD-DFT gradient, OOMP2, MP2 Hessian
   Martin Krupicka        : AUTO-CI
   Lucas Lang             : DCDCAS
   Dagmar Lenk            : GEPOL surface, SMD
   Dimitrios Liakos       : Extrapolation schemes; Compound Job, initial MDCI parallelization
   Dimitrios Manganas     : Further ROCIS development; embedding schemes
   Dimitrios Pantazis     : SARC Basis sets
   Taras Petrenko         : DFT Hessian,TD-DFT gradient, ASA, ECA, R-Raman, ABS, FL, XAS/XES, NRVS
   Peter Pinski           : DLPNO-MP2, DLPNO-MP2 Gradient
   Christoph Reimann      : Effective Core Potentials
   Marius Retegan         : Local ZFS, SOC
   Christoph Riplinger    : Optimizer, TS searches, QM/MM, DLPNO-CCSD(T), (RO)-DLPNO pert. Triples
   Tobias Risthaus        : Range-separated hybrids, TD-DFT gradient, RPA, STAB
   Michael Roemelt        : Original ROCIS implementation
   Masaaki Saitow         : Open-shell DLPNO-CCSD energy and density
   Barbara Sandhoefer     : DKH picture change effects
   Avijit Sen             : IP-ROCIS
   Kantharuban Sivalingam : CASSCF convergence, NEVPT2, FIC-MRCI
   Bernardo de Souza      : ESD, SOC TD-DFT
   Georgi Stoychev        : AutoAux, RI-MP2 NMR
   Willem Van den Heuvel  : Paramagnetic NMR
   Boris Wezisla          : Elementary symmetry handling
   Frank Wennmohs         : Technical directorship


 We gratefully acknowledge several colleagues who have allowed us to
 interface, adapt or use parts of their codes:
   Stefan Grimme, W. Hujo, H. Kruse,             : VdW corrections, initial TS optimization,
                  C. Bannwarth                     DFT functionals, gCP, sTDA/sTD-DF
   Ed Valeev, F. Pavosevic, A. Kumar             : LibInt (2-el integral package), F12 methods
   Garnet Chan, S. Sharma, J. Yang, R. Olivares  : DMRG
   Ulf Ekstrom                                   : XCFun DFT Library
   Mihaly Kallay                                 : mrcc  (arbitrary order and MRCC methods)
   Andreas Klamt, Michael Diedenhofen            : otool_cosmo (COSMO solvation model)
   Jiri Pittner, Ondrej Demel                    : Mk-CCSD
   Frank Weinhold                                : gennbo (NPA and NBO analysis)
   Christopher J. Cramer and Donald G. Truhlar   : smd solvation model
   Lars Goerigk                                  : TD-DFT with DH, B97 family of functionals
   V. Asgeirsson, H. Jonsson                     : NEB implementation
   FAccTs GmbH                                   : IRC, NEB, NEB-TS, Multilevel, MM, QM/MM, CI optimization
   S Lehtola, MJT Oliveira, MAL Marques          : LibXC Library


 Your calculation uses the libint2 library for the computation of 2-el integrals
 For citations please refer to: http://libint.valeyev.net

 Your ORCA version has been built with support for libXC version: 4.2.3
 For citations please refer to: https://tddft.org/programs/libxc/

 This ORCA versions uses:
   CBLAS   interface :  Fast vector & matrix operations
   LAPACKE interface :  Fast linear algebra routines
   SCALAPACK package :  Parallel linear algebra routines


----- Orbital basis set information -----
Your calculation utilizes the basis: def2-TZVP
   F. Weigend and R. Ahlrichs, Phys. Chem. Chem. Phys. 7, 3297 (2005).

----- AuxJ basis set information -----
Your calculation utilizes the auxiliary basis: def2/J
   F. Weigend, Phys. Chem. Chem. Phys. 8, 1057 (2006).

================================================================================
                                        WARNINGS
                       Please study these warnings very carefully!
================================================================================

INFO   : Checking CIS options ...

WARNING: CIS/ROCIS methods need fully converged wavefunctions
  ===> : Setting SCFConvForced true
         You can overwrite this default with %scf ConvForced false 


INFO   : the flag for use of LIBINT has been found!

================================================================================
                                       INPUT FILE
================================================================================
NAME = F-2F.inp
|  1> # ORCA input file
|  2> # F-2F.out: Geometry 41
|  3> ! B3LYP def2-TZVP def2/J RIJCOSX Grid4 TightSCF
|  4> 
|  5> %maxcore 6000
|  6> %tddft
|  7>   maxdim 5
|  8>   nroots 50
|  9>   end
| 10> %pal
| 11>   nprocs 6
| 12>   end
| 13> 
| 14> 
| 15> * xyz 0 1
| 16>    C        2.98213        -0.88739         1.55338
| 17>    O        3.18296         0.27144         1.23232
| 18>    C        1.71372        -1.42580         2.10346
| 19>    C        0.53195        -0.73403         2.34255
| 20>    C       -0.52424        -1.44054         2.90646
| 21>    F       -1.68666        -0.84353         3.15488
| 22>    C       -0.37858        -2.80201         3.22965
| 23>    F       -1.40731        -3.42848         3.79730
| 24>    C        0.80175        -3.49575         2.97143
| 25>    C        1.86674        -2.79576         2.38786
| 26>    C        3.22948        -3.22061         1.97386
| 27>    C        3.70059        -4.52132         2.04356
| 28>    C        5.00623        -4.91423         1.61178
| 29>    N        6.06334        -5.25106         1.26379
| 30>    C        2.92000        -5.60860         2.54653
| 31>    N        2.30881        -6.51069         2.95137
| 32>    C        3.92712        -2.02750         1.48583
| 33>    C       15.77300        14.45819        -1.65014
| 34>    O       14.84466        15.10820        -1.21555
| 35>    C       17.21599        14.80439        -1.59234
| 36>    C       17.80437        15.91368        -0.99345
| 37>    C       19.19114        16.00729        -1.03571
| 38>    F       19.82633        17.03094        -0.47002
| 39>    C       19.95104        15.01510        -1.68071
| 40>    F       21.27366        15.15231        -1.69906
| 41>    C       19.35951        13.90877        -2.28709
| 42>    C       17.96414        13.79701        -2.23507
| 43>    C       17.02842        12.77676        -2.78536
| 44>    C       17.37448        11.82390        -3.73227
| 45>    C       16.41737        11.08422        -4.48680
| 46>    N       15.67257        10.46614        -5.13121
| 47>    C       18.73078        11.57598        -4.11142
| 48>    N       19.83156        11.35195        -4.40989
| 49>    C       15.70315        13.10030        -2.29080
| 50>    C        8.08342         2.33259        -0.26811
| 51>    C        9.37715         1.90972        -0.68169
| 52>    C       10.33461         2.85127        -1.03722
| 53>    C        9.99001         4.21156        -0.95515
| 54>    C        8.70450         4.62510        -0.51439
| 55>    C        7.73435         3.68892        -0.18801
| 56>    C        8.61836         6.14479        -0.45503
| 57>    C        7.38690         6.72040        -1.18284
| 58>    C        7.28920         6.34515        -2.66017
| 59>    C        8.68405         6.63158         1.03062
| 60>    C        7.47689         6.34052         1.91680
| 61>    C        9.95119         6.54156        -1.07953
| 62>    C       10.77266         5.40435        -1.27778
| 63>    C       12.11514         5.53362        -1.67450
| 64>    C       12.62097         6.81198        -1.88827
| 65>    C       11.77390         7.94513        -1.71511
| 66>    C       10.43581         7.81919        -1.31611
| 67>    C        5.23384        -1.96170         1.03961
| 68>    C       14.50131        12.43970        -2.13566
| 69>    C       12.59499         9.11486        -1.90212
| 70>    C       13.92712         8.75909        -2.13575
| 71>    C       14.06288         7.24323        -2.20513
| 72>    S       12.34857        10.80775        -1.86907
| 73>    C       14.07528        11.09154        -2.18090
| 74>    C       14.76344         9.86910        -2.29344
| 75>    C        9.48542         0.37678        -0.68772
| 76>    C        8.10546        -0.00433        -0.15709
| 77>    C        7.32619         1.14348         0.03250
| 78>    C        7.40411        -1.15950         0.19102
| 79>    C        6.07619        -0.90552         0.61374
| 80>    S        5.72832         0.83448         0.57312
| 81>    C       14.49354         6.86781        -3.65264
| 82>    C       15.00724         6.67625        -1.11390
| 83>    C       10.64436        -0.12395         0.20630
| 84>    C        9.68498        -0.10207        -2.15528
| 85>    C       10.59746         0.34941         1.65656
| 86>    C        9.63167        -1.61093        -2.38322
| 87>    C       14.64561         5.37859        -3.95301
| 88>    C       16.47318         7.09061        -1.21505
| 89>    H        0.43228         0.32411         2.09514
| 90>    H        0.84601        -4.54855         3.24156
| 91>    H       17.20508        16.68313        -0.50413
| 92>    H       20.00811        13.17873        -2.76705
| 93>    H       11.32700         2.54608        -1.37815
| 94>    H        6.72974         3.98447         0.11866
| 95>    H        7.40327         7.81848        -1.06934
| 96>    H        6.47955         6.38205        -0.65743
| 97>    H        8.18595         6.66222        -3.21503
| 98>    H        6.41984         6.82708        -3.13235
| 99>    H        7.18282         5.25699        -2.79034
|100>    H        8.86644         7.71962         1.01108
|101>    H        9.58555         6.18420         1.47969
|102>    H        6.56212         6.82348         1.54261
|103>    H        7.66142         6.73001         2.93011
|104>    H        7.27855         5.26233         2.01094
|105>    H       12.74967         4.65134        -1.77258
|106>    H        9.81858         8.70483        -1.14977
|107>    H        5.77025        -2.90938         1.00836
|108>    H       13.72960        13.13777        -1.78345
|109>    H       15.83695         9.81531        -2.44533
|110>    H        7.79805        -2.17654         0.17183
|111>    H       15.44010         7.38869        -3.86949
|112>    H       13.75857         7.31243        -4.34215
|113>    H       14.93503         5.57686        -1.14238
|114>    H       14.60295         6.97894        -0.13378
|115>    H       11.59016         0.19737        -0.26392
|116>    H       10.65042        -1.22529         0.17850
|117>    H       10.65706         0.28984        -2.49937
|118>    H        8.92082         0.38775        -2.77993
|119>    H       10.68332         1.44477         1.72909
|120>    H       11.42033        -0.09312         2.23784
|121>    H        9.65447         0.05281         2.14260
|122>    H       10.34543        -2.15850        -1.75094
|123>    H        9.87917        -1.84734        -3.42963
|124>    H        8.62755        -2.01527        -2.18366
|125>    H       15.34512         4.88080        -3.26358
|126>    H       15.04154         5.23966        -4.97103
|127>    H       13.68324         4.84838        -3.89945
|128>    H       16.91003         6.83902        -2.19329
|129>    H       17.07062         6.57245        -0.45030
|130>    H       16.60590         8.17049        -1.05313
|131> *
|132> 
|133>                          ****END OF INPUT****
================================================================================

                       ****************************
                       * Single Point Calculation *
                       ****************************

---------------------------------
CARTESIAN COORDINATES (ANGSTROEM)
---------------------------------
  C      2.982130   -0.887390    1.553380
  O      3.182960    0.271440    1.232320
  C      1.713720   -1.425800    2.103460
  C      0.531950   -0.734030    2.342550
  C     -0.524240   -1.440540    2.906460
  F     -1.686660   -0.843530    3.154880
  C     -0.378580   -2.802010    3.229650
  F     -1.407310   -3.428480    3.797300
  C      0.801750   -3.495750    2.971430
  C      1.866740   -2.795760    2.387860
  C      3.229480   -3.220610    1.973860
  C      3.700590   -4.521320    2.043560
  C      5.006230   -4.914230    1.611780
  N      6.063340   -5.251060    1.263790
  C      2.920000   -5.608600    2.546530
  N      2.308810   -6.510690    2.951370
  C      3.927120   -2.027500    1.485830
  C     15.773000   14.458190   -1.650140
  O     14.844660   15.108200   -1.215550
  C     17.215990   14.804390   -1.592340
  C     17.804370   15.913680   -0.993450
  C     19.191140   16.007290   -1.035710
  F     19.826330   17.030940   -0.470020
  C     19.951040   15.015100   -1.680710
  F     21.273660   15.152310   -1.699060
  C     19.359510   13.908770   -2.287090
  C     17.964140   13.797010   -2.235070
  C     17.028420   12.776760   -2.785360
  C     17.374480   11.823900   -3.732270
  C     16.417370   11.084220   -4.486800
  N     15.672570   10.466140   -5.131210
  C     18.730780   11.575980   -4.111420
  N     19.831560   11.351950   -4.409890
  C     15.703150   13.100300   -2.290800
  C      8.083420    2.332590   -0.268110
  C      9.377150    1.909720   -0.681690
  C     10.334610    2.851270   -1.037220
  C      9.990010    4.211560   -0.955150
  C      8.704500    4.625100   -0.514390
  C      7.734350    3.688920   -0.188010
  C      8.618360    6.144790   -0.455030
  C      7.386900    6.720400   -1.182840
  C      7.289200    6.345150   -2.660170
  C      8.684050    6.631580    1.030620
  C      7.476890    6.340520    1.916800
  C      9.951190    6.541560   -1.079530
  C     10.772660    5.404350   -1.277780
  C     12.115140    5.533620   -1.674500
  C     12.620970    6.811980   -1.888270
  C     11.773900    7.945130   -1.715110
  C     10.435810    7.819190   -1.316110
  C      5.233840   -1.961700    1.039610
  C     14.501310   12.439700   -2.135660
  C     12.594990    9.114860   -1.902120
  C     13.927120    8.759090   -2.135750
  C     14.062880    7.243230   -2.205130
  S     12.348570   10.807750   -1.869070
  C     14.075280   11.091540   -2.180900
  C     14.763440    9.869100   -2.293440
  C      9.485420    0.376780   -0.687720
  C      8.105460   -0.004330   -0.157090
  C      7.326190    1.143480    0.032500
  C      7.404110   -1.159500    0.191020
  C      6.076190   -0.905520    0.613740
  S      5.728320    0.834480    0.573120
  C     14.493540    6.867810   -3.652640
  C     15.007240    6.676250   -1.113900
  C     10.644360   -0.123950    0.206300
  C      9.684980   -0.102070   -2.155280
  C     10.597460    0.349410    1.656560
  C      9.631670   -1.610930   -2.383220
  C     14.645610    5.378590   -3.953010
  C     16.473180    7.090610   -1.215050
  H      0.432280    0.324110    2.095140
  H      0.846010   -4.548550    3.241560
  H     17.205080   16.683130   -0.504130
  H     20.008110   13.178730   -2.767050
  H     11.327000    2.546080   -1.378150
  H      6.729740    3.984470    0.118660
  H      7.403270    7.818480   -1.069340
  H      6.479550    6.382050   -0.657430
  H      8.185950    6.662220   -3.215030
  H      6.419840    6.827080   -3.132350
  H      7.182820    5.256990   -2.790340
  H      8.866440    7.719620    1.011080
  H      9.585550    6.184200    1.479690
  H      6.562120    6.823480    1.542610
  H      7.661420    6.730010    2.930110
  H      7.278550    5.262330    2.010940
  H     12.749670    4.651340   -1.772580
  H      9.818580    8.704830   -1.149770
  H      5.770250   -2.909380    1.008360
  H     13.729600   13.137770   -1.783450
  H     15.836950    9.815310   -2.445330
  H      7.798050   -2.176540    0.171830
  H     15.440100    7.388690   -3.869490
  H     13.758570    7.312430   -4.342150
  H     14.935030    5.576860   -1.142380
  H     14.602950    6.978940   -0.133780
  H     11.590160    0.197370   -0.263920
  H     10.650420   -1.225290    0.178500
  H     10.657060    0.289840   -2.499370
  H      8.920820    0.387750   -2.779930
  H     10.683320    1.444770    1.729090
  H     11.420330   -0.093120    2.237840
  H      9.654470    0.052810    2.142600
  H     10.345430   -2.158500   -1.750940
  H      9.879170   -1.847340   -3.429630
  H      8.627550   -2.015270   -2.183660
  H     15.345120    4.880800   -3.263580
  H     15.041540    5.239660   -4.971030
  H     13.683240    4.848380   -3.899450
  H     16.910030    6.839020   -2.193290
  H     17.070620    6.572450   -0.450300
  H     16.605900    8.170490   -1.053130

----------------------------
CARTESIAN COORDINATES (A.U.)
----------------------------
  NO LB      ZA    FRAG     MASS         X           Y           Z
   0 C     6.0000    0    12.011    5.635409   -1.676924    2.935463
   1 O     8.0000    0    15.999    6.014923    0.512947    2.328747
   2 C     6.0000    0    12.011    3.238461   -2.694372    3.974963
   3 C     6.0000    0    12.011    1.005240   -1.387116    4.426778
   4 C     6.0000    0    12.011   -0.990670   -2.722226    5.492413
   5 F     9.0000    0    18.998   -3.187325   -1.594041    5.961859
   6 C     6.0000    0    12.011   -0.715413   -5.295032    6.103154
   7 F     9.0000    0    18.998   -2.659430   -6.478888    7.175857
   8 C     6.0000    0    12.011    1.515088   -6.606010    5.615189
   9 C     6.0000    0    12.011    3.527627   -5.283221    4.512401
  10 C     6.0000    0    12.011    6.102833   -6.086071    3.730055
  11 C     6.0000    0    12.011    6.993102   -8.544057    3.861769
  12 C     6.0000    0    12.011    9.460404   -9.286549    3.045823
  13 N     7.0000    0    14.007   11.458052   -9.923065    2.388217
  14 C     6.0000    0    12.011    5.518000  -10.598718    4.812244
  15 N     7.0000    0    14.007    4.363019  -12.303421    5.577281
  16 C     6.0000    0    12.011    7.421181   -3.831420    2.807812
  17 C     6.0000    0    12.011   29.806650   27.322019   -3.118313
  18 O     8.0000    0    15.999   28.052342   28.550360   -2.297057
  19 C     6.0000    0    12.011   32.533506   27.976243   -3.009087
  20 C     6.0000    0    12.011   33.645383   30.072497   -1.877348
  21 C     6.0000    0    12.011   36.265999   30.249394   -1.957208
  22 F     9.0000    0    18.998   37.466334   32.183812   -0.888209
  23 C     6.0000    0    12.011   37.702002   28.374427   -3.176082
  24 F     9.0000    0    18.998   40.201391   28.633716   -3.210758
  25 C     6.0000    0    12.011   36.584172   26.283766   -4.321974
  26 C     6.0000    0    12.011   33.947305   26.072570   -4.223670
  27 C     6.0000    0    12.011   32.179050   24.144577   -5.263568
  28 C     6.0000    0    12.011   32.833009   22.343933   -7.052968
  29 C     6.0000    0    12.011   31.024333   20.946140   -8.478823
  30 N     7.0000    0    14.007   29.616865   19.778138   -9.696582
  31 C     6.0000    0    12.011   35.396044   21.875432   -7.769458
  32 N     7.0000    0    14.007   37.476217   21.452077   -8.333484
  33 C     6.0000    0    12.011   29.674653   24.755979   -4.328985
  34 C     6.0000    0    12.011   15.275450    4.407956   -0.506654
  35 C     6.0000    0    12.011   17.720245    3.608848   -1.288207
  36 C     6.0000    0    12.011   19.529583    5.388119   -1.960062
  37 C     6.0000    0    12.011   18.878383    7.958695   -1.804972
  38 C     6.0000    0    12.011   16.449121    8.740172   -0.972056
  39 C     6.0000    0    12.011   14.615803    6.971049   -0.355287
  40 C     6.0000    0    12.011   16.286340   11.611970   -0.859882
  41 C     6.0000    0    12.011   13.959218   12.699716   -2.235244
  42 C     6.0000    0    12.011   13.774592   11.990596   -5.026993
  43 C     6.0000    0    12.011   16.410476   12.531870    1.947590
  44 C     6.0000    0    12.011   14.129274   11.981846    3.622227
  45 C     6.0000    0    12.011   18.805024   12.361757   -2.040016
  46 C     6.0000    0    12.011   20.357377   10.212741   -2.414654
  47 C     6.0000    0    12.011   22.894297   10.457026   -3.164346
  48 C     6.0000    0    12.011   23.850177   12.872777   -3.568313
  49 C     6.0000    0    12.011   22.249447   15.014120   -3.241088
  50 C     6.0000    0    12.011   19.720823   14.776128   -2.487087
  51 C     6.0000    0    12.011    9.890524   -3.707076    1.964578
  52 C     6.0000    0    12.011   27.403504   23.507626   -4.035813
  53 C     6.0000    0    12.011   23.801082   17.224589   -3.594486
  54 C     6.0000    0    12.011   26.318443   16.552281   -4.035983
  55 C     6.0000    0    12.011   26.574992   13.687721   -4.167092
  56 S    16.0000    0    32.060   23.335415   20.423688   -3.532030
  57 C     6.0000    0    12.011   26.598424   20.959973   -4.121304
  58 C     6.0000    0    12.011   27.898858   18.649896   -4.333974
  59 C     6.0000    0    12.011   17.924846    0.712011   -1.299602
  60 C     6.0000    0    12.011   15.317100   -0.008183   -0.296857
  61 C     6.0000    0    12.011   13.844493    2.160864    0.061416
  62 C     6.0000    0    12.011   13.991740   -2.191137    0.360975
  63 C     6.0000    0    12.011   11.482335   -1.711185    1.159801
  64 S    16.0000    0    32.060   10.824956    1.576939    1.083040
  65 C     6.0000    0    12.011   27.388821   12.978280   -6.902489
  66 C     6.0000    0    12.011   28.359574   12.616284   -2.104966
  67 C     6.0000    0    12.011   20.114925   -0.234232    0.389851
  68 C     6.0000    0    12.011   18.301960   -0.192884   -4.072889
  69 C     6.0000    0    12.011   20.026297    0.660289    3.130445
  70 C     6.0000    0    12.011   18.201219   -3.044217   -4.503633
  71 C     6.0000    0    12.011   27.676192   10.164062   -7.470106
  72 C     6.0000    0    12.011   31.129799   13.399311   -2.296112
  73 H     1.0000    0     1.008    0.816891    0.612479    3.959241
  74 H     1.0000    0     1.008    1.598727   -8.595514    6.125661
  75 H     1.0000    0     1.008   32.512889   31.526547   -0.952668
  76 H     1.0000    0     1.008   37.809848   24.904190   -5.228967
  77 H     1.0000    0     1.008   21.404928    4.811394   -2.604326
  78 H     1.0000    0     1.008   12.717366    7.529557    0.224235
  79 H     1.0000    0     1.008   13.990153   14.774786   -2.020760
  80 H     1.0000    0     1.008   12.244575   12.060327   -1.242363
  81 H     1.0000    0     1.008   15.469204   12.589771   -6.075526
  82 H     1.0000    0     1.008   12.131739   12.901311   -5.919284
  83 H     1.0000    0     1.008   13.573563    9.934271   -5.272978
  84 H     1.0000    0     1.008   16.755143   14.587968    1.910664
  85 H     1.0000    0     1.008   18.114064   11.686444    2.796209
  86 H     1.0000    0     1.008   12.400610   12.894508    2.915110
  87 H     1.0000    0     1.008   14.477986   12.717876    5.537105
  88 H     1.0000    0     1.008   13.754466    9.944363    3.800126
  89 H     1.0000    0     1.008   24.093385    8.789759   -3.349691
  90 H     1.0000    0     1.008   18.554427   16.449745   -2.172750
  91 H     1.0000    0     1.008   10.904192   -5.497931    1.905524
  92 H     1.0000    0     1.008   25.945184   24.826787   -3.370232
  93 H     1.0000    0     1.008   29.927498   18.548248   -4.621004
  94 H     1.0000    0     1.008   14.736179   -4.113065    0.324712
  95 H     1.0000    0     1.008   29.177560   13.962601   -7.312276
  96 H     1.0000    0     1.008   25.999929   13.818490   -8.205474
  97 H     1.0000    0     1.008   28.223117   10.538738   -2.158785
  98 H     1.0000    0     1.008   27.595576   13.188285   -0.252808
  99 H     1.0000    0     1.008   21.902228    0.372975   -0.498737
 100 H     1.0000    0     1.008   20.126377   -2.315463    0.337316
 101 H     1.0000    0     1.008   20.138925    0.547718   -4.723125
 102 H     1.0000    0     1.008   16.857907    0.732741   -5.253306
 103 H     1.0000    0     1.008   20.188549    2.730220    3.267507
 104 H     1.0000    0     1.008   21.581296   -0.175971    4.228905
 105 H     1.0000    0     1.008   18.244304    0.099796    4.048927
 106 H     1.0000    0     1.008   19.550029   -4.078974   -3.308797
 107 H     1.0000    0     1.008   18.668926   -3.490967   -6.481061
 108 H     1.0000    0     1.008   16.303707   -3.808308   -4.126519
 109 H     1.0000    0     1.008   28.998074    9.223375   -6.167272
 110 H     1.0000    0     1.008   28.424391    9.901522   -9.393885
 111 H     1.0000    0     1.008   25.857576    9.162110   -7.368893
 112 H     1.0000    0     1.008   31.955326   12.923875   -4.144717
 113 H     1.0000    0     1.008   32.258797   12.420131   -0.850944
 114 H     1.0000    0     1.008   31.380603   15.439988   -1.990127

--------------------------------
INTERNAL COORDINATES (ANGSTROEM)
--------------------------------
 C      0   0   0     0.000000000000     0.00000000     0.00000000
 O      1   0   0     1.219138704742     0.00000000     0.00000000
 C      1   2   0     1.483690420067   125.69007505     0.00000000
 C      3   1   2     1.390068377419   127.58770219     0.64314707
 C      4   3   1     1.390211560986   117.56460689   182.01193144
 F      5   4   3     1.330170550305   120.76935296   180.40371729
 C      5   4   3     1.406865015771   120.41958326     0.65911276
 F      7   5   4     1.331531673037   118.24553196   178.42224274
 C      7   5   4     1.393245012516   121.80305590   358.42194335
 C      9   7   5     1.401693135140   118.17579110     0.77176836
 C     10   9   7     1.486254968066   132.05663794   180.77564183
 C     11  10   9     1.385153141786   124.48973475     3.55670204
 C     12  11  10     1.430212587730   123.59177736   178.55062394
 N     13  12  11     1.162769556318   179.10352288   185.90279381
 C     12  11  10     1.429852218728   123.09859032   359.09604624
 N     15  12  11     1.162417743240   178.52598081   182.36306087
 C     11  10   9     1.465737467148   107.24586168   182.95351517
 C      2   1   3    19.185451738640   148.27060804   155.55455376
 O     18   2   1     1.213753114847    80.81012189   215.12968064
 C     18   2   1     1.485064113128   143.53030118   359.34009829
 C     20  18   2     1.391180994910   127.84974462   228.81697230
 C     21  20  18     1.390568147413   117.54047023   178.23762931
 F     22  21  20     1.330913533893   120.98504552   180.84402591
 C     22  21  20     1.406383306962   120.35073745     0.81925835
 F     24  22  21     1.329844716875   118.09431309   179.72327754
 C     24  22  21     1.393402495405   122.02898148   359.53865562
 C     26  24  22     1.400804702626   118.03818519   359.65951335
 C     27  26  24     1.489731876883   131.80504969   178.92965874
 C     28  27  26     1.387205194375   124.46302339   345.96964040
 C     29  28  27     1.425658295455   123.37886619   196.19324296
 N     30  29  28     1.162761443504   177.61424469   167.51606755
 C     29  28  27     1.429954103774   122.45912751    11.05164223
 N     32  29  28     1.162321121808   178.78852021   114.35718177
 C     28  27  26     1.451071431081   107.16127845   173.70908584
 C      2   1   3     5.523960329238   124.91357456   172.70350052
 C     35   2   1     1.422534627417   140.79179146    15.43903859
 C     36  35   2     1.389117574218   119.98485629   176.72258710
 C     37  36  35     1.405657685569   118.16498339     0.92454010
 C     38  37  36     1.420500147589   121.44623831     0.38987761
 C     39  38  37     1.387136589994   120.62755596   358.08509586
 C     39  38  37     1.523286383219   110.71389886   177.23443544
 C     41  39  38     1.541923474041   113.52781813   129.35119268
 C     42  41  39     1.527370872251   114.57734473   302.27309736
 C     41  39  38     1.564747776065   110.18107085   255.13999365
 C     44  41  39     1.525537997429   117.31987368   289.71345652
 C     41  39  38     1.524422018930   101.20124350     6.69665264
 C     46  41  39     1.416814245941   110.81441781   352.00802972
 C     47  46  41     1.405827173482   121.28901141   188.54919685
 C     48  47  46     1.391318041068   118.36099957   359.13360598
 C     49  48  47     1.425321329736   119.71836111   359.39401295
 C     46  41  39     1.386782267589   127.96739107   178.88898848
 C     17  11  10     1.382374437987   126.59386696   177.93073226
 C     34  28  27     1.380173961934   136.62600445   199.44582201
 C     50  49  48     1.441329178606   106.91078652   175.64582257
 C     54  50  49     1.398472597765   110.96916623   357.82351494
 C     55  54  50     1.523507762238   110.21919860     3.60280873
 S     54  50  49     1.711049873908   135.92262049   179.72675214
 C     53  34  28     1.414596622398   135.62798150    13.01295120
 C     55  54  50     1.398720657816   112.73682361   181.32172574
 C     36  35   2     1.536770574094   111.20701444   357.87726773
 C     60  36  35     1.526794888189   100.59998974   357.32780355
 C     61  60  36     1.400240656852   110.20900969     3.22318002
 C     61  60  36     1.395525035067   138.37896690   183.26880742
 C     52  17  11     1.416486841379   134.00092877   184.21243404
 S     62  61  60     1.714916768039   114.42643698   177.82802641
 C     56  55  54     1.556179106690   107.88176853   114.77660424
 C     56  55  54     1.550504770357   112.70971490   240.80825096
 C     60  36  35     1.546979061558   111.92476491   236.72877233
 C     60  36  35     1.556551916802   108.63875334   114.51529589
 C     68  60  36     1.526277617997   115.19640127    55.60154490
 C     69  60  36     1.526910966396   116.12105190   187.68637487
 C     66  56  55     1.526801765194   116.47861447   181.84391710
 C     67  56  55     1.526730367714   116.03635983   295.04814139
 H      4   3   1     1.091240613522   121.41346437     2.19524981
 H      9   7   5     1.087803752751   118.05728359   180.31993519
 H     21  20  18     1.091162622619   121.53659488   358.45009161
 H     26  24  22     1.088118542807   118.13833936   180.08405245
 H     37  36  35     1.092800124954   121.09651537   181.33121301
 H     40  39  38     1.091163389919   121.81910608   182.20186086
 H     42  41  39     1.104051589963   108.11474184   179.01102327
 H     42  41  39     1.101735182837   108.54177767    64.94199894
 H     43  42  41     1.101164641187   111.37939764   302.63542810
 H     43  42  41     1.100453218860   110.97491726   182.87913123
 H     43  42  41     1.101069079985   111.30493600    62.81476982
 H     44  41  39     1.103394292762   107.27118203   166.43789360
 H     44  41  39     1.102050352434   107.15382267    53.20908123
 H     45  44  41     1.100033031595   112.12748943   298.61544221
 H     45  44  41     1.101158906380   109.53995638   179.62809867
 H     45  44  41     1.100315759816   112.28989272    60.46392324
 H     48  47  46     1.091176431976   120.41919558   176.79064103
 H     51  46  41     1.092245429425   121.57160803   353.63119026
 H     52  17  11     1.089407927730   115.67666491     3.16807727
 H     53  34  28     1.098585423670   110.09591715   184.72746596
 H     59  55  54     1.085535654090   124.59312842   177.58106885
 H     63  61  60     1.090837907895   125.86536061     2.45935345
 H     66  56  55     1.101959949590   107.86207395    58.07619701
 H     66  56  55     1.101495295224   107.47140962   305.31481336
 H     67  56  55     1.102126928534   107.85893488   171.98794206
 H     67  56  55     1.102590973389   107.57182447    58.24323549
 H     68  60  36     1.104033980818   107.54447113   292.66515574
 H     68  60  36     1.101707474423   108.24690487   178.55733307
 H     69  60  36     1.103145911745   107.32346435    64.72348618
 H     69  60  36     1.101840170125   107.98872686   310.79105709
 H     70  68  60     1.101111288699   111.63628514   297.04786985
 H     70  68  60     1.100379151111   110.74680333   176.82437359
 H     70  68  60     1.101560975026   111.22621120    57.49077808
 H     71  69  60     1.099574572687   112.55640513   304.91679267
 H     71  69  60     1.100963135713   110.25676201   185.42779857
 H     71  69  60     1.100714315161   111.57910641    66.20949461
 H     72  66  56     1.101100744301   112.39881933   304.38998824
 H     72  66  56     1.101102552081   109.92373451   185.24995811
 H     72  66  56     1.100066968234   111.92572146    66.01015948
 H     73  67  56     1.100494865140   112.20970404   304.08199270
 H     73  67  56     1.100121312265   110.33793284   184.68964668
 H     73  67  56     1.099987954116   111.87243695    65.52711405

---------------------------
INTERNAL COORDINATES (A.U.)
---------------------------
 C      0   0   0     0.000000000000     0.00000000     0.00000000
 O      1   0   0     2.303838271226     0.00000000     0.00000000
 C      1   2   0     2.803768561450   125.69007505     0.00000000
 C      3   1   2     2.626848540746   127.58770219     0.64314707
 C      4   3   1     2.627119118475   117.56460689   182.01193144
 F      5   4   3     2.513658051485   120.76935296   180.40371729
 C      5   4   3     2.658589587202   120.41958326     0.65911276
 F      7   5   4     2.516230200681   118.24553196   178.42224274
 C      7   5   4     2.632851511106   121.80305590   358.42194335
 C      9   7   5     2.648816149213   118.17579110     0.77176836
 C     10   9   7     2.808614854824   132.05663794   180.77564183
 C     11  10   9     2.617560091516   124.48973475     3.55670204
 C     12  11  10     2.702710104096   123.59177736   178.55062394
 N     13  12  11     2.197316018302   179.10352288   185.90279381
 C     12  11  10     2.702029105375   123.09859032   359.09604624
 N     15  12  11     2.196651187935   178.52598081   182.36306087
 C     11  10   9     2.769842397136   107.24586168   182.95351517
 C      2   1   3    36.255249541594   148.27060804   155.55455376
 O     18   2   1     2.293660981254    80.81012189   215.12968064
 C     18   2   1     2.806364465126   143.53030118   359.34009829
 C     20  18   2     2.628951083097   127.84974462   228.81697230
 C     21  20  18     2.627792969165   117.54047023   178.23762931
 F     22  21  20     2.515062086987   120.98504552   180.84402591
 C     22  21  20     2.657679289476   120.35073745     0.81925835
 F     24  22  21     2.513042315536   118.09431309   179.72327754
 C     24  22  21     2.633149110637   122.02898148   359.53865562
 C     26  24  22     2.647137255073   118.03818519   359.65951335
 C     27  26  24     2.815185260281   131.80504969   178.92965874
 C     28  27  26     2.621437908921   124.46302339   345.96964040
 C     29  28  27     2.694103738963   123.37886619   196.19324296
 N     30  29  28     2.197300687306   177.61424469   167.51606755
 C     29  28  27     2.702221640210   122.45912751    11.05164223
 N     32  29  28     2.196468599888   178.78852021   114.35718177
 C     28  27  26     2.742127605501   107.16127845   173.70908584
 C      2   1   3    10.438772196906   124.91357456   172.70350052
 C     35   2   1     2.688200861838   140.79179146    15.43903859
 C     36  35   2     2.625051783088   119.98485629   176.72258710
 C     37  36  35     2.656308063768   118.16498339     0.92454010
 C     38  37  36     2.684356252138   121.44623831     0.38987761
 C     39  38  37     2.621308265430   120.62755596   358.08509586
 C     39  38  37     2.878594087815   110.71389886   177.23443544
 C     41  39  38     2.913813085403   113.52781813   129.35119268
 C     42  41  39     2.886312653482   114.57734473   302.27309736
 C     41  39  38     2.956944765425   110.18107085   255.13999365
 C     44  41  39     2.882849022032   117.31987368   289.71345652
 C     41  39  38     2.880740128298   101.20124350     6.69665264
 C     46  41  39     2.677390907466   110.81441781   352.00802972
 C     47  46  41     2.656628349505   121.28901141   188.54919685
 C     48  47  46     2.629210062801   118.36099957   359.13360598
 C     49  48  47     2.693466966037   119.71836111   359.39401295
 C     46  41  39     2.620638693122   127.96739107   178.88898848
 C     17  11  10     2.612309102329   126.59386696   177.93073226
 C     34  28  27     2.608150805224   136.62600445   199.44582201
 C     50  49  48     2.723717416394   106.91078652   175.64582257
 C     54  50  49     2.642730215570   110.96916623   357.82351494
 C     55  54  50     2.879012433533   110.21919860     3.60280873
 S     54  50  49     3.233415663166   135.92262049   179.72675214
 C     53  34  28     2.673200206302   135.62798150    13.01295120
 C     55  54  50     2.643198981130   112.73682361   181.32172574
 C     36  35   2     2.904075515706   111.20701444   357.87726773
 C     60  36  35     2.885224201348   100.59998974   357.32780355
 C     61  60  36     2.646071363031   110.20900969     3.22318002
 C     61  60  36     2.637160129308   138.37896690   183.26880742
 C     52  17  11     2.676772202510   134.00092877   184.21243404
 S     62  61  60     3.240723034062   114.42643698   177.82802641
 C     56  55  54     2.940752326975   107.88176853   114.77660424
 C     56  55  54     2.930029385313   112.70971490   240.80825096
 C     60  36  35     2.923366761256   111.92476491   236.72877233
 C     60  36  35     2.941456835986   108.63875334   114.51529589
 C     68  60  36     2.884246702349   115.19640127    55.60154490
 C     69  60  36     2.885443557369   116.12105190   187.68637487
 C     66  56  55     2.885237197005   116.47861447   181.84391710
 C     67  56  55     2.885102275320   116.03635983   295.04814139
 H      4   3   1     2.062145905769   121.41346437     2.19524981
 H      9   7   5     2.055651180152   118.05728359   180.31993519
 H     21  20  18     2.061998524321   121.53659488   358.45009161
 H     26  24  22     2.056246047146   118.13833936   180.08405245
 H     37  36  35     2.065092955278   121.09651537   181.33121301
 H     40  39  38     2.061999974308   121.81910608   182.20186086
 H     42  41  39     2.086355142751   108.11474184   179.01102327
 H     42  41  39     2.081977767667   108.54177767    64.94199894
 H     43  42  41     2.080899600201   111.37939764   302.63542810
 H     43  42  41     2.079555206838   110.97491726   182.87913123
 H     43  42  41     2.080719015701   111.30493600    62.81476982
 H     44  41  39     2.085113031052   107.27118203   166.43789360
 H     44  41  39     2.082573351892   107.15382267    53.20908123
 H     45  44  41     2.078761167982   112.12748943   298.61544221
 H     45  44  41     2.080888762986   109.53995638   179.62809867
 H     45  44  41     2.079295446890   112.28989272    60.46392324
 H     48  47  46     2.062024620224   120.41919558   176.79064103
 H     51  46  41     2.064044732641   121.57160803   353.63119026
 H     52  17  11     2.058682631532   115.67666491     3.16807727
 H     53  34  28     2.076025585454   110.09591715   184.72746596
 H     59  55  54     2.051365094837   124.59312842   177.58106885
 H     63  61  60     2.061384902421   125.86536061     2.45935345
 H     66  56  55     2.082402515274   107.86207395    58.07619701
 H     66  56  55     2.081524445776   107.47140962   305.31481336
 H     67  56  55     2.082718059749   107.85893488   171.98794206
 H     67  56  55     2.083594977440   107.57182447    58.24323549
 H     68  60  36     2.086321866288   107.54447113   292.66515574
 H     68  60  36     2.081925406354   108.24690487   178.55733307
 H     69  60  36     2.084643658953   107.32346435    64.72348618
 H     69  60  36     2.082176164889   107.98872686   310.79105709
 H     70  68  60     2.080798778610   111.63628514   297.04786985
 H     70  68  60     2.079415239077   110.74680333   176.82437359
 H     70  68  60     2.081648562614   111.22621120    57.49077808
 H     71  69  60     2.077894806202   112.55640513   304.91679267
 H     71  69  60     2.080518810042   110.25676201   185.42779857
 H     71  69  60     2.080048607341   111.57910641    66.20949461
 H     72  66  56     2.080778852586   112.39881933   304.38998824
 H     72  66  56     2.080782268795   109.92373451   185.24995811
 H     72  66  56     2.078825298936   111.92572146    66.01015948
 H     73  67  56     2.079633906902   112.20970404   304.08199270
 H     73  67  56     2.078927994271   110.33793284   184.68964668
 H     73  67  56     2.078675983891   111.87243695    65.52711405

---------------------
BASIS SET INFORMATION
---------------------
There are 6 groups of distinct atoms

 Group   1 Type C   : 11s6p2d1f contracted to 5s3p2d1f pattern {62111/411/11/1}
 Group   2 Type O   : 11s6p2d1f contracted to 5s3p2d1f pattern {62111/411/11/1}
 Group   3 Type F   : 11s6p2d1f contracted to 5s3p2d1f pattern {62111/411/11/1}
 Group   4 Type N   : 11s6p2d1f contracted to 5s3p2d1f pattern {62111/411/11/1}
 Group   5 Type S   : 14s9p3d1f contracted to 5s5p2d1f pattern {73211/51111/21/1}
 Group   6 Type H   : 5s1p contracted to 3s1p pattern {311/1}

Atom   0C    basis set group =>   1
Atom   1O    basis set group =>   2
Atom   2C    basis set group =>   1
Atom   3C    basis set group =>   1
Atom   4C    basis set group =>   1
Atom   5F    basis set group =>   3
Atom   6C    basis set group =>   1
Atom   7F    basis set group =>   3
Atom   8C    basis set group =>   1
Atom   9C    basis set group =>   1
Atom  10C    basis set group =>   1
Atom  11C    basis set group =>   1
Atom  12C    basis set group =>   1
Atom  13N    basis set group =>   4
Atom  14C    basis set group =>   1
Atom  15N    basis set group =>   4
Atom  16C    basis set group =>   1
Atom  17C    basis set group =>   1
Atom  18O    basis set group =>   2
Atom  19C    basis set group =>   1
Atom  20C    basis set group =>   1
Atom  21C    basis set group =>   1
Atom  22F    basis set group =>   3
Atom  23C    basis set group =>   1
Atom  24F    basis set group =>   3
Atom  25C    basis set group =>   1
Atom  26C    basis set group =>   1
Atom  27C    basis set group =>   1
Atom  28C    basis set group =>   1
Atom  29C    basis set group =>   1
Atom  30N    basis set group =>   4
Atom  31C    basis set group =>   1
Atom  32N    basis set group =>   4
Atom  33C    basis set group =>   1
Atom  34C    basis set group =>   1
Atom  35C    basis set group =>   1
Atom  36C    basis set group =>   1
Atom  37C    basis set group =>   1
Atom  38C    basis set group =>   1
Atom  39C    basis set group =>   1
Atom  40C    basis set group =>   1
Atom  41C    basis set group =>   1
Atom  42C    basis set group =>   1
Atom  43C    basis set group =>   1
Atom  44C    basis set group =>   1
Atom  45C    basis set group =>   1
Atom  46C    basis set group =>   1
Atom  47C    basis set group =>   1
Atom  48C    basis set group =>   1
Atom  49C    basis set group =>   1
Atom  50C    basis set group =>   1
Atom  51C    basis set group =>   1
Atom  52C    basis set group =>   1
Atom  53C    basis set group =>   1
Atom  54C    basis set group =>   1
Atom  55C    basis set group =>   1
Atom  56S    basis set group =>   5
Atom  57C    basis set group =>   1
Atom  58C    basis set group =>   1
Atom  59C    basis set group =>   1
Atom  60C    basis set group =>   1
Atom  61C    basis set group =>   1
Atom  62C    basis set group =>   1
Atom  63C    basis set group =>   1
Atom  64S    basis set group =>   5
Atom  65C    basis set group =>   1
Atom  66C    basis set group =>   1
Atom  67C    basis set group =>   1
Atom  68C    basis set group =>   1
Atom  69C    basis set group =>   1
Atom  70C    basis set group =>   1
Atom  71C    basis set group =>   1
Atom  72C    basis set group =>   1
Atom  73H    basis set group =>   6
Atom  74H    basis set group =>   6
Atom  75H    basis set group =>   6
Atom  76H    basis set group =>   6
Atom  77H    basis set group =>   6
Atom  78H    basis set group =>   6
Atom  79H    basis set group =>   6
Atom  80H    basis set group =>   6
Atom  81H    basis set group =>   6
Atom  82H    basis set group =>   6
Atom  83H    basis set group =>   6
Atom  84H    basis set group =>   6
Atom  85H    basis set group =>   6
Atom  86H    basis set group =>   6
Atom  87H    basis set group =>   6
Atom  88H    basis set group =>   6
Atom  89H    basis set group =>   6
Atom  90H    basis set group =>   6
Atom  91H    basis set group =>   6
Atom  92H    basis set group =>   6
Atom  93H    basis set group =>   6
Atom  94H    basis set group =>   6
Atom  95H    basis set group =>   6
Atom  96H    basis set group =>   6
Atom  97H    basis set group =>   6
Atom  98H    basis set group =>   6
Atom  99H    basis set group =>   6
Atom 100H    basis set group =>   6
Atom 101H    basis set group =>   6
Atom 102H    basis set group =>   6
Atom 103H    basis set group =>   6
Atom 104H    basis set group =>   6
Atom 105H    basis set group =>   6
Atom 106H    basis set group =>   6
Atom 107H    basis set group =>   6
Atom 108H    basis set group =>   6
Atom 109H    basis set group =>   6
Atom 110H    basis set group =>   6
Atom 111H    basis set group =>   6
Atom 112H    basis set group =>   6
Atom 113H    basis set group =>   6
Atom 114H    basis set group =>   6
---------------------------------
AUXILIARY/J BASIS SET INFORMATION
---------------------------------
There are 6 groups of distinct atoms

 Group   1 Type C   : 12s5p4d2f1g contracted to 6s4p3d1f1g pattern {711111/2111/211/2/1}
 Group   2 Type O   : 12s5p4d2f1g contracted to 6s4p3d1f1g pattern {711111/2111/211/2/1}
 Group   3 Type F   : 12s5p4d2f1g contracted to 6s4p3d1f1g pattern {711111/2111/211/2/1}
 Group   4 Type N   : 12s5p4d2f1g contracted to 6s4p3d1f1g pattern {711111/2111/211/2/1}
 Group   5 Type S   : 14s5p5d2f1g contracted to 8s4p3d1f1g pattern {71111111/2111/311/2/1}
 Group   6 Type H   : 5s2p1d contracted to 3s1p1d pattern {311/2/1}

Atom   0C    basis set group =>   1
Atom   1O    basis set group =>   2
Atom   2C    basis set group =>   1
Atom   3C    basis set group =>   1
Atom   4C    basis set group =>   1
Atom   5F    basis set group =>   3
Atom   6C    basis set group =>   1
Atom   7F    basis set group =>   3
Atom   8C    basis set group =>   1
Atom   9C    basis set group =>   1
Atom  10C    basis set group =>   1
Atom  11C    basis set group =>   1
Atom  12C    basis set group =>   1
Atom  13N    basis set group =>   4
Atom  14C    basis set group =>   1
Atom  15N    basis set group =>   4
Atom  16C    basis set group =>   1
Atom  17C    basis set group =>   1
Atom  18O    basis set group =>   2
Atom  19C    basis set group =>   1
Atom  20C    basis set group =>   1
Atom  21C    basis set group =>   1
Atom  22F    basis set group =>   3
Atom  23C    basis set group =>   1
Atom  24F    basis set group =>   3
Atom  25C    basis set group =>   1
Atom  26C    basis set group =>   1
Atom  27C    basis set group =>   1
Atom  28C    basis set group =>   1
Atom  29C    basis set group =>   1
Atom  30N    basis set group =>   4
Atom  31C    basis set group =>   1
Atom  32N    basis set group =>   4
Atom  33C    basis set group =>   1
Atom  34C    basis set group =>   1
Atom  35C    basis set group =>   1
Atom  36C    basis set group =>   1
Atom  37C    basis set group =>   1
Atom  38C    basis set group =>   1
Atom  39C    basis set group =>   1
Atom  40C    basis set group =>   1
Atom  41C    basis set group =>   1
Atom  42C    basis set group =>   1
Atom  43C    basis set group =>   1
Atom  44C    basis set group =>   1
Atom  45C    basis set group =>   1
Atom  46C    basis set group =>   1
Atom  47C    basis set group =>   1
Atom  48C    basis set group =>   1
Atom  49C    basis set group =>   1
Atom  50C    basis set group =>   1
Atom  51C    basis set group =>   1
Atom  52C    basis set group =>   1
Atom  53C    basis set group =>   1
Atom  54C    basis set group =>   1
Atom  55C    basis set group =>   1
Atom  56S    basis set group =>   5
Atom  57C    basis set group =>   1
Atom  58C    basis set group =>   1
Atom  59C    basis set group =>   1
Atom  60C    basis set group =>   1
Atom  61C    basis set group =>   1
Atom  62C    basis set group =>   1
Atom  63C    basis set group =>   1
Atom  64S    basis set group =>   5
Atom  65C    basis set group =>   1
Atom  66C    basis set group =>   1
Atom  67C    basis set group =>   1
Atom  68C    basis set group =>   1
Atom  69C    basis set group =>   1
Atom  70C    basis set group =>   1
Atom  71C    basis set group =>   1
Atom  72C    basis set group =>   1
Atom  73H    basis set group =>   6
Atom  74H    basis set group =>   6
Atom  75H    basis set group =>   6
Atom  76H    basis set group =>   6
Atom  77H    basis set group =>   6
Atom  78H    basis set group =>   6
Atom  79H    basis set group =>   6
Atom  80H    basis set group =>   6
Atom  81H    basis set group =>   6
Atom  82H    basis set group =>   6
Atom  83H    basis set group =>   6
Atom  84H    basis set group =>   6
Atom  85H    basis set group =>   6
Atom  86H    basis set group =>   6
Atom  87H    basis set group =>   6
Atom  88H    basis set group =>   6
Atom  89H    basis set group =>   6
Atom  90H    basis set group =>   6
Atom  91H    basis set group =>   6
Atom  92H    basis set group =>   6
Atom  93H    basis set group =>   6
Atom  94H    basis set group =>   6
Atom  95H    basis set group =>   6
Atom  96H    basis set group =>   6
Atom  97H    basis set group =>   6
Atom  98H    basis set group =>   6
Atom  99H    basis set group =>   6
Atom 100H    basis set group =>   6
Atom 101H    basis set group =>   6
Atom 102H    basis set group =>   6
Atom 103H    basis set group =>   6
Atom 104H    basis set group =>   6
Atom 105H    basis set group =>   6
Atom 106H    basis set group =>   6
Atom 107H    basis set group =>   6
Atom 108H    basis set group =>   6
Atom 109H    basis set group =>   6
Atom 110H    basis set group =>   6
Atom 111H    basis set group =>   6
Atom 112H    basis set group =>   6
Atom 113H    basis set group =>   6
Atom 114H    basis set group =>   6


           ************************************************************
           *        Program running with 6 parallel MPI-processes     *
           *              working on a common directory               *
           ************************************************************
------------------------------------------------------------------------------
                           ORCA GTO INTEGRAL CALCULATION
                           -- RI-GTO INTEGRALS CHOSEN --
------------------------------------------------------------------------------

                         BASIS SET STATISTICS AND STARTUP INFO

Gaussian basis set:
 # of primitive gaussian shells          ... 1726
 # of primitive gaussian functions       ... 3728
 # of contracted shells                  ...  975
 # of contracted basis functions         ... 2527
 Highest angular momentum                ...    3
 Maximum contraction depth               ...    7
Auxiliary gaussian basis set:
 # of primitive gaussian shells          ... 2094
 # of primitive gaussian functions       ... 5796
 # of contracted shells                  ... 1309
 # of contracted aux-basis functions     ... 4043
 Highest angular momentum                ...    4
 Maximum contraction depth               ...    7
Ratio of auxiliary to basis functions    ...  1.60
Integral package used                  ... LIBINT
 One Electron integrals                  ... done
 Ordering auxiliary basis shells         ... done
 Integral threshhold             Thresh  ...  2.500e-11
 Primitive cut-off               TCut    ...  2.500e-12
 Pre-screening matrix                    ... done
 Shell pair data                         ... 
 Ordering of the shell pairs             ... done (   0.036 sec) 158346 of 475800 pairs
 Determination of significant pairs      ... done (   0.001 sec)
 Creation of shell pair data             ... done (   0.014 sec)
 Storage of shell pair data              ... done (   0.067 sec)
 Shell pair data done in (   0.118 sec)
 Computing two index integrals           ... done
 Cholesky decomposition of the V-matrix  ... done


Timings:
 Total evaluation time                   ...   6.963 sec (  0.116 min)
 One electron matrix time                ...   2.215 sec (  0.037 min) = 31.8%
 Schwartz matrix evaluation time         ...   3.332 sec (  0.056 min) = 47.9%
 Two index repulsion integral time       ...   0.272 sec (  0.005 min) =  3.9%
 Cholesky decomposition of V             ...   1.008 sec (  0.017 min) = 14.5%
 Three index repulsion integral time     ...   0.000 sec (  0.000 min) =  0.0%



           ************************************************************
           *        Program running with 6 parallel MPI-processes     *
           *              working on a common directory               *
           ************************************************************
-------------------------------------------------------------------------------
                                 ORCA SCF
-------------------------------------------------------------------------------

------------
SCF SETTINGS
------------
Hamiltonian:
 Density Functional     Method          .... DFT(GTOs)
 Exchange Functional    Exchange        .... B88
   X-Alpha parameter    XAlpha          ....  0.666667
   Becke's b parameter  XBeta           ....  0.004200
 Correlation Functional Correlation     .... LYP
 LDA part of GGA corr.  LDAOpt          .... VWN-5
 Gradients option       PostSCFGGA      .... off
 Hybrid DFT is turned on
   Fraction HF Exchange ScalHFX         ....  0.200000
   Scaling of DF-GGA-X  ScalDFX         ....  0.720000
   Scaling of DF-GGA-C  ScalDFC         ....  0.810000
   Scaling of DF-LDA-C  ScalLDAC        ....  1.000000
   Perturbative correction              ....  0.000000
   Density functional embedding theory  .... OFF
   NL short-range parameter             ....  4.800000
 RI-approximation to the Coulomb term is turned on
   Number of auxiliary basis functions  .... 4043
   RIJ-COSX (HFX calculated with COS-X)).... on


General Settings:
 Integral files         IntName         .... F-2F
 Hartree-Fock type      HFTyp           .... RHF
 Total Charge           Charge          ....    0
 Multiplicity           Mult            ....    1
 Number of Electrons    NEL             ....  520
 Basis Dimension        Dim             .... 2527
 Nuclear Repulsion      ENuc            ....  10381.3133324639 Eh

Convergence Acceleration:
 DIIS                   CNVDIIS         .... on
   Start iteration      DIISMaxIt       ....    12
   Startup error        DIISStart       ....  0.200000
   # of expansion vecs  DIISMaxEq       ....     5
   Bias factor          DIISBfac        ....   1.050
   Max. coefficient     DIISMaxC        ....  10.000
 Newton-Raphson         CNVNR           .... off
 SOSCF                  CNVSOSCF        .... on
   Start iteration      SOSCFMaxIt      ....   150
   Startup grad/error   SOSCFStart      ....  0.003300
 Level Shifting         CNVShift        .... on
   Level shift para.    LevelShift      ....    0.2500
   Turn off err/grad.   ShiftErr        ....    0.0010
 Zerner damping         CNVZerner       .... off
 Static damping         CNVDamp         .... on
   Fraction old density DampFac         ....    0.7000
   Max. Damping (<1)    DampMax         ....    0.9800
   Min. Damping (>=0)   DampMin         ....    0.0000
   Turn off err/grad.   DampErr         ....    0.1000
 Fernandez-Rico         CNVRico         .... off

SCF Procedure:
 Maximum # iterations   MaxIter         ....   125
 SCF integral mode      SCFMode         .... Direct
   Integral package                     .... LIBINT
 Reset frequency        DirectResetFreq ....    20
 Integral Threshold     Thresh          ....  2.500e-11 Eh
 Primitive CutOff       TCut            ....  2.500e-12 Eh

Convergence Tolerance:
 Convergence Check Mode ConvCheckMode   .... Total+1el-Energy
 Convergence forced     ConvForced      .... 1
 Energy Change          TolE            ....  1.000e-08 Eh
 1-El. energy change                    ....  1.000e-05 Eh
 Orbital Gradient       TolG            ....  1.000e-05
 Orbital Rotation angle TolX            ....  1.000e-05
 DIIS Error             TolErr          ....  5.000e-07


Diagonalization of the overlap matrix:
Smallest eigenvalue                        ... 2.361e-06
Time for diagonalization                   ...    1.916 sec
Threshold for overlap eigenvalues          ... 1.000e-08
Number of eigenvalues below threshold      ... 0
Time for construction of square roots      ...    1.684 sec
Total time needed                          ...    3.606 sec

-------------------
DFT GRID GENERATION
-------------------

General Integration Accuracy     IntAcc      ...  4.670
Radial Grid Type                 RadialGrid  ... Gauss-Chebyshev
Angular Grid (max. acc.)         AngularGrid ... Lebedev-302
Angular grid pruning method      GridPruning ... 3 (G Style)
Weight generation scheme         WeightScheme... Becke
Basis function cutoff            BFCut       ...    1.0000e-11
Integration weight cutoff        WCut        ...    1.0000e-14
Grids for H and He will be reduced by one unit

# of grid points (after initial pruning)     ... 597532 (   0.0 sec)
# of grid points (after weights+screening)   ... 504253 (   6.5 sec)
nearest neighbour list constructed           ...    0.0 sec
Grid point re-assignment to atoms done       ...    0.1 sec
Grid point division into batches done        ...    1.8 sec
Reduced shell lists constructed in    3.3 sec

Total number of grid points                  ...   504253
Total number of batches                      ...     7934
Average number of points per batch           ...       63
Average number of grid points per atom       ...     4385
Average number of shells per batch           ...   127.30 (13.06%)
Average number of basis functions per batch  ...   332.86 (13.17%)
Average number of large shells per batch     ...    80.04 (62.87%)
Average number of large basis fcns per batch ...   214.55 (64.46%)
Maximum spatial batch extension              ...  16.25, 19.17, 21.64 au
Average spatial batch extension              ...   0.38,  0.37,  0.42 au

Time for grid setup =   10.614 sec

------------------------------
INITIAL GUESS: MODEL POTENTIAL
------------------------------
Loading Hartree-Fock densities                     ... done
Calculating cut-offs                               ... done
Setting up the integral package                    ... done
Initializing the effective Hamiltonian             ... done
Starting the Coulomb interaction                   ... done (   5.2 sec)
Reading the grid                                   ... done
Mapping shells                                     ... done
Starting the XC term evaluation                    ... done (   4.0 sec)
  promolecular density results
     # of electrons  =    519.978002884
     EX              =   -458.994116444
     EC              =    -18.090483647
     EX+EC           =   -477.084600091
Transforming the Hamiltonian                       ... done (   1.6 sec)
Diagonalizing the Hamiltonian                      ... done (   1.9 sec)
Back transforming the eigenvectors                 ... done (   0.8 sec)
Now organizing SCF variables                       ... done
                      ------------------
                      INITIAL GUESS DONE (  24.3 sec)
                      ------------------
--------------------
COSX GRID GENERATION
--------------------

General Integration Accuracy     IntAcc      ...  3.340
Radial Grid Type                 RadialGrid  ... Gauss-Chebyshev
Angular Grid (max. acc.)         AngularGrid ... Lebedev-50
Angular grid pruning method      GridPruning ... 3 (G Style)
Weight generation scheme         WeightScheme... Becke
Basis function cutoff            BFCut       ...    1.0000e-11
Integration weight cutoff        WCut        ...    1.0000e-14
Grids for H and He will be reduced by one unit

# of grid points (after initial pruning)     ...  55976 (   0.0 sec)
# of grid points (after weights+screening)   ...  49457 (   0.6 sec)
nearest neighbour list constructed           ...    0.0 sec
Grid point re-assignment to atoms done       ...    0.0 sec
Grid point division into batches done        ...    0.0 sec
Reduced shell lists constructed in    0.2 sec

Total number of grid points                  ...    49457
Total number of batches                      ...      834
Average number of points per batch           ...       59
Average number of grid points per atom       ...      430
Average number of shells per batch           ...   156.68 (16.07%)
Average number of basis functions per batch  ...   412.65 (16.33%)
Average number of large shells per batch     ...    99.49 (63.50%)
Average number of large basis fcns per batch ...   271.16 (65.71%)
Maximum spatial batch extension              ...  16.67, 15.23, 23.49 au
Average spatial batch extension              ...   0.75,  0.72,  1.00 au

Overlap Fitting                  UseSFitting ... on
Constructing numerical overlap ... done (      0.7 sec)
Inverting numerical overlap    ... done (      0.6 sec)
Obtaining analytic overlap     ... done (      0.0 sec)
Final contraction and storage  ... done (      3.4 sec)


General Integration Accuracy     IntAcc      ...  3.670
Radial Grid Type                 RadialGrid  ... Gauss-Chebyshev
Angular Grid (max. acc.)         AngularGrid ... Lebedev-50
Angular grid pruning method      GridPruning ... 3 (G Style)
Weight generation scheme         WeightScheme... Becke
Basis function cutoff            BFCut       ...    1.0000e-11
Integration weight cutoff        WCut        ...    1.0000e-14
Grids for H and He will be reduced by one unit

# of grid points (after initial pruning)     ...  70226 (   0.0 sec)
# of grid points (after weights+screening)   ...  61791 (   0.7 sec)
nearest neighbour list constructed           ...    0.0 sec
Grid point re-assignment to atoms done       ...    0.0 sec
Grid point division into batches done        ...    0.0 sec
Reduced shell lists constructed in    0.3 sec

Total number of grid points                  ...    61791
Total number of batches                      ...     1023
Average number of points per batch           ...       60
Average number of grid points per atom       ...      537
Average number of shells per batch           ...   155.81 (15.98%)
Average number of basis functions per batch  ...   410.67 (16.25%)
Average number of large shells per batch     ...    98.60 (63.29%)
Average number of large basis fcns per batch ...   268.38 (65.35%)
Maximum spatial batch extension              ...  18.62, 16.82, 23.44 au
Average spatial batch extension              ...   0.69,  0.69,  0.94 au

Overlap Fitting                  UseSFitting ... on
Constructing numerical overlap ... done (      0.8 sec)
Inverting numerical overlap    ... done (      0.6 sec)
Obtaining analytic overlap     ... done (      0.0 sec)
Final contraction and storage  ... done (      3.4 sec)


General Integration Accuracy     IntAcc      ...  4.010
Radial Grid Type                 RadialGrid  ... Gauss-Chebyshev
Angular Grid (max. acc.)         AngularGrid ... Lebedev-110
Angular grid pruning method      GridPruning ... 3 (G Style)
Weight generation scheme         WeightScheme... Becke
Basis function cutoff            BFCut       ...    1.0000e-11
Integration weight cutoff        WCut        ...    1.0000e-14
Grids for H and He will be reduced by one unit

# of grid points (after initial pruning)     ... 135368 (   0.0 sec)
# of grid points (after weights+screening)   ... 118052 (   1.6 sec)
nearest neighbour list constructed           ...    0.0 sec
Grid point re-assignment to atoms done       ...    0.0 sec
Grid point division into batches done        ...    0.1 sec
Reduced shell lists constructed in    0.5 sec

Total number of grid points                  ...   118052
Total number of batches                      ...     1905
Average number of points per batch           ...       61
Average number of grid points per atom       ...     1027
Average number of shells per batch           ...   144.44 (14.81%)
Average number of basis functions per batch  ...   380.05 (15.04%)
Average number of large shells per batch     ...    91.86 (63.60%)
Average number of large basis fcns per batch ...   248.71 (65.44%)
Maximum spatial batch extension              ...  18.78, 17.89, 22.17 au
Average spatial batch extension              ...   0.59,  0.58,  0.73 au

Overlap Fitting                  UseSFitting ... on
Constructing numerical overlap ... done (      1.4 sec)
Inverting numerical overlap    ... done (      0.6 sec)
Obtaining analytic overlap     ... done (      0.0 sec)
Final contraction and storage  ... done (      3.4 sec)

Time for X-Grid setup             =   19.415 sec
--------------
SCF ITERATIONS
--------------
ITER       Energy         Delta-E        Max-DP      RMS-DP      [F,P]     Damp
               ***  Starting incremental Fock matrix formation  ***
  0  -3912.3406596414   0.000000000000 0.18029515  0.00080687  0.2832768 0.7000
  1  -3913.2180403382  -0.877380696820 0.14427076  0.00065307  0.1059120 0.7000
                               ***Turning on DIIS***
  2  -3913.5297965793  -0.311756241143 0.20005577  0.00096617  0.0420169 0.0000
  3  -3914.0542725501  -0.524475970717 0.15604513  0.00058686  0.0558334 0.0000
  4  -3914.1632269655  -0.108954415440 0.04083307  0.00018162  0.0337317 0.0000
  5  -3914.1764506014  -0.013223635899 0.01729432  0.00008864  0.0103266 0.0000
                      *** Initiating the SOSCF procedure ***
                           *** Shutting down DIIS ***
                      *** Re-Reading the Fockian *** 
                      *** Removing any level shift *** 
ITER      Energy       Delta-E        Grad      Rot      Max-DP    RMS-DP
  6  -3914.17757189  -0.0011212932  0.000756  0.000756  0.005697  0.000027
               *** Restarting incremental Fock matrix formation ***
  7  -3914.17766847  -0.0000965732  0.000424  0.004755  0.011205  0.000067
  8  -3914.17766487   0.0000036003  0.000505  0.002058  0.003612  0.000023
  9  -3914.17769338  -0.0000285136  0.000190  0.002146  0.003958  0.000024
 10  -3914.17769123   0.0000021463  0.000140  0.000384  0.000598  0.000004
 11  -3914.17769724  -0.0000060067  0.000052  0.000724  0.001284  0.000008
 12  -3914.17769612   0.0000011177  0.000090  0.000283  0.000588  0.000002
 13  -3914.17769763  -0.0000015088  0.000026  0.000204  0.000533  0.000003
 14  -3914.17769745   0.0000001840  0.000044  0.000082  0.000399  0.000001
 15  -3914.17769778  -0.0000003304  0.000005  0.000082  0.000467  0.000001
 16  -3914.17769771   0.0000000699  0.000009  0.000045  0.000255  0.000001
                  ***Gradient check signals convergence***
              ***Rediagonalizing the Fockian in SOSCF/NRSCF***

               *****************************************************
               *                     SUCCESS                       *
               *           SCF CONVERGED AFTER  17 CYCLES          *
               *****************************************************

Setting up the final grid:

General Integration Accuracy     IntAcc      ...  5.010
Radial Grid Type                 RadialGrid  ... Gauss-Chebyshev
Angular Grid (max. acc.)         AngularGrid ... Lebedev-434
Angular grid pruning method      GridPruning ... 3 (G Style)
Weight generation scheme         WeightScheme... Becke
Basis function cutoff            BFCut       ...    1.0000e-11
Integration weight cutoff        WCut        ...    1.0000e-14
Grids for H and He will be reduced by one unit

# of grid points (after initial pruning)     ... 1064438 (   0.0 sec)
# of grid points (after weights+screening)   ... 895028 (  11.2 sec)
nearest neighbour list constructed           ...    0.0 sec
Grid point re-assignment to atoms done       ...    0.1 sec
Grid point division into batches done        ...    6.0 sec
Reduced shell lists constructed in    8.5 sec

Total number of grid points                  ...   895028
Total number of batches                      ...    14046
Average number of points per batch           ...       63
Average number of grid points per atom       ...     7783
Average number of shells per batch           ...   124.83 (12.80%)
Average number of basis functions per batch  ...   325.87 (12.90%)
Average number of large shells per batch     ...    78.53 (62.90%)
Average number of large basis fcns per batch ...   210.49 (64.60%)
Maximum spatial batch extension              ...  15.13, 22.34, 21.05 au
Average spatial batch extension              ...   0.31,  0.31,  0.34 au

Final grid set up in   21.0 sec
Final integration                            ... done (   9.9 sec)
Change in XC energy                          ...    -0.000048721
Integrated number of electrons               ...   519.999797392
Previous integrated no of electrons          ...   519.999385802
Old exchange energy                            =    -92.857072086 Eh
New exchange energy                            =    -92.857665182 Eh
Exchange energy change after final integration =     -0.000593096 Eh
Total energy after final integration           =  -3914.178339591 Eh
Final COS-X integration done in                =   284.047 sec

----------------
TOTAL SCF ENERGY
----------------

Total Energy       :        -3914.17833959 Eh         -106510.20749 eV

Components:
Nuclear Repulsion  :        10381.31333246 Eh          282489.89729 eV
Electronic Energy  :       -14295.49167205 Eh         -389000.10478 eV
One Electron Energy:       -26020.21362882 Eh         -708046.00920 eV
Two Electron Energy:        11724.72195677 Eh          319045.90442 eV

Virial components:
Potential Energy   :        -7812.18162428 Eh         -212580.26937 eV
Kinetic Energy     :         3898.00328469 Eh          106070.06187 eV
Virial Ratio       :            2.00414957


DFT components:
N(Alpha)           :      259.999898696163 electrons
N(Beta)            :      259.999898696163 electrons
N(Total)           :      519.999797392326 electrons
E(X)               :     -369.125861113681 Eh       
E(C)               :      -21.270149102492 Eh       
E(XC)              :     -390.396010216174 Eh       
DFET-embed. en.    :        0.000000000000 Eh       

---------------
SCF CONVERGENCE
---------------

  Last Energy change         ...   -6.4623e-08  Tolerance :   1.0000e-08
  Last MAX-Density change    ...    4.4409e-15  Tolerance :   1.0000e-07
  Last RMS-Density change    ...    1.2293e-17  Tolerance :   5.0000e-09
  Last Orbital Gradient      ...    1.5462e-06  Tolerance :   1.0000e-05
  Last Orbital Rotation      ...    9.3980e-06  Tolerance :   1.0000e-05

             **** THE GBW FILE WAS UPDATED (F-2F.gbw) ****
             **** DENSITY FILE WAS UPDATED (F-2F.scfp) ****
             **** ENERGY FILE WAS UPDATED (F-2F.en.tmp) ****
             **** THE GBW FILE WAS UPDATED (F-2F.gbw) ****
             **** DENSITY FILE WAS UPDATED (F-2F.scfp) ****
----------------
ORBITAL ENERGIES
----------------

  NO   OCC          E(Eh)            E(eV) 
   0   2.0000     -88.914779     -2419.4941 
   1   2.0000     -88.909414     -2419.3481 
   2   2.0000     -24.726921      -672.8537 
   3   2.0000     -24.726870      -672.8524 
   4   2.0000     -24.725689      -672.8202 
   5   2.0000     -24.724510      -672.7881 
   6   2.0000     -19.136164      -520.7215 
   7   2.0000     -19.133776      -520.6565 
   8   2.0000     -14.335727      -390.0950 
   9   2.0000     -14.335653      -390.0929 
  10   2.0000     -14.335008      -390.0754 
  11   2.0000     -14.331845      -389.9893 
  12   2.0000     -10.301045      -280.3057 
  13   2.0000     -10.300522      -280.2915 
  14   2.0000     -10.300447      -280.2894 
  15   2.0000     -10.299844      -280.2730 
  16   2.0000     -10.280865      -279.7566 
  17   2.0000     -10.279907      -279.7305 
  18   2.0000     -10.264558      -279.3128 
  19   2.0000     -10.262942      -279.2689 
  20   2.0000     -10.262397      -279.2540 
  21   2.0000     -10.261353      -279.2256 
  22   2.0000     -10.242629      -278.7161 
  23   2.0000     -10.240245      -278.6512 
  24   2.0000     -10.238681      -278.6087 
  25   2.0000     -10.236235      -278.5421 
  26   2.0000     -10.235600      -278.5248 
  27   2.0000     -10.234973      -278.5078 
  28   2.0000     -10.234421      -278.4928 
  29   2.0000     -10.233856      -278.4774 
  30   2.0000     -10.233569      -278.4696 
  31   2.0000     -10.232826      -278.4493 
  32   2.0000     -10.232253      -278.4338 
  33   2.0000     -10.232041      -278.4280 
  34   2.0000     -10.223174      -278.1867 
  35   2.0000     -10.222237      -278.1612 
  36   2.0000     -10.221972      -278.1540 
  37   2.0000     -10.221644      -278.1451 
  38   2.0000     -10.221534      -278.1421 
  39   2.0000     -10.221362      -278.1374 
  40   2.0000     -10.219116      -278.0763 
  41   2.0000     -10.218618      -278.0627 
  42   2.0000     -10.217865      -278.0422 
  43   2.0000     -10.217627      -278.0358 
  44   2.0000     -10.217429      -278.0304 
  45   2.0000     -10.216900      -278.0160 
  46   2.0000     -10.216616      -278.0083 
  47   2.0000     -10.214993      -277.9641 
  48   2.0000     -10.214979      -277.9637 
  49   2.0000     -10.211939      -277.8810 
  50   2.0000     -10.211634      -277.8727 
  51   2.0000     -10.211044      -277.8566 
  52   2.0000     -10.210277      -277.8358 
  53   2.0000     -10.209241      -277.8076 
  54   2.0000     -10.206608      -277.7359 
  55   2.0000     -10.206223      -277.7254 
  56   2.0000     -10.205998      -277.7193 
  57   2.0000     -10.205771      -277.7132 
  58   2.0000     -10.205497      -277.7057 
  59   2.0000     -10.205392      -277.7028 
  60   2.0000     -10.205345      -277.7015 
  61   2.0000     -10.193789      -277.3871 
  62   2.0000     -10.193777      -277.3868 
  63   2.0000     -10.193368      -277.3756 
  64   2.0000     -10.192816      -277.3606 
  65   2.0000     -10.191261      -277.3183 
  66   2.0000     -10.188799      -277.2513 
  67   2.0000     -10.179438      -276.9966 
  68   2.0000     -10.177825      -276.9527 
  69   2.0000     -10.177561      -276.9455 
  70   2.0000     -10.176893      -276.9273 
  71   2.0000     -10.175049      -276.8771 
  72   2.0000     -10.173705      -276.8406 
  73   2.0000      -7.990705      -217.4381 
  74   2.0000      -7.984180      -217.2606 
  75   2.0000      -5.953038      -161.9904 
  76   2.0000      -5.949488      -161.8938 
  77   2.0000      -5.947517      -161.8402 
  78   2.0000      -5.946718      -161.8184 
  79   2.0000      -5.942804      -161.7119 
  80   2.0000      -5.940947      -161.6614 
  81   2.0000      -1.272576       -34.6285 
  82   2.0000      -1.271756       -34.6062 
  83   2.0000      -1.258319       -34.2406 
  84   2.0000      -1.257488       -34.2180 
  85   2.0000      -1.063405       -28.9367 
  86   2.0000      -1.061816       -28.8935 
  87   2.0000      -0.940426       -25.5903 
  88   2.0000      -0.939122       -25.5548 
  89   2.0000      -0.935150       -25.4467 
  90   2.0000      -0.931086       -25.3361 
  91   2.0000      -0.922254       -25.0958 
  92   2.0000      -0.922215       -25.0948 
  93   2.0000      -0.920631       -25.0516 
  94   2.0000      -0.918845       -25.0030 
  95   2.0000      -0.912996       -24.8439 
  96   2.0000      -0.885746       -24.1024 
  97   2.0000      -0.878063       -23.8933 
  98   2.0000      -0.872965       -23.7546 
  99   2.0000      -0.868414       -23.6307 
 100   2.0000      -0.844203       -22.9719 
 101   2.0000      -0.831999       -22.6398 
 102   2.0000      -0.827518       -22.5179 
 103   2.0000      -0.825711       -22.4687 
 104   2.0000      -0.820063       -22.3151 
 105   2.0000      -0.813194       -22.1281 
 106   2.0000      -0.801798       -21.8180 
 107   2.0000      -0.797133       -21.6911 
 108   2.0000      -0.796050       -21.6616 
 109   2.0000      -0.782663       -21.2973 
 110   2.0000      -0.773441       -21.0464 
 111   2.0000      -0.772349       -21.0167 
 112   2.0000      -0.769879       -20.9495 
 113   2.0000      -0.769571       -20.9411 
 114   2.0000      -0.768930       -20.9237 
 115   2.0000      -0.766685       -20.8626 
 116   2.0000      -0.763486       -20.7755 
 117   2.0000      -0.756332       -20.5808 
 118   2.0000      -0.736219       -20.0335 
 119   2.0000      -0.725904       -19.7528 
 120   2.0000      -0.707591       -19.2545 
 121   2.0000      -0.701582       -19.0910 
 122   2.0000      -0.698117       -18.9967 
 123   2.0000      -0.696432       -18.9509 
 124   2.0000      -0.689709       -18.7679 
 125   2.0000      -0.686805       -18.6889 
 126   2.0000      -0.673229       -18.3195 
 127   2.0000      -0.656909       -17.8754 
 128   2.0000      -0.646664       -17.5966 
 129   2.0000      -0.642890       -17.4939 
 130   2.0000      -0.639731       -17.4080 
 131   2.0000      -0.636131       -17.3100 
 132   2.0000      -0.633256       -17.2318 
 133   2.0000      -0.630180       -17.1481 
 134   2.0000      -0.627629       -17.0787 
 135   2.0000      -0.622522       -16.9397 
 136   2.0000      -0.615386       -16.7455 
 137   2.0000      -0.613521       -16.6947 
 138   2.0000      -0.606337       -16.4993 
 139   2.0000      -0.599733       -16.3196 
 140   2.0000      -0.595577       -16.2065 
 141   2.0000      -0.591498       -16.0955 
 142   2.0000      -0.578860       -15.7516 
 143   2.0000      -0.577859       -15.7243 
 144   2.0000      -0.574619       -15.6362 
 145   2.0000      -0.572516       -15.5789 
 146   2.0000      -0.572280       -15.5725 
 147   2.0000      -0.571375       -15.5479 
 148   2.0000      -0.561415       -15.2769 
 149   2.0000      -0.550225       -14.9724 
 150   2.0000      -0.544986       -14.8298 
 151   2.0000      -0.541190       -14.7265 
 152   2.0000      -0.534220       -14.5369 
 153   2.0000      -0.532000       -14.4764 
 154   2.0000      -0.523283       -14.2392 
 155   2.0000      -0.521899       -14.2016 
[...]
   259a -> 267a  :     0.289611 (c= -0.53815483)

STATE 46:  E=   0.158488 au      4.313 eV    34784.1 cm**-1
   245a -> 260a  :     0.010576 (c= -0.10283803)
   246a -> 260a  :     0.226155 (c= -0.47555734)
   246a -> 261a  :     0.013081 (c=  0.11437420)
   247a -> 263a  :     0.019336 (c= -0.13905281)
   248a -> 260a  :     0.011347 (c= -0.10652192)
   248a -> 261a  :     0.015260 (c=  0.12353073)
   248a -> 262a  :     0.032047 (c= -0.17901687)
   249a -> 262a  :     0.115125 (c= -0.33930090)
   249a -> 263a  :     0.029548 (c= -0.17189647)
   250a -> 262a  :     0.019757 (c=  0.14055954)
   250a -> 263a  :     0.035755 (c= -0.18909057)
   252a -> 262a  :     0.022982 (c=  0.15159717)
   252a -> 263a  :     0.113404 (c= -0.33675470)
   255a -> 263a  :     0.039200 (c= -0.19799065)
   258a -> 264a  :     0.034404 (c=  0.18548310)
   258a -> 265a  :     0.011662 (c=  0.10799011)
   259a -> 265a  :     0.013125 (c=  0.11456482)
   259a -> 266a  :     0.011942 (c=  0.10927720)
   259a -> 267a  :     0.070725 (c= -0.26594101)
   259a -> 269a  :     0.024737 (c= -0.15728050)

STATE 47:  E=   0.158941 au      4.325 eV    34883.5 cm**-1
   245a -> 260a  :     0.011814 (c=  0.10869110)
   246a -> 260a  :     0.053576 (c= -0.23146410)
   246a -> 261a  :     0.013970 (c= -0.11819466)
   247a -> 260a  :     0.011648 (c= -0.10792698)
   247a -> 261a  :     0.042797 (c=  0.20687541)
   248a -> 260a  :     0.026654 (c= -0.16326064)
   248a -> 261a  :     0.010351 (c=  0.10173918)
   248a -> 262a  :     0.014116 (c= -0.11881097)
   249a -> 262a  :     0.255108 (c=  0.50508234)
   249a -> 263a  :     0.103127 (c=  0.32113458)
   251a -> 263a  :     0.011575 (c= -0.10758611)
   252a -> 263a  :     0.022666 (c= -0.15055333)
   253a -> 262a  :     0.017895 (c=  0.13377267)
   253a -> 263a  :     0.030529 (c=  0.17472574)
   254a -> 262a  :     0.010076 (c= -0.10037690)
   255a -> 262a  :     0.010910 (c= -0.10445007)
   255a -> 263a  :     0.029050 (c= -0.17044064)
   257a -> 263a  :     0.012080 (c= -0.10991011)
   258a -> 264a  :     0.051448 (c=  0.22682121)
   258a -> 265a  :     0.014899 (c= -0.12205998)
   259a -> 266a  :     0.014535 (c= -0.12055960)
   259a -> 267a  :     0.078508 (c=  0.28019309)
   259a -> 268a  :     0.023932 (c=  0.15470085)

STATE 48:  E=   0.159321 au      4.335 eV    34966.8 cm**-1
   246a -> 260a  :     0.131133 (c=  0.36212223)
   247a -> 260a  :     0.011064 (c= -0.10518690)
   247a -> 261a  :     0.570523 (c=  0.75532999)
   248a -> 260a  :     0.088260 (c= -0.29708596)
   248a -> 262a  :     0.018086 (c=  0.13448535)
   249a -> 262a  :     0.013677 (c= -0.11694716)
   252a -> 262a  :     0.044038 (c=  0.20985345)
   255a -> 263a  :     0.012888 (c= -0.11352725)
   256a -> 264a  :     0.013615 (c=  0.11668429)

STATE 49:  E=   0.160293 au      4.362 eV    35180.2 cm**-1
   245a -> 260a  :     0.013783 (c=  0.11740271)
   247a -> 260a  :     0.024081 (c=  0.15518126)
   247a -> 261a  :     0.038787 (c= -0.19694505)
   248a -> 261a  :     0.021061 (c= -0.14512453)
   249a -> 262a  :     0.013088 (c= -0.11440110)
   250a -> 262a  :     0.039421 (c=  0.19854659)
   251a -> 262a  :     0.018173 (c=  0.13480606)
   252a -> 262a  :     0.309125 (c=  0.55599014)
   252a -> 263a  :     0.027248 (c= -0.16506839)
   253a -> 262a  :     0.091578 (c= -0.30261791)
   254a -> 263a  :     0.018273 (c=  0.13517771)
   258a -> 265a  :     0.019478 (c= -0.13956222)
   259a -> 264a  :     0.012148 (c=  0.11021974)
   259a -> 267a  :     0.245161 (c=  0.49513748)

STATE 50:  E=   0.161714 au      4.400 eV    35492.0 cm**-1
   246a -> 260a  :     0.078968 (c=  0.28101164)
   247a -> 263a  :     0.014536 (c=  0.12056424)
   249a -> 263a  :     0.021285 (c=  0.14589508)
   250a -> 263a  :     0.058985 (c= -0.24286764)
   251a -> 263a  :     0.021269 (c= -0.14583931)
   252a -> 262a  :     0.012347 (c= -0.11111824)
   252a -> 263a  :     0.464004 (c= -0.68117805)
   253a -> 263a  :     0.077900 (c=  0.27910658)
   254a -> 262a  :     0.012320 (c= -0.11099722)
   256a -> 262a  :     0.017407 (c=  0.13193641)
   258a -> 264a  :     0.035603 (c= -0.18868717)
   258a -> 267a  :     0.016088 (c=  0.12683792)
   259a -> 269a  :     0.042656 (c=  0.20653245)


-----------------------------
TD-DFT/TDA-EXCITATION SPECTRA
-----------------------------

Center of mass = ( 19.2323,  9.6385, -1.0285)
Calculating the Dipole integrals                  ... done
Transforming integrals                            ... done
Calculating the Linear Momentum integrals         ... done
Transforming integrals                            ... done
Calculating angular momentum integrals            ... done
Transforming integrals                            ... done

-----------------------------------------------------------------------------
         ABSORPTION SPECTRUM VIA TRANSITION ELECTRIC DIPOLE MOMENTS
-----------------------------------------------------------------------------
State   Energy    Wavelength  fosc         T2        TX        TY        TZ  
        (cm-1)      (nm)                 (au**2)    (au)      (au)      (au) 
-----------------------------------------------------------------------------
   1   16192.9    617.6   2.820159006  57.33564  -4.90452  -5.52326   1.66580
   2   18154.8    550.8   0.097418945   1.76656   0.73535   1.04745  -0.35869
   3   20518.1    487.4   0.347805155   5.58052  -1.39848  -1.87062   0.35437
   4   20647.9    484.3   0.083296698   1.32809  -1.00063  -0.51967   0.23829
   5   22447.0    445.5   0.359739529   5.27601  -1.58740  -1.58264   0.50143
   6   23102.9    432.8   0.068947920   0.98249  -0.65239  -0.50842   0.54625
   7   25133.3    397.9   0.003065512   0.04015  -0.12878  -0.14814   0.04029
   8   25799.8    387.6   0.074048505   0.94488   0.67557   0.58197  -0.38703
   9   26007.8    384.5   0.009060349   0.11469  -0.05681  -0.24408  -0.22778
  10   26221.2    381.4   0.003187269   0.04002   0.08571   0.04218  -0.17576
  11   26737.7    374.0   0.093921225   1.15642  -0.34394  -1.01888  -0.00366
  12   27096.9    369.0   0.018754250   0.22785  -0.32503   0.19884   0.28752
  13   27218.1    367.4   0.036306811   0.43914  -0.65704  -0.00886   0.08582
  14   27324.3    366.0   0.123959523   1.49351   1.02536   0.60089  -0.28475
  15   27432.7    364.5   0.000091545   0.00110   0.00649  -0.03141  -0.00836
  16   27850.5    359.1   0.086029447   1.01693  -0.54200  -0.81086  -0.25627
  17   28058.3    356.4   0.024802139   0.29101   0.29883   0.44691  -0.04452
  18   28387.5    352.3   0.044254983   0.51323   0.34733  -0.53485  -0.32639
  19   28906.3    345.9   0.014517429   0.16534  -0.15637  -0.32844   0.18170
  20   29143.8    343.1   0.003129052   0.03535   0.13509  -0.06914   0.11098
  21   29233.6    342.1   0.053994661   0.60806  -0.68574  -0.36701   0.05586
  22   29300.2    341.3   0.002871933   0.03227  -0.17655  -0.02399   0.02285
  23   29591.5    337.9   0.011648544   0.12959  -0.13218   0.25106   0.22156
  24   30262.7    330.4   0.037687677   0.40998  -0.14164   0.56349   0.26907
  25   30583.6    327.0   0.000922526   0.00993   0.07029   0.07006   0.00904
  26   30947.6    323.1   0.000782097   0.00832   0.05875   0.05633  -0.04118
  27   31176.8    320.8   0.020208760   0.21339  -0.07529  -0.36855  -0.26814
  28   31308.0    319.4   0.006135148   0.06451  -0.21026   0.11069   0.08973
  29   31528.0    317.2   0.000343577   0.00359  -0.00885   0.04971  -0.03222
  30   31581.9    316.6   0.029407916   0.30655   0.27419  -0.40547  -0.25877
  31   31821.8    314.3   0.004336440   0.04486  -0.02985   0.10690   0.18040
  32   32047.9    312.0   0.010704784   0.10996   0.25788   0.17376  -0.11519
  33   32138.0    311.2   0.064539173   0.66112   0.42380  -0.60289  -0.34356
  34   32336.0    309.3   0.031962814   0.32541   0.40373   0.35884  -0.18343
  35   32448.2    308.2   0.124756676   1.26575  -0.09171   1.04110   0.41648
  36   32489.9    307.8   0.004837944   0.04902   0.05710  -0.07270   0.20119
  37   32830.3    304.6   0.191849461   1.92380   0.92521   0.80428   0.64879
  38   33046.0    302.6   0.027447376   0.27344  -0.42295   0.21356  -0.22122
  39   33193.4    301.3   0.329885103   3.27180   0.80373  -1.61138  -0.17109
  40   33336.6    300.0   0.071673961   0.70781   0.35234  -0.74035  -0.18851
  41   33602.9    297.6   0.013616074   0.13340   0.34307   0.01482   0.12443
  42   33889.2    295.1   0.066674257   0.64770   0.28051  -0.70273  -0.27421
  43   34018.2    294.0   0.003186133   0.03083  -0.09791  -0.06353  -0.13120
  44   34274.1    291.8   0.031335934   0.30099   0.29128   0.45093   0.11317
  45   34562.6    289.3   0.064412654   0.61354   0.36862  -0.42854  -0.54222
  46   34784.1    287.5   0.029034193   0.27479   0.07353   0.49947   0.14112
  47   34883.5    286.7   0.034128740   0.32209  -0.02491  -0.56329  -0.06463
  48   34966.8    286.0   0.005616376   0.05288  -0.10978  -0.03107  -0.19965
  49   35180.2    284.3   0.029685475   0.27779  -0.50111  -0.09232   0.13476
  50   35492.0    281.8   0.019008081   0.17631  -0.04840   0.40277   0.10840

-----------------------------------------------------------------------------
         ABSORPTION SPECTRUM VIA TRANSITION VELOCITY DIPOLE MOMENTS
-----------------------------------------------------------------------------
State   Energy    Wavelength   fosc        P2         PX        PY        PZ  
        (cm-1)      (nm)                 (au**2)     (au)      (au)      (au) 
-----------------------------------------------------------------------------
   1   16192.9    617.6   0.807617676   0.08938   0.20487   0.21282  -0.04595
   2   18154.8    550.8   0.032904281   0.00408  -0.05786  -0.01934   0.01900
   3   20518.1    487.4   0.171722179   0.02408   0.12279   0.08309  -0.04582
   4   20647.9    484.3   0.063098600   0.00890   0.01572   0.09304  -0.00112
   5   22447.0    445.5   0.153866409   0.02361   0.09044   0.12318  -0.01590
   6   23102.9    432.8   0.039449352   0.00623   0.06443   0.02709  -0.03666
   7   25133.3    397.9   0.003333935   0.00057   0.00507   0.01964   0.01269
   8   25799.8    387.6   0.051431514   0.00907  -0.05603  -0.07641   0.00952
   9   26007.8    384.5   0.004402375   0.00078   0.01918  -0.00818  -0.01865
  10   26221.2    381.4   0.006405116   0.00115   0.01250  -0.02936   0.01139
  11   26737.7    374.0   0.042417688   0.00775   0.05119   0.07006  -0.01492
  12   27096.9    369.0   0.005270652   0.00098  -0.00473   0.03088   0.00001
  13   27218.1    367.4   0.035104732   0.00653  -0.04146   0.06780   0.01462
  14   27324.3    366.0   0.062508912   0.01167  -0.09179  -0.04659   0.03283
  15   27432.7    364.5   0.000053067   0.00001   0.00201  -0.00242   0.00020
  16   27850.5    359.1   0.022071258   0.00420   0.04265   0.04503  -0.01882
  17   28058.3    356.4   0.003134892   0.00060  -0.02200  -0.00908   0.00588
  18   28387.5    352.3   0.009776049   0.00190   0.03667  -0.01174  -0.02035
  19   28906.3    345.9   0.021165402   0.00418  -0.00124   0.06461  -0.00245
  20   29143.8    343.1   0.022970075   0.00458   0.06269  -0.02474  -0.00574
  21   29233.6    342.1   0.028883396   0.00577   0.03866   0.06313  -0.01703
  22   29300.2    341.3   0.000773407   0.00015  -0.00188   0.01037  -0.00662
  23   29591.5    337.9   0.001725171   0.00035  -0.01078   0.01520  -0.00124
  24   30262.7    330.4   0.006969844   0.00144  -0.02010   0.03043   0.01055
  25   30583.6    327.0   0.000442490   0.00009  -0.00782   0.00556   0.00061
  26   30947.6    323.1   0.001719334   0.00036   0.00184  -0.01891   0.00159
  27   31176.8    320.8   0.002081334   0.00044   0.00701   0.01879  -0.00642
  28   31308.0    319.4   0.000782421   0.00017   0.01259  -0.00096  -0.00281
  29   31528.0    317.2   0.000027645   0.00001  -0.00108  -0.00213  -0.00051
  30   31581.9    316.6   0.000153416   0.00003   0.00488   0.00041  -0.00303
  31   31821.8    314.3   0.000903864   0.00020  -0.00894   0.00364   0.01017
  32   32047.9    312.0   0.001595589   0.00035  -0.01818  -0.00402   0.00172
  33   32138.0    311.2   0.013687897   0.00301   0.03520  -0.03315  -0.02585
  34   32336.0    309.3   0.009015935   0.00199  -0.04395   0.00405   0.00667
  35   32448.2    308.2   0.006626306   0.00147  -0.02198  -0.03039   0.00790
  36   32489.9    307.8   0.009989288   0.00222   0.03005   0.03563  -0.00674
  37   32830.3    304.6   0.061717601   0.01385  -0.07305  -0.08449   0.03705
  38   33046.0    302.6   0.011605071   0.00262   0.04520   0.00871  -0.02240
  39   33193.4    301.3   0.018235990   0.00414   0.03664  -0.05285  -0.00107
  40   33336.6    300.0   0.003204859   0.00073   0.00861  -0.02561   0.00065
  41   33602.9    297.6   0.009914582   0.00228  -0.00426  -0.04730   0.00467
  42   33889.2    295.1   0.001210807   0.00028   0.01401  -0.00908  -0.00137
  43   34018.2    294.0   0.003674639   0.00085   0.01740  -0.02309  -0.00430
  44   34274.1    291.8   0.011416823   0.00267  -0.05024   0.00296   0.01191
  45   34562.6    289.3   0.008820327   0.00208   0.03474  -0.02737  -0.01129
  46   34784.1    287.5   0.021052771   0.00500  -0.06124  -0.02885   0.02054
  47   34883.5    286.7   0.013371369   0.00319   0.05426   0.01435  -0.00615
  48   34966.8    286.0   0.004583720   0.00110  -0.02053   0.02421   0.00938
  49   35180.2    284.3   0.002159541   0.00052   0.02272  -0.00167   0.00039
  50   35492.0    281.8   0.001284415   0.00031   0.00514  -0.01315  -0.01059

-------------------------------------------------------------------
                             CD SPECTRUM
-------------------------------------------------------------------
State  Energy     Wavelength     R         MX        MY        MZ   
       (cm-1)       (nm)     (1e40*cgs)   (au)      (au)      (au)  
-------------------------------------------------------------------
   1   16192.9    617.6     66.27894  -0.34306   0.24856  -0.10151
   2   18154.8    550.8     17.64554   0.06976   0.04901   0.18179
   3   20518.1    487.4     67.46394   0.01586   0.00471   0.49127
   4   20647.9    484.3      2.18521  -0.02184   0.16430   0.28605
   5   22447.0    445.5     16.49792  -0.16649   0.10917  -0.11271
   6   23102.9    432.8    -119.40491  -0.15561  -0.02333  -0.67122
   7   25133.3    397.9      3.93873  -0.05246   0.04543   0.20675
   8   25799.8    387.6     16.91679   0.13018  -0.08272   0.01013
   9   26007.8    384.5    -45.98568   0.16014  -0.05891   0.45141
  10   26221.2    381.4     -6.27071   0.15629  -0.22238   0.09852
  11   26737.7    374.0     14.86928   0.03462  -0.04323   0.16450
  12   27096.9    369.0      9.25581  -0.09923   0.04351  -0.07399
  13   27218.1    367.4    -13.70372   0.03757  -0.08176  -0.05948
  14   27324.3    366.0     -1.75556   0.11813  -0.05099   0.33086
  15   27432.7    364.5      2.53381  -0.05800  -0.20390   0.07825
  16   27850.5    359.1    -23.85960  -0.12656   0.05771   0.28255
  17   28058.3    356.4    -15.41444  -0.09315  -0.05410  -0.43389
  18   28387.5    352.3     -8.97444  -0.02288  -0.05516   0.12436
  19   28906.3    345.9     11.34782   0.06277   0.05935   0.29377
  20   29143.8    343.1      9.27112   0.02647   0.10166   0.20833
  21   29233.6    342.1     -8.57572   0.04136   0.01539   0.28321
  22   29300.2    341.3      5.04764  -0.09438  -0.03903  -0.30165
  23   29591.5    337.9     -4.74610  -0.01652  -0.00369  -0.05111
  24   30262.7    330.4      5.53564   0.01977   0.01647   0.01956
  25   30583.6    327.0     -0.70676  -0.00316  -0.02518   0.05389
  26   30947.6    323.1      0.16457  -0.00999  -0.03139  -0.06567
  27   31176.8    320.8     16.89415  -0.08957  -0.00172  -0.10613
  28   31308.0    319.4     -2.84124  -0.01138   0.00695  -0.10239
  29   31528.0    317.2      1.24846  -0.01655   0.01611  -0.05279
  30   31581.9    316.6    -28.14862   0.04217   0.03003   0.22836
  31   31821.8    314.3     -9.97444  -0.01982  -0.03665  -0.09884
  32   32047.9    312.0     -6.97896   0.02035  -0.00183   0.17132
  33   32138.0    311.2    -16.41021   0.09252   0.06908   0.09422
  34   32336.0    309.3    -10.29929   0.07080   0.00390   0.28255
  35   32448.2    308.2    -43.25335   0.00736  -0.01511  -0.18089
  36   32489.9    307.8     -5.61649  -0.03189   0.02036  -0.04281
  37   32830.3    304.6     25.69028   0.10205  -0.04850  -0.00141
  38   33046.0    302.6     33.31201  -0.08102   0.04329  -0.12271
  39   33193.4    301.3     40.50420   0.06171  -0.01518  -0.06924
  40   33336.6    300.0      2.63539   0.10705  -0.00840   0.20342
  41   33602.9    297.6     -0.17372   0.02769  -0.00739  -0.07844
  42   33889.2    295.1    -18.66292   0.02911  -0.00584   0.18912
  43   34018.2    294.0     -6.35836   0.03357   0.01090   0.07247
  44   34274.1    291.8      7.14641   0.03686  -0.00043   0.04078
  45   34562.6    289.3    -81.08400   0.05998   0.02451   0.33860
  46   34784.1    287.5    -36.05502  -0.04211  -0.05941  -0.30969
  47   34883.5    286.7     -2.15576  -0.00887   0.00953  -0.00892
  48   34966.8    286.0     -2.04581  -0.05479   0.01361   0.04975
  49   35180.2    284.3     -3.12235  -0.02489  -0.00523  -0.14530
  50   35492.0    281.8      7.31139   0.05064   0.02116   0.08704

Total run time:    18195.764 sec

           *** ORCA-CIS/TD-DFT FINISHED WITHOUT ERROR ***

-----------------------
CIS/TD-DFT TOTAL ENERGY
-----------------------

    E(SCF)  =  -3914.178339591 Eh
    DE(CIS) =      0.073780256 Eh (Root  1)
    ----------------------------- ---------
    E(tot)  =  -3914.104559335 Eh


-------------------------   --------------------
FINAL SINGLE POINT ENERGY     -3914.104559334959
-------------------------   --------------------


                            ***************************************
                            *     ORCA property calculations      *
                            ***************************************

                                    ---------------------
                                    Active property flags
                                    ---------------------
   (+) Dipole Moment


------------------------------------------------------------------------------
                       ORCA ELECTRIC PROPERTIES CALCULATION
------------------------------------------------------------------------------

Dipole Moment Calculation                       ... on
Quadrupole Moment Calculation                   ... off
Polarizability Calculation                      ... off
GBWName                                         ... F-2F.gbw
Electron density file                           ... F-2F.scfp
The origin for moment calculation is the CENTER OF MASS  = (19.232308,  9.638548 -1.028531)

-------------
DIPOLE MOMENT
-------------
                                X             Y             Z
Electronic contribution:    -27.03478      32.81934      22.09312
Nuclear contribution   :     27.18265     -31.67482     -21.57984
                        -----------------------------------------
Total Dipole Moment    :      0.14787       1.14452       0.51328
                        -----------------------------------------
Magnitude (a.u.)       :      1.26303
Magnitude (Debye)      :      3.21037



--------------------
Rotational spectrum 
--------------------
 
Rotational constants in cm-1:     0.002732     0.000215     0.000205 
Rotational constants in MHz :    81.899464     6.441340     6.152679 

 Dipole components along the rotational axes: 
x,y,z [a.u.] :    -0.821382    -0.852644    -0.439980 
x,y,z [Debye]:    -2.087786    -2.167248    -1.118340 

 

Timings for individual modules:

Sum of individual times         ...    21069.404 sec (= 351.157 min)
GTO integral calculation        ...        8.272 sec (=   0.138 min)   0.0 %
SCF iterations                  ...     2864.594 sec (=  47.743 min)  13.6 %
CIS module                      ...    18196.538 sec (= 303.276 min)  86.4 %
                             ****ORCA TERMINATED NORMALLY****
TOTAL RUN TIME: 0 days 5 hours 51 minutes 13 seconds 212 msec
