
                                 *****************
                                 * O   R   C   A *
                                 *****************

           --- An Ab Initio, DFT and Semiempirical electronic structure package ---

                  #######################################################
                  #                        -***-                        #
                  #          Department of theory and spectroscopy      #
                  #               Directorship: Frank Neese             #
                  #        Max Planck Institute fuer Kohlenforschung    #
                  #                Kaiser Wilhelm Platz 1               #
                  #                 D-45470 Muelheim/Ruhr               #
                  #                      Germany                        #
                  #                                                     #
                  #                  All rights reserved                #
                  #                        -***-                        #
                  #######################################################


                         Program Version 4.2.0 -  RELEASE  -


 With contributions from (in alphabetic order):
   Daniel Aravena         : Magnetic Suceptibility
   Michael Atanasov       : Ab Initio Ligand Field Theory (pilot matlab implementation)
   Alexander A. Auer      : GIAO ZORA, VPT2
   Ute Becker             : Parallelization
   Giovanni Bistoni       : ED, misc. LED, open-shell LED, HFLED
   Martin Brehm           : Molecular dynamics
   Dmytro Bykov           : SCF Hessian
   Vijay G. Chilkuri      : MRCI spin determinant printing, contributions to CSF-ICE
   Dipayan Datta          : RHF DLPNO-CCSD density
   Achintya Kumar Dutta   : EOM-CC, STEOM-CC
   Dmitry Ganyushin       : Spin-Orbit,Spin-Spin,Magnetic field MRCI
   Miquel Garcia          : C-PCM Hessian, Gaussian charge scheme
   Yang Guo               : DLPNO-NEVPT2, CIM, IAO-localization
   Andreas Hansen         : Spin unrestricted coupled pair/coupled cluster methods
   Benjamin Helmich-Paris : CASSCF linear response (MC-RPA)
   Lee Huntington         : MR-EOM, pCC
   Robert Izsak           : Overlap fitted RIJCOSX, COSX-SCS-MP3, EOM
   Christian Kollmar      : KDIIS, OOCD, Brueckner-CCSD(T), CCSD density
   Simone Kossmann        : Meta GGA functionals, TD-DFT gradient, OOMP2, MP2 Hessian
   Martin Krupicka        : AUTO-CI
   Lucas Lang             : DCDCAS
   Dagmar Lenk            : GEPOL surface, SMD
   Dimitrios Liakos       : Extrapolation schemes; Compound Job, initial MDCI parallelization
   Dimitrios Manganas     : Further ROCIS development; embedding schemes
   Dimitrios Pantazis     : SARC Basis sets
   Taras Petrenko         : DFT Hessian,TD-DFT gradient, ASA, ECA, R-Raman, ABS, FL, XAS/XES, NRVS
   Peter Pinski           : DLPNO-MP2, DLPNO-MP2 Gradient
   Christoph Reimann      : Effective Core Potentials
   Marius Retegan         : Local ZFS, SOC
   Christoph Riplinger    : Optimizer, TS searches, QM/MM, DLPNO-CCSD(T), (RO)-DLPNO pert. Triples
   Tobias Risthaus        : Range-separated hybrids, TD-DFT gradient, RPA, STAB
   Michael Roemelt        : Original ROCIS implementation
   Masaaki Saitow         : Open-shell DLPNO-CCSD energy and density
   Barbara Sandhoefer     : DKH picture change effects
   Avijit Sen             : IP-ROCIS
   Kantharuban Sivalingam : CASSCF convergence, NEVPT2, FIC-MRCI
   Bernardo de Souza      : ESD, SOC TD-DFT
   Georgi Stoychev        : AutoAux, RI-MP2 NMR
   Willem Van den Heuvel  : Paramagnetic NMR
   Boris Wezisla          : Elementary symmetry handling
   Frank Wennmohs         : Technical directorship


 We gratefully acknowledge several colleagues who have allowed us to
 interface, adapt or use parts of their codes:
   Stefan Grimme, W. Hujo, H. Kruse,             : VdW corrections, initial TS optimization,
                  C. Bannwarth                     DFT functionals, gCP, sTDA/sTD-DF
   Ed Valeev, F. Pavosevic, A. Kumar             : LibInt (2-el integral package), F12 methods
   Garnet Chan, S. Sharma, J. Yang, R. Olivares  : DMRG
   Ulf Ekstrom                                   : XCFun DFT Library
   Mihaly Kallay                                 : mrcc  (arbitrary order and MRCC methods)
   Andreas Klamt, Michael Diedenhofen            : otool_cosmo (COSMO solvation model)
   Jiri Pittner, Ondrej Demel                    : Mk-CCSD
   Frank Weinhold                                : gennbo (NPA and NBO analysis)
   Christopher J. Cramer and Donald G. Truhlar   : smd solvation model
   Lars Goerigk                                  : TD-DFT with DH, B97 family of functionals
   V. Asgeirsson, H. Jonsson                     : NEB implementation
   FAccTs GmbH                                   : IRC, NEB, NEB-TS, Multilevel, MM, QM/MM, CI optimization
   S Lehtola, MJT Oliveira, MAL Marques          : LibXC Library


 Your calculation uses the libint2 library for the computation of 2-el integrals
 For citations please refer to: http://libint.valeyev.net

 Your ORCA version has been built with support for libXC version: 4.2.3
 For citations please refer to: https://tddft.org/programs/libxc/

 This ORCA versions uses:
   CBLAS   interface :  Fast vector & matrix operations
   LAPACKE interface :  Fast linear algebra routines
   SCALAPACK package :  Parallel linear algebra routines


----- Orbital basis set information -----
Your calculation utilizes the basis: def2-TZVP
   F. Weigend and R. Ahlrichs, Phys. Chem. Chem. Phys. 7, 3297 (2005).

----- AuxJ basis set information -----
Your calculation utilizes the auxiliary basis: def2/J
   F. Weigend, Phys. Chem. Chem. Phys. 8, 1057 (2006).

================================================================================
                                        WARNINGS
                       Please study these warnings very carefully!
================================================================================

INFO   : Checking CIS options ...

WARNING: CIS/ROCIS methods need fully converged wavefunctions
  ===> : Setting SCFConvForced true
         You can overwrite this default with %scf ConvForced false 


INFO   : the flag for use of LIBINT has been found!

================================================================================
                                       INPUT FILE
================================================================================
NAME = FO-2F.inp
|  1> # ORCA input file
|  2> # ../FO-2F.out
|  3> ! B3LYP def2-TZVP def2/J RIJCOSX Grid4 TightSCF
|  4> %maxcore 10000
|  5> %tddft
|  6>   maxdim 5
|  7>   nroots 50
|  8>   end
|  9> * xyz 0 1
| 10>    C        4.49030        -3.25906         2.00713
| 11>    O        5.64130        -3.42251         2.35873
| 12>    C        3.33413        -4.03274         2.51163
| 13>    C        3.34172        -5.07238         3.42027
| 14>    C        2.12625        -5.65582         3.73784
| 15>    F        2.08396        -6.66864         4.61238
| 16>    C        0.94535        -5.19808         3.15249
| 17>    F       -0.21473        -5.78220         3.47383
| 18>    C        0.93955        -4.15178         2.24212
| 19>    C        2.15254        -3.56241         1.91944
| 20>    C        2.48934        -2.46203         1.01559
| 21>    C        1.56867        -1.71606         0.32653
| 22>    C        1.83448        -0.61558        -0.51694
| 23>    N        1.94061         0.29370        -1.21115
| 24>    C        0.17476        -1.93462         0.38247
| 25>    N       -0.96670        -2.05283         0.37673
| 26>    C        3.93406        -2.30348         1.03012
| 27>    C        4.60340        -1.43085         0.20571
| 28>    C        5.96640        -1.13145         0.06766
| 29>    C        7.10737        -1.55620         0.73915
| 30>    C        8.27510        -0.98830         0.25250
| 31>    C        8.05610        -0.10279        -0.79535
| 32>    S        6.38981         0.02075        -1.19446
| 33>    C        9.13276         0.56786        -1.44748
| 34>    C       10.43249         0.14484        -1.08748
| 35>    O       10.66596        -0.81146        -0.16949
| 36>    C        9.66564        -1.16405         0.79888
| 37>    C        9.95277        -2.62494         1.17512
| 38>    C        9.68143        -3.58405         0.02167
| 39>    C        9.80011        -0.21111         2.01275
| 40>    C       11.17710        -0.23930         2.66372
| 41>    C       11.53368         0.66894        -1.75616
| 42>    C       11.33159         1.63528        -2.72516
| 43>    C       10.04015         2.10942        -3.03857
| 44>    C        8.94704         1.55419        -2.42444
| 45>    C       10.10753         3.18915        -4.09322
| 46>    C        9.24364         2.86237        -5.32081
| 47>    C        9.65135         1.55409        -5.98846
| 48>    C        9.76367         4.58089        -3.50959
| 49>    C        8.36065         4.73008        -2.93689
| 50>    C       11.58499         3.19271        -4.41917
| 51>    C       12.28577         2.29885        -3.58589
| 52>    C       13.65589         2.13567        -3.69282
| 53>    C       14.34768         2.87394        -4.64640
| 54>    C       13.65123         3.79822        -5.45820
| 55>    C       12.26449         3.94685        -5.34038
| 56>    C       14.45392         4.56617        -6.35207
| 57>    C       15.80124         4.30647        -6.53776
| 58>    C       16.42343         3.11025        -5.87022
| 59>    C       17.84342         3.40705        -5.36568
| 60>    C       17.89045         4.63208        -4.45920
| 61>    C       16.39449         1.95005        -6.89536
| 62>    C       16.96159         0.64336        -6.35475
| 63>    O       15.68354         2.71023        -4.70588
| 64>    C       16.40033         5.19472        -7.42323
| 65>    C       15.52166         6.13259        -7.94873
| 66>    S       13.92073         5.91912        -7.27476
| 67>    C       15.87209         7.18740        -8.81290
| 68>    C       15.07388         8.02693        -9.53597
| 69>    C       13.68513         7.94925        -9.92579
| 70>    C       12.98788         6.80407       -10.21005
| 71>    C       11.65036         6.78613       -10.65246
| 72>    N       10.55427         6.72077       -10.98651
| 73>    C       13.57455         5.52138       -10.17921
| 74>    N       14.03808         4.47196       -10.21900
| 75>    C       13.25697         9.30511       -10.26944
| 76>    C       12.00270         9.82085       -10.55037
| 77>    C       11.91522        11.16241       -10.89163
| 78>    F       10.71344        11.68829       -11.15298
| 79>    C       13.04777        11.97444       -10.96467
| 80>    F       12.91645        13.26187       -11.30632
| 81>    C       14.30550        11.46416       -10.68435
| 82>    C       14.39303        10.13163       -10.33306
| 83>    C       15.59579         9.34951        -9.95863
| 84>    O       16.74599         9.72117        -9.94657
| 85>    H        4.25854        -5.42131         3.86809
| 86>    H       -0.00098        -3.83960         1.81935
| 87>    H        3.98153        -0.87316        -0.48410
| 88>    H        7.05938        -2.25758         1.55060
| 89>    H        9.34570        -2.89397         2.03918
| 90>    H       11.00464        -2.69328         1.45125
| 91>    H        8.62508        -3.59805        -0.23647
| 92>    H        9.97816        -4.59149         0.30099
| 93>    H       10.25118        -3.28657        -0.85575
| 94>    H        9.03122        -0.47432         2.74080
| 95>    H        9.59341         0.80298         1.65726
| 96>    H       11.34951        -1.18169         3.17569
| 97>    H       11.25448         0.56368         3.39274
| 98>    H       11.95090        -0.10093         1.91259
| 99>    H       12.51892         0.30779        -1.50950
|100>    H        7.93693         1.83809        -2.67840
|101>    H        9.33032         3.67957        -6.03950
|102>    H        8.19982         2.79347        -5.01348
|103>    H       10.68087         1.60181        -6.33622
|104>    H        9.00955         1.35648        -6.84343
|105>    H        9.56298         0.72322        -5.29168
|106>    H        9.90500         5.31588        -4.30478
|107>    H       10.48969         4.80257        -2.72264
|108>    H        7.60142         4.50671        -3.68115
|109>    H        8.21562         5.75658        -2.60729
|110>    H        8.21862         4.07826        -2.07931
|111>    H       14.19899         1.44996        -3.06294
|112>    H       11.76255         4.65076        -5.98807
|113>    H       18.50425         3.54078        -6.22217
|114>    H       18.17980         2.53827        -4.80082
|115>    H       17.61332         5.53433        -4.99997
|116>    H       18.89404         4.76328        -4.06314
|117>    H       17.20414         4.50415        -3.62551
|118>    H       16.94226         2.26283        -7.78553
|119>    H       15.35098         1.79653        -7.18465
|120>    H       18.03890         0.70418        -6.22763
|121>    H       16.74586        -0.16448        -7.04932
|122>    H       16.50801         0.40537        -5.39580
|123>    H       17.43433         5.16136        -7.71541
|124>    H       16.93053         7.43029        -8.83917
|125>    H       11.10198         9.23044       -10.50418
|126>    H       15.18109        12.09091       -10.74199
|127> *
|128> 
|129>                          ****END OF INPUT****
================================================================================

                       ****************************
                       * Single Point Calculation *
                       ****************************

---------------------------------
CARTESIAN COORDINATES (ANGSTROEM)
---------------------------------
  C      4.490300   -3.259060    2.007130
  O      5.641300   -3.422510    2.358730
  C      3.334130   -4.032740    2.511630
  C      3.341720   -5.072380    3.420270
  C      2.126250   -5.655820    3.737840
  F      2.083960   -6.668640    4.612380
  C      0.945350   -5.198080    3.152490
  F     -0.214730   -5.782200    3.473830
  C      0.939550   -4.151780    2.242120
  C      2.152540   -3.562410    1.919440
  C      2.489340   -2.462030    1.015590
  C      1.568670   -1.716060    0.326530
  C      1.834480   -0.615580   -0.516940
  N      1.940610    0.293700   -1.211150
  C      0.174760   -1.934620    0.382470
  N     -0.966700   -2.052830    0.376730
  C      3.934060   -2.303480    1.030120
  C      4.603400   -1.430850    0.205710
  C      5.966400   -1.131450    0.067660
  C      7.107370   -1.556200    0.739150
  C      8.275100   -0.988300    0.252500
  C      8.056100   -0.102790   -0.795350
  S      6.389810    0.020750   -1.194460
  C      9.132760    0.567860   -1.447480
  C     10.432490    0.144840   -1.087480
  O     10.665960   -0.811460   -0.169490
  C      9.665640   -1.164050    0.798880
  C      9.952770   -2.624940    1.175120
  C      9.681430   -3.584050    0.021670
  C      9.800110   -0.211110    2.012750
  C     11.177100   -0.239300    2.663720
  C     11.533680    0.668940   -1.756160
  C     11.331590    1.635280   -2.725160
  C     10.040150    2.109420   -3.038570
  C      8.947040    1.554190   -2.424440
  C     10.107530    3.189150   -4.093220
  C      9.243640    2.862370   -5.320810
  C      9.651350    1.554090   -5.988460
  C      9.763670    4.580890   -3.509590
  C      8.360650    4.730080   -2.936890
  C     11.584990    3.192710   -4.419170
  C     12.285770    2.298850   -3.585890
  C     13.655890    2.135670   -3.692820
  C     14.347680    2.873940   -4.646400
  C     13.651230    3.798220   -5.458200
  C     12.264490    3.946850   -5.340380
  C     14.453920    4.566170   -6.352070
  C     15.801240    4.306470   -6.537760
  C     16.423430    3.110250   -5.870220
  C     17.843420    3.407050   -5.365680
  C     17.890450    4.632080   -4.459200
  C     16.394490    1.950050   -6.895360
  C     16.961590    0.643360   -6.354750
  O     15.683540    2.710230   -4.705880
  C     16.400330    5.194720   -7.423230
  C     15.521660    6.132590   -7.948730
  S     13.920730    5.919120   -7.274760
  C     15.872090    7.187400   -8.812900
  C     15.073880    8.026930   -9.535970
  C     13.685130    7.949250   -9.925790
  C     12.987880    6.804070  -10.210050
  C     11.650360    6.786130  -10.652460
  N     10.554270    6.720770  -10.986510
  C     13.574550    5.521380  -10.179210
  N     14.038080    4.471960  -10.219000
  C     13.256970    9.305110  -10.269440
  C     12.002700    9.820850  -10.550370
  C     11.915220   11.162410  -10.891630
  F     10.713440   11.688290  -11.152980
  C     13.047770   11.974440  -10.964670
  F     12.916450   13.261870  -11.306320
  C     14.305500   11.464160  -10.684350
  C     14.393030   10.131630  -10.333060
  C     15.595790    9.349510   -9.958630
  O     16.745990    9.721170   -9.946570
  H      4.258540   -5.421310    3.868090
  H     -0.000980   -3.839600    1.819350
  H      3.981530   -0.873160   -0.484100
  H      7.059380   -2.257580    1.550600
  H      9.345700   -2.893970    2.039180
  H     11.004640   -2.693280    1.451250
  H      8.625080   -3.598050   -0.236470
  H      9.978160   -4.591490    0.300990
  H     10.251180   -3.286570   -0.855750
  H      9.031220   -0.474320    2.740800
  H      9.593410    0.802980    1.657260
  H     11.349510   -1.181690    3.175690
  H     11.254480    0.563680    3.392740
  H     11.950900   -0.100930    1.912590
  H     12.518920    0.307790   -1.509500
  H      7.936930    1.838090   -2.678400
  H      9.330320    3.679570   -6.039500
  H      8.199820    2.793470   -5.013480
  H     10.680870    1.601810   -6.336220
  H      9.009550    1.356480   -6.843430
  H      9.562980    0.723220   -5.291680
  H      9.905000    5.315880   -4.304780
  H     10.489690    4.802570   -2.722640
  H      7.601420    4.506710   -3.681150
  H      8.215620    5.756580   -2.607290
  H      8.218620    4.078260   -2.079310
  H     14.198990    1.449960   -3.062940
  H     11.762550    4.650760   -5.988070
  H     18.504250    3.540780   -6.222170
  H     18.179800    2.538270   -4.800820
  H     17.613320    5.534330   -4.999970
  H     18.894040    4.763280   -4.063140
  H     17.204140    4.504150   -3.625510
  H     16.942260    2.262830   -7.785530
  H     15.350980    1.796530   -7.184650
  H     18.038900    0.704180   -6.227630
  H     16.745860   -0.164480   -7.049320
  H     16.508010    0.405370   -5.395800
  H     17.434330    5.161360   -7.715410
  H     16.930530    7.430290   -8.839170
  H     11.101980    9.230440  -10.504180
  H     15.181090   12.090910  -10.741990

----------------------------
CARTESIAN COORDINATES (A.U.)
----------------------------
  NO LB      ZA    FRAG     MASS         X           Y           Z
   0 C     6.0000    0    12.011    8.485437   -6.158731    3.792926
   1 O     8.0000    0    15.999   10.660512   -6.467607    4.457354
   2 C     6.0000    0    12.011    6.300593   -7.620774    4.746293
   3 C     6.0000    0    12.011    6.314936   -9.585409    6.463374
   4 C     6.0000    0    12.011    4.018030  -10.687951    7.063494
   5 F     9.0000    0    18.998    3.938114  -12.601903    8.716135
   6 C     6.0000    0    12.011    1.786453   -9.822948    5.957343
   7 F     9.0000    0    18.998   -0.405781  -10.926774    6.564587
   8 C     6.0000    0    12.011    1.775492   -7.845727    4.236993
   9 C     6.0000    0    12.011    4.067711   -6.731979    3.627216
  10 C     6.0000    0    12.011    4.704171   -4.652562    1.919187
  11 C     6.0000    0    12.011    2.964357   -3.242883    0.617052
  12 C     6.0000    0    12.011    3.466665   -1.163278   -0.976875
  13 N     7.0000    0    14.007    3.667221    0.555013   -2.288742
  14 C     6.0000    0    12.011    0.330249   -3.655902    0.722764
  15 N     7.0000    0    14.007   -1.826798   -3.879286    0.711917
  16 C     6.0000    0    12.011    7.434296   -4.352946    1.946645
  17 C     6.0000    0    12.011    8.699165   -2.703915    0.388736
  18 C     6.0000    0    12.011   11.274862   -2.138131    0.127859
  19 C     6.0000    0    12.011   13.430983   -2.940792    1.396791
  20 C     6.0000    0    12.011   15.637673   -1.867616    0.477156
  21 C     6.0000    0    12.011   15.223823   -0.194245   -1.502994
  22 S    16.0000    0    32.060   12.074991    0.039212   -2.257202
  23 C     6.0000    0    12.011   17.258415    1.073100   -2.735341
  24 C     6.0000    0    12.011   19.714549    0.273708   -2.055039
  25 O     8.0000    0    15.999   20.155743   -1.533437   -0.320290
  26 C     6.0000    0    12.011   18.265413   -2.199736    1.509664
  27 C     6.0000    0    12.011   18.808010   -4.960418    2.220655
  28 C     6.0000    0    12.011   18.295251   -6.772873    0.040950
  29 C     6.0000    0    12.011   18.519524   -0.398940    3.803546
  30 C     6.0000    0    12.011   21.121658   -0.452211    5.033701
  31 C     6.0000    0    12.011   21.795497    1.264113   -3.318661
  32 C     6.0000    0    12.011   21.413602    3.090231   -5.149806
  33 C     6.0000    0    12.011   18.973134    3.986226   -5.742065
  34 C     6.0000    0    12.011   16.907455    2.936993   -4.581528
  35 C     6.0000    0    12.011   19.100464    6.026620   -7.735065
  36 C     6.0000    0    12.011   17.467948    5.409095  -10.054874
  37 C     6.0000    0    12.011   18.238408    2.936804  -11.316549
  38 C     6.0000    0    12.011   18.450662    8.656628   -6.632164
  39 C     6.0000    0    12.011   15.799339    8.938556   -5.549918
  40 C     6.0000    0    12.011   21.892458    6.033348   -8.351021
  41 C     6.0000    0    12.011   23.216741    4.344197   -6.776350
  42 C     6.0000    0    12.011   25.805892    4.035831   -6.978418
  43 C     6.0000    0    12.011   27.113186    5.430960   -8.780424
  44 C     6.0000    0    12.011   25.797086    7.177596  -10.314503
  45 C     6.0000    0    12.011   23.176527    7.458466  -10.091856
  46 C     6.0000    0    12.011   27.313950    8.628811  -12.003673
  47 C     6.0000    0    12.011   29.860016    8.138049  -12.354576
  48 C     6.0000    0    12.011   31.035785    5.877521  -11.093108
  49 C     6.0000    0    12.011   33.719177    6.438391  -10.139666
  50 C     6.0000    0    12.011   33.808051    8.753363   -8.426667
  51 C     6.0000    0    12.011   30.981096    3.685060  -13.030342
  52 C     6.0000    0    12.011   32.052760    1.215774  -12.008737
  53 O     8.0000    0    15.999   29.637595    5.121592   -8.892824
  54 C     6.0000    0    12.011   30.992132    9.816598  -14.027872
  55 C     6.0000    0    12.011   29.331687   11.588916  -15.020923
  56 S    16.0000    0    32.060   26.306367   11.185516  -13.747304
  57 C     6.0000    0    12.011   29.993903   13.582218  -16.653967
  58 C     6.0000    0    12.011   28.485505   15.168699  -18.020372
  59 C     6.0000    0    12.011   25.861148   15.021905  -18.757025
  60 C     6.0000    0    12.011   24.543536   12.857829  -19.294198
  61 C     6.0000    0    12.011   22.015990   12.823927  -20.130232
  62 N     7.0000    0    14.007   19.944680   12.700415  -20.761495
  63 C     6.0000    0    12.011   25.652182   10.433896  -19.235919
  64 N     7.0000    0    14.007   26.528127    8.450780  -19.311111
  65 C     6.0000    0    12.011   25.052043   17.584110  -19.406429
  66 C     6.0000    0    12.011   22.681816   18.558717  -19.937310
  67 C     6.0000    0    12.011   22.516503   21.093898  -20.582198
  68 F     9.0000    0    18.998   20.245468   22.087667  -21.076078
  69 C     6.0000    0    12.011   24.656712   22.628412  -20.720223
  70 F     9.0000    0    18.998   24.408553   25.061302  -21.365848
  71 C     6.0000    0    12.011   27.033477   21.664123  -20.190495
  72 C     6.0000    0    12.011   27.198885   19.146006  -19.526654
  73 C     6.0000    0    12.011   29.471772   17.668013  -18.819083
  74 O     8.0000    0    15.999   31.645335   18.370349  -18.796293
  75 H     1.0000    0     1.008    8.047474  -10.244791    7.309631
  76 H     1.0000    0     1.008   -0.001852   -7.255792    3.438073
  77 H     1.0000    0     1.008    7.524001   -1.650033   -0.914816
  78 H     1.0000    0     1.008   13.340295   -4.266208    2.930209
  79 H     1.0000    0     1.008   17.660814   -5.468811    3.853492
  80 H     1.0000    0     1.008   20.795756   -5.089562    2.742465
  81 H     1.0000    0     1.008   16.299039   -6.799329   -0.446864
  82 H     1.0000    0     1.008   18.855990   -8.676659    0.568789
  83 H     1.0000    0     1.008   19.371923   -6.210717   -1.617133
  84 H     1.0000    0     1.008   17.066532   -0.896335    5.179361
  85 H     1.0000    0     1.008   18.128918    1.517412    3.131768
  86 H     1.0000    0     1.008   21.447466   -2.233070    6.001184
  87 H     1.0000    0     1.008   21.267885    1.065201    6.411349
  88 H     1.0000    0     1.008   22.583928   -0.190730    3.614271
  89 H     1.0000    0     1.008   23.657330    0.581639   -2.852542
  90 H     1.0000    0     1.008   14.998624    3.473487   -5.061442
  91 H     1.0000    0     1.008   17.631750    6.953380  -11.413001
  92 H     1.0000    0     1.008   15.495414    5.278893   -9.474104
  93 H     1.0000    0     1.008   20.183919    3.026982  -11.973721
  94 H     1.0000    0     1.008   17.025582    2.563376  -12.932209
  95 H     1.0000    0     1.008   18.071413    1.366688   -9.999826
  96 H     1.0000    0     1.008   18.717737   10.045557   -8.134855
  97 H     1.0000    0     1.008   19.822641    9.075542   -5.145044
  98 H     1.0000    0     1.008   14.364602    8.516448   -6.956365
  99 H     1.0000    0     1.008   15.525272   10.878360   -4.927064
 100 H     1.0000    0     1.008   15.530941    7.706795   -3.929326
 101 H     1.0000    0     1.008   26.832202    2.740027   -5.788118
 102 H     1.0000    0     1.008   22.227998    8.788663  -11.315812
 103 H     1.0000    0     1.008   34.967965    6.691105  -11.758197
 104 H     1.0000    0     1.008   34.354843    4.796635   -9.072235
 105 H     1.0000    0     1.008   33.284351   10.458368   -9.448574
 106 H     1.0000    0     1.008   35.704561    9.001295   -7.678222
 107 H     1.0000    0     1.008   32.511113    8.511610   -6.851221
 108 H     1.0000    0     1.008   32.016231    4.276129  -14.712520
 109 H     1.0000    0     1.008   29.009148    3.394950  -13.577021
 110 H     1.0000    0     1.008   34.088581    1.330707  -11.768515
 111 H     1.0000    0     1.008   31.645089   -0.310822  -13.321284
 112 H     1.0000    0     1.008   31.195618    0.766038  -10.196584
 113 H     1.0000    0     1.008   32.946109    9.753557  -14.580012
 114 H     1.0000    0     1.008   31.994065   14.041213  -16.703611
 115 H     1.0000    0     1.008   20.979702   17.443004  -19.850023
 116 H     1.0000    0     1.008   28.688103   22.848509  -20.299419

--------------------------------
INTERNAL COORDINATES (ANGSTROEM)
--------------------------------
 C      0   0   0     0.000000000000     0.00000000     0.00000000
 O      1   0   0     1.214553194595     0.00000000     0.00000000
 C      1   2   0     1.479807440615   124.84524823     0.00000000
 C      3   1   2     1.380773546712   127.85829918   358.32869136
 C      4   3   1     1.385142685574   117.59369914   180.42295795
 F      5   4   3     1.338810295785   119.74445678   179.89585881
 C      5   4   3     1.395236660965   120.55250418     0.00000000
 F      7   5   4     1.337998944843   119.33081803   179.79610053
 C      7   5   4     1.386921362911   121.76392067   359.87727488
 C      9   7   5     1.386659337905   118.01683362     0.10421860
 C     10   9   7     1.463289174053   131.65887755   179.99894051
 C     11  10   9     1.370732714062   124.41305670     3.92607647
 C     12  11  10     1.411790645740   126.73274012   177.47728323
 N     13  12  11     1.148904356071   174.44688206   185.97175154
 C     12  11  10     1.412049165327   123.97874158   358.67495533
 N     15  12  11     1.147578966041   176.05963471   181.12203532
 C     11  10   9     1.453466580902   107.73630550   182.28081170
 C     17  11  10     1.374463895706   123.18280224   174.34954402
 C     18  17  11     1.402307798773   131.90762298   179.84633757
 C     19  18  17     1.390368269021   133.22397704   356.76961217
 C     20  19  18     1.386698231556   113.35594400   179.83974885
 C     21  20  19     1.389272681154   113.14030085     0.64827504
 S     22  21  20     1.717868821476   111.96088509   359.50273178
 C     22  21  20     1.426268458250   121.70692659   181.06808970
 C     24  22  21     1.413451093353   115.91032853     8.16489487
 O     25  24  22     1.346002812404   123.08182608   358.73629773
 C     26  25  24     1.436210384101   120.89455283   339.97166878
 C     27  26  25     1.535643111729   105.57595356   153.15914845
 C     28  27  26     1.524455407744   112.32529355   291.99532283
 C     27  26  25     1.549082696760   108.47347021   273.54113681
 C     30  27  26     1.523370630247   113.69910299   302.31470814
 C     25  24  22     1.390839016026   119.52588917   174.71497124
 C     32  25  24     1.383334508967   118.96931475     2.55930564
 C     33  32  25     1.410975492806   121.60411468     0.69884134
 C     34  33  32     1.371249605980   119.60940804   356.43477623
 C     34  33  32     1.510842003586   110.75574783   178.09121944
 C     36  34  33     1.536251381968   112.37751374   124.18161947
 C     37  36  34     1.524329532942   112.46699030   301.08390992
 C     36  34  33     1.547838461888   111.68263463   250.44832834
 C     39  36  34     1.522730464166   115.75969786   298.09925582
 C     36  34  33     1.512991780447   101.28074414     4.28818159
 C     41  36  34     1.408699352736   110.90722095   356.11426594
 C     42  41  36     1.383940226925   121.44039147   180.37706980
 C     43  42  41     1.390298821621   118.88135174     0.00000000
 C     44  43  42     1.413631975056   119.73112515     1.74769064
 C     41  36  34     1.370793658324   129.05963890   178.21764148
 C     45  44  43     1.425854836756   115.77299070   176.42774391
 C     47  45  44     1.384628487537   122.06222823     7.95548466
 C     48  47  45     1.504550542886   119.47325928     5.21885267
 C     49  48  47     1.535910951748   111.98942012   218.11922551
 C     50  49  48     1.524669246820   112.27706472    54.01073947
 C     49  48  47     1.548487514706   107.11229196    94.57395475
 C     52  49  48     1.523581418304   113.62350301   181.52151740
 O     44  43  42     1.347167685962   117.33293226   178.73069049
 C     48  47  45     1.389947485159   112.64226926   181.63113661
 C     55  48  47     1.388456465216   113.57890646   358.90787071
 S     47  45  44     1.722243337830   125.78027265   189.93879033
 C     56  55  48     1.407911612957   125.51121898   176.60092106
 C     58  56  55     1.365569496547   129.80029732   168.94144078
 C     59  58  56     1.444513889618   132.20553797   342.90904320
 C     60  59  58     1.370546804199   126.15726467   327.22443625
 C     61  60  59     1.408903191174   123.96802121   183.37243113
 N     62  61  60     1.147725847143   177.12684295   210.62611798
 C     61  60  59     1.410824734189   122.92844473   358.67281973
 N     64  61  60     1.147922315054   176.67600917   241.86432028
 C     60  59  58     1.462796174352   107.15475539   160.49748365
 C     66  60  59     1.384955827960   131.13976602   188.68931059
 C     67  66  60     1.387045194505   117.85270834   182.15297997
 F     68  67  66     1.337583180703   119.01264020   180.73859549
 C     68  67  66     1.395491692917   121.63492523     0.55363071
 F     70  68  67     1.338448979155   119.56746189   179.58086954
 C     70  68  67     1.385947233375   120.77496820   359.41447646
 C     72  70  68     1.380833938568   117.66377860     0.00000000
 C     73  72  70     1.482747833214   128.65948564   181.48222666
 O     74  73  72     1.208816213988   127.74708126   356.45441859
 H      4   3   1     1.078356995480   121.43884044     0.36120584
 H      9   7   5     1.077398489975   118.67307625   179.90449121
 H     18  17  11     1.083318175376   115.41807329   358.68242091
 H     20  19  18     1.073633106326   121.86441093   359.93807181
 H     28  27  26     1.089729695567   108.96349308   169.58406427
 H     28  27  26     1.089655280077   107.59244679    51.84700659
 H     29  28  27     1.087523600709   111.13620233   294.98979243
 H     29  28  27     1.086739945387   109.88702320   175.11025051
 H     29  28  27     1.087646665650   110.18600542    55.56327718
 H     30  27  26     1.091113256587   108.25802727   179.33849150
 H     30  27  26     1.094292720528   107.40475899    63.07943565
 H     31  30  27     1.086249235259   111.15722267   290.25651864
 H     31  30  27     1.087306169025   109.70481545   170.55023292
 H     31  30  27     1.087248349642   110.22727352    51.03923389
 H     32  25  24     1.077946351031   119.16925350   182.89526700
 H     35  34  33     1.079544859513   122.27947455   184.09560892
 H     37  36  34     1.091716345256   108.79429479   179.66844803
 H     37  36  34     1.090302311884   109.06028077    62.10170300
 H     38  37  36     1.087715793027   110.82646415   299.24544813
 H     38  37  36     1.087166340998   110.03260002   179.39334330
 H     38  37  36     1.087959825637   110.68412480    59.51209652
 H     39  36  34     1.092021796989   107.56916131   175.83422343
 H     39  36  34     1.093406312996   107.82829044    60.09646838
 H     40  39  36     1.086391871012   111.47603726   302.23585019
 H     40  39  36     1.087829081658   109.22298658   183.01499620
 H     40  39  36     1.086501398849   111.00966562    63.99847212
 H     43  42  41     1.077916800361   121.91554264   180.34312733
 H     46  41  36     1.080247836286   122.07915627   358.45745170
 H     50  49  48     1.090025284982   109.03146815   291.23977917
 H     50  49  48     1.089493924903   107.55766839   173.72337612
 H     51  50  49     1.087790555346   111.28490883   295.86621450
 H     51  50  49     1.086862388575   110.00661317   175.66251152
 H     51  50  49     1.087394370548   109.98849434    56.18293017
 H     52  49  48     1.091002259484   108.41967731    58.38823604
 H     52  49  48     1.093695668182   107.34427883   302.34162999
 H     53  52  49     1.086487645075   111.25851537   289.37203523
 H     53  52  49     1.087001556301   109.68122704   169.63510926
 H     53  52  49     1.087179451149   110.20802570    50.18389104
 H     55  48  47     1.075006066029   124.60328043   180.83457677
 H     58  56  55     1.086269256952   115.14366739   342.62262976
 H     67  66  60     1.077967533185   122.96156370     2.83829165
 H     72  70  68     1.078330088702   120.80123674   179.91436983

---------------------------
INTERNAL COORDINATES (A.U.)
---------------------------
 C      0   0   0     0.000000000000     0.00000000     0.00000000
 O      1   0   0     2.295172912863     0.00000000     0.00000000
 C      1   2   0     2.796430793702   124.84524823     0.00000000
 C      3   1   2     2.609283856249   127.85829918   358.32869136
 C      4   3   1     2.617540332140   117.59369914   180.42295795
 F      5   4   3     2.529984804308   119.74445678   179.89585881
 C      5   4   3     2.636615181230   120.55250418     0.00000000
 F      7   5   4     2.528451573228   119.33081803   179.79610053
 C      7   5   4     2.620901545187   121.76392067   359.87727488
 C      9   7   5     2.620406389686   118.01683362     0.10421860
 C     10   9   7     2.765215793692   131.65887755   179.99894051
 C     11  10   9     2.590309432384   124.41305670     3.92607647
 C     12  11  10     2.667897678881   126.73274012   177.47728323
 N     13  12  11     2.171114587044   174.44688206   185.97175154
 C     12  11  10     2.668386210100   123.97874158   358.67495533
 N     15  12  11     2.168609962866   176.05963471   181.12203532
 C     11  10   9     2.746653782712   107.73630550   182.28081170
 C     17  11  10     2.597360343847   123.18280224   174.34954402
 C     18  17  11     2.649977695143   131.90762298   179.84633757
 C     19  18  17     2.627415253744   133.22397704   356.76961217
 C     20  19  18     2.620479888033   113.35594400   179.83974885
 C     21  20  19     2.625344892719   113.14030085     0.64827504
 S     22  21  20     3.246301606592   111.96088509   359.50273178
 C     22  21  20     2.695256779543   121.70692659   181.06808970
 C     24  22  21     2.671035470128   115.91032853     8.16489487
 O     25  24  22     2.543576690932   123.08182608   358.73629773
 C     26  25  24     2.714044296645   120.89455283   339.97166878
 C     27  26  25     2.901944920610   105.57595356   153.15914845
 C     28  27  26     2.880803224011   112.32529355   291.99532283
 C     27  26  25     2.927342055672   108.47347021   273.54113681
 C     30  27  26     2.878753291626   113.69910299   302.31470814
 C     25  24  22     2.628304836662   119.52588917   174.71497124
 C     32  25  24     2.614123373551   118.96931475     2.55930564
 C     33  32  25     2.666357263078   121.60411468     0.69884134
 C     34  33  32     2.591286216549   119.60940804   356.43477623
 C     34  33  32     2.855077618403   110.75574783   178.09121944
 C     36  34  33     2.903094384778   112.37751374   124.18161947
 C     37  36  34     2.880565355109   112.46699030   301.08390992
 C     36  34  33     2.924990792518   111.68263463   250.44832834
 C     39  36  34     2.877543553053   115.75969786   298.09925582
 C     36  34  33     2.859140107919   101.28074414     4.28818159
 C     41  36  34     2.662055981704   110.90722095   356.11426594
 C     42  41  36     2.615268014604   121.44039147   180.37706980
 C     43  42  41     2.627284017177   118.88135174     0.00000000
 C     44  43  42     2.671377287010   119.73112515     1.74769064
 C     41  36  34     2.590424600347   129.05963890   178.21764148
 C     45  44  43     2.694475148196   115.77299070   176.42774391
 C     47  45  44     2.616568638671   122.06222823     7.95548466
 C     48  47  45     2.843188480698   119.47325928     5.21885267
 C     49  48  47     2.902451064894   111.98942012   218.11922551
 C     50  49  48     2.881207321303   112.27706472    54.01073947
 C     49  48  47     2.926217324590   107.11229196    94.57395475
 C     52  49  48     2.879151623325   113.62350301   181.52151740
 O     44  43  42     2.545777982936   117.33293226   178.73069049
 C     48  47  45     2.626620087483   112.64226926   181.63113661
 C     55  48  47     2.623802468131   113.57890646   358.90787071
 S     47  45  44     3.254568244469   125.78027265   189.93879033
 C     56  55  48     2.660567369257   125.51121898   176.60092106
 C     58  56  55     2.580552365311   129.80029732   168.94144078
 C     59  58  56     2.729735648024   132.20553797   342.90904320
 C     60  59  58     2.589958113657   126.15726467   327.22443625
 C     61  60  59     2.662441180526   123.96802121   183.37243113
 N     62  61  60     2.168887527923   177.12684295   210.62611798
 C     61  60  59     2.666072370580   122.92844473   358.67281973
 N     64  61  60     2.169258798470   176.67600917   241.86432028
 C     60  59  58     2.764284159274   107.15475539   160.49748365
 C     66  60  59     2.617187222422   131.13976602   188.68931059
 C     67  66  60     2.621135552986   117.85270834   182.15297997
 F     68  67  66     2.527665892868   119.01264020   180.73859549
 C     68  67  66     2.637097121775   121.63492523     0.55363071
 F     70  68  67     2.529302014829   119.56746189   179.58086954
 C     70  68  67     2.619060707145   120.77496820   359.41447646
 C     72  70  68     2.609397980317   117.66377860     0.00000000
 C     73  72  70     2.801987330439   128.65948564   181.48222666
 O     74  73  72     2.284331590681   127.74708126   356.45441859
 H      4   3   1     2.037799396055   121.43884044     0.36120584
 H      9   7   5     2.035988083153   118.67307625   179.90449121
 H     18  17  11     2.047174667360   115.41807329   358.68242091
 H     20  19  18     2.028872539268   121.86441093   359.93807181
 H     28  27  26     2.059290684623   108.96349308   169.58406427
 H     28  27  26     2.059150059727   107.59244679    51.84700659
 H     29  28  27     2.055121769517   111.13620233   294.98979243
 H     29  28  27     2.053640875574   109.88702320   175.11025051
 H     29  28  27     2.055354328551   110.18600542    55.56327718
 H     30  27  26     2.061905236040   108.25802727   179.33849150
 H     30  27  26     2.067913552141   107.40475899    63.07943565
 H     31  30  27     2.052713567820   111.15722267   290.25651864
 H     31  30  27     2.054710883180   109.70481545   170.55023292
 H     31  30  27     2.054601620382   110.22727352    51.03923389
 H     32  25  24     2.037023390507   119.16925350   182.89526700
 H     35  34  33     2.040044133761   122.27947455   184.09560892
 H     37  36  34     2.063044908460   108.79429479   179.66844803
 H     37  36  34     2.060372772642   109.06028077    62.10170300
 H     38  37  36     2.055484960362   110.82646415   299.24544813
 H     38  37  36     2.054446646504   110.03260002   179.39334330
 H     38  37  36     2.055946115163   110.68412480    59.51209652
 H     39  36  34     2.063622128583   107.56916131   175.83422343
 H     39  36  34     2.066238484663   107.82829044    60.09646838
 H     40  39  36     2.052983110330   111.47603726   302.23585019
 H     40  39  36     2.055699044848   109.22298658   183.01499620
 H     40  39  36     2.053190087946   111.00966562    63.99847212
 H     43  42  41     2.036967547835   121.91554264   180.34312733
 H     46  41  36     2.041372567341   122.07915627   358.45745170
 H     50  49  48     2.059849267665   109.03146815   291.23977917
 H     50  49  48     2.058845142637   107.55766839   173.72337612
 H     51  50  49     2.055626240670   111.28490883   295.86621450
 H     51  50  49     2.053872259667   110.00661317   175.66251152
 H     51  50  49     2.054877559904   109.98849434    56.18293017
 H     52  49  48     2.061695481915   108.41967731    58.38823604
 H     52  49  48     2.066785286720   107.34427883   302.34162999
 H     53  52  49     2.053164097080   111.25851537   289.37203523
 H     53  52  49     2.054135248554   109.68122704   169.63510926
 H     53  52  49     2.054471421098   110.20802570    50.18389104
 H     55  48  47     2.031467057100   124.60328043   180.83457677
 H     58  56  55     2.052751403338   115.14366739   342.62262976
 H     67  66  60     2.037063418977   122.96156370     2.83829165
 H     72  70  68     2.037748549614   120.80123674   179.91436983

---------------------
BASIS SET INFORMATION
---------------------
There are 6 groups of distinct atoms

 Group   1 Type C   : 11s6p2d1f contracted to 5s3p2d1f pattern {62111/411/11/1}
 Group   2 Type O   : 11s6p2d1f contracted to 5s3p2d1f pattern {62111/411/11/1}
 Group   3 Type F   : 11s6p2d1f contracted to 5s3p2d1f pattern {62111/411/11/1}
 Group   4 Type N   : 11s6p2d1f contracted to 5s3p2d1f pattern {62111/411/11/1}
 Group   5 Type S   : 14s9p3d1f contracted to 5s5p2d1f pattern {73211/51111/21/1}
 Group   6 Type H   : 5s1p contracted to 3s1p pattern {311/1}

Atom   0C    basis set group =>   1
Atom   1O    basis set group =>   2
Atom   2C    basis set group =>   1
Atom   3C    basis set group =>   1
Atom   4C    basis set group =>   1
Atom   5F    basis set group =>   3
Atom   6C    basis set group =>   1
Atom   7F    basis set group =>   3
Atom   8C    basis set group =>   1
Atom   9C    basis set group =>   1
Atom  10C    basis set group =>   1
Atom  11C    basis set group =>   1
Atom  12C    basis set group =>   1
Atom  13N    basis set group =>   4
Atom  14C    basis set group =>   1
Atom  15N    basis set group =>   4
Atom  16C    basis set group =>   1
Atom  17C    basis set group =>   1
Atom  18C    basis set group =>   1
Atom  19C    basis set group =>   1
Atom  20C    basis set group =>   1
Atom  21C    basis set group =>   1
Atom  22S    basis set group =>   5
Atom  23C    basis set group =>   1
Atom  24C    basis set group =>   1
Atom  25O    basis set group =>   2
Atom  26C    basis set group =>   1
Atom  27C    basis set group =>   1
Atom  28C    basis set group =>   1
Atom  29C    basis set group =>   1
Atom  30C    basis set group =>   1
Atom  31C    basis set group =>   1
Atom  32C    basis set group =>   1
Atom  33C    basis set group =>   1
Atom  34C    basis set group =>   1
Atom  35C    basis set group =>   1
Atom  36C    basis set group =>   1
Atom  37C    basis set group =>   1
Atom  38C    basis set group =>   1
Atom  39C    basis set group =>   1
Atom  40C    basis set group =>   1
Atom  41C    basis set group =>   1
Atom  42C    basis set group =>   1
Atom  43C    basis set group =>   1
Atom  44C    basis set group =>   1
Atom  45C    basis set group =>   1
Atom  46C    basis set group =>   1
Atom  47C    basis set group =>   1
Atom  48C    basis set group =>   1
Atom  49C    basis set group =>   1
Atom  50C    basis set group =>   1
Atom  51C    basis set group =>   1
Atom  52C    basis set group =>   1
Atom  53O    basis set group =>   2
Atom  54C    basis set group =>   1
Atom  55C    basis set group =>   1
Atom  56S    basis set group =>   5
Atom  57C    basis set group =>   1
Atom  58C    basis set group =>   1
Atom  59C    basis set group =>   1
Atom  60C    basis set group =>   1
Atom  61C    basis set group =>   1
Atom  62N    basis set group =>   4
Atom  63C    basis set group =>   1
Atom  64N    basis set group =>   4
Atom  65C    basis set group =>   1
Atom  66C    basis set group =>   1
Atom  67C    basis set group =>   1
Atom  68F    basis set group =>   3
Atom  69C    basis set group =>   1
Atom  70F    basis set group =>   3
Atom  71C    basis set group =>   1
Atom  72C    basis set group =>   1
Atom  73C    basis set group =>   1
Atom  74O    basis set group =>   2
Atom  75H    basis set group =>   6
Atom  76H    basis set group =>   6
Atom  77H    basis set group =>   6
Atom  78H    basis set group =>   6
Atom  79H    basis set group =>   6
Atom  80H    basis set group =>   6
Atom  81H    basis set group =>   6
Atom  82H    basis set group =>   6
Atom  83H    basis set group =>   6
Atom  84H    basis set group =>   6
Atom  85H    basis set group =>   6
Atom  86H    basis set group =>   6
Atom  87H    basis set group =>   6
Atom  88H    basis set group =>   6
Atom  89H    basis set group =>   6
Atom  90H    basis set group =>   6
Atom  91H    basis set group =>   6
Atom  92H    basis set group =>   6
Atom  93H    basis set group =>   6
Atom  94H    basis set group =>   6
Atom  95H    basis set group =>   6
Atom  96H    basis set group =>   6
Atom  97H    basis set group =>   6
Atom  98H    basis set group =>   6
Atom  99H    basis set group =>   6
Atom 100H    basis set group =>   6
Atom 101H    basis set group =>   6
Atom 102H    basis set group =>   6
Atom 103H    basis set group =>   6
Atom 104H    basis set group =>   6
Atom 105H    basis set group =>   6
Atom 106H    basis set group =>   6
Atom 107H    basis set group =>   6
Atom 108H    basis set group =>   6
Atom 109H    basis set group =>   6
Atom 110H    basis set group =>   6
Atom 111H    basis set group =>   6
Atom 112H    basis set group =>   6
Atom 113H    basis set group =>   6
Atom 114H    basis set group =>   6
Atom 115H    basis set group =>   6
Atom 116H    basis set group =>   6
---------------------------------
AUXILIARY/J BASIS SET INFORMATION
---------------------------------
There are 6 groups of distinct atoms

 Group   1 Type C   : 12s5p4d2f1g contracted to 6s4p3d1f1g pattern {711111/2111/211/2/1}
 Group   2 Type O   : 12s5p4d2f1g contracted to 6s4p3d1f1g pattern {711111/2111/211/2/1}
 Group   3 Type F   : 12s5p4d2f1g contracted to 6s4p3d1f1g pattern {711111/2111/211/2/1}
 Group   4 Type N   : 12s5p4d2f1g contracted to 6s4p3d1f1g pattern {711111/2111/211/2/1}
 Group   5 Type S   : 14s5p5d2f1g contracted to 8s4p3d1f1g pattern {71111111/2111/311/2/1}
 Group   6 Type H   : 5s2p1d contracted to 3s1p1d pattern {311/2/1}

Atom   0C    basis set group =>   1
Atom   1O    basis set group =>   2
Atom   2C    basis set group =>   1
Atom   3C    basis set group =>   1
Atom   4C    basis set group =>   1
Atom   5F    basis set group =>   3
Atom   6C    basis set group =>   1
Atom   7F    basis set group =>   3
Atom   8C    basis set group =>   1
Atom   9C    basis set group =>   1
Atom  10C    basis set group =>   1
Atom  11C    basis set group =>   1
Atom  12C    basis set group =>   1
Atom  13N    basis set group =>   4
Atom  14C    basis set group =>   1
Atom  15N    basis set group =>   4
Atom  16C    basis set group =>   1
Atom  17C    basis set group =>   1
Atom  18C    basis set group =>   1
Atom  19C    basis set group =>   1
Atom  20C    basis set group =>   1
Atom  21C    basis set group =>   1
Atom  22S    basis set group =>   5
Atom  23C    basis set group =>   1
Atom  24C    basis set group =>   1
Atom  25O    basis set group =>   2
Atom  26C    basis set group =>   1
Atom  27C    basis set group =>   1
Atom  28C    basis set group =>   1
Atom  29C    basis set group =>   1
Atom  30C    basis set group =>   1
Atom  31C    basis set group =>   1
Atom  32C    basis set group =>   1
Atom  33C    basis set group =>   1
Atom  34C    basis set group =>   1
Atom  35C    basis set group =>   1
Atom  36C    basis set group =>   1
Atom  37C    basis set group =>   1
Atom  38C    basis set group =>   1
Atom  39C    basis set group =>   1
Atom  40C    basis set group =>   1
Atom  41C    basis set group =>   1
Atom  42C    basis set group =>   1
Atom  43C    basis set group =>   1
Atom  44C    basis set group =>   1
Atom  45C    basis set group =>   1
Atom  46C    basis set group =>   1
Atom  47C    basis set group =>   1
Atom  48C    basis set group =>   1
Atom  49C    basis set group =>   1
Atom  50C    basis set group =>   1
Atom  51C    basis set group =>   1
Atom  52C    basis set group =>   1
Atom  53O    basis set group =>   2
Atom  54C    basis set group =>   1
Atom  55C    basis set group =>   1
Atom  56S    basis set group =>   5
Atom  57C    basis set group =>   1
Atom  58C    basis set group =>   1
Atom  59C    basis set group =>   1
Atom  60C    basis set group =>   1
Atom  61C    basis set group =>   1
Atom  62N    basis set group =>   4
Atom  63C    basis set group =>   1
Atom  64N    basis set group =>   4
Atom  65C    basis set group =>   1
Atom  66C    basis set group =>   1
Atom  67C    basis set group =>   1
Atom  68F    basis set group =>   3
Atom  69C    basis set group =>   1
Atom  70F    basis set group =>   3
Atom  71C    basis set group =>   1
Atom  72C    basis set group =>   1
Atom  73C    basis set group =>   1
Atom  74O    basis set group =>   2
Atom  75H    basis set group =>   6
Atom  76H    basis set group =>   6
Atom  77H    basis set group =>   6
Atom  78H    basis set group =>   6
Atom  79H    basis set group =>   6
Atom  80H    basis set group =>   6
Atom  81H    basis set group =>   6
Atom  82H    basis set group =>   6
Atom  83H    basis set group =>   6
Atom  84H    basis set group =>   6
Atom  85H    basis set group =>   6
Atom  86H    basis set group =>   6
Atom  87H    basis set group =>   6
Atom  88H    basis set group =>   6
Atom  89H    basis set group =>   6
Atom  90H    basis set group =>   6
Atom  91H    basis set group =>   6
Atom  92H    basis set group =>   6
Atom  93H    basis set group =>   6
Atom  94H    basis set group =>   6
Atom  95H    basis set group =>   6
Atom  96H    basis set group =>   6
Atom  97H    basis set group =>   6
Atom  98H    basis set group =>   6
Atom  99H    basis set group =>   6
Atom 100H    basis set group =>   6
Atom 101H    basis set group =>   6
Atom 102H    basis set group =>   6
Atom 103H    basis set group =>   6
Atom 104H    basis set group =>   6
Atom 105H    basis set group =>   6
Atom 106H    basis set group =>   6
Atom 107H    basis set group =>   6
Atom 108H    basis set group =>   6
Atom 109H    basis set group =>   6
Atom 110H    basis set group =>   6
Atom 111H    basis set group =>   6
Atom 112H    basis set group =>   6
Atom 113H    basis set group =>   6
Atom 114H    basis set group =>   6
Atom 115H    basis set group =>   6
Atom 116H    basis set group =>   6
------------------------------------------------------------------------------
                           ORCA GTO INTEGRAL CALCULATION
                           -- RI-GTO INTEGRALS CHOSEN --
------------------------------------------------------------------------------

                         BASIS SET STATISTICS AND STARTUP INFO

Gaussian basis set:
 # of primitive gaussian shells          ... 1766
 # of primitive gaussian functions       ... 3820
 # of contracted shells                  ...  997
 # of contracted basis functions         ... 2589
 Highest angular momentum                ...    3
 Maximum contraction depth               ...    7
Auxiliary gaussian basis set:
 # of primitive gaussian shells          ... 2142
 # of primitive gaussian functions       ... 5936
 # of contracted shells                  ... 1339
 # of contracted aux-basis functions     ... 4141
 Highest angular momentum                ...    4
 Maximum contraction depth               ...    7
Ratio of auxiliary to basis functions    ...  1.60
Integral package used                  ... LIBINT
 One Electron integrals                  ... done
 Ordering auxiliary basis shells         ... done
 Integral threshhold             Thresh  ...  2.500e-11
 Primitive cut-off               TCut    ...  2.500e-12
 Pre-screening matrix                    ... done
 Shell pair data                         ... 
 Ordering of the shell pairs             ... done (   0.039 sec) 164499 of 497503 pairs
 Determination of significant pairs      ... done (   0.001 sec)
 Creation of shell pair data             ... done (   0.019 sec)
 Storage of shell pair data              ... done (   0.025 sec)
 Shell pair data done in (   0.084 sec)
 Computing two index integrals           ... done
 Cholesky decomposition of the V-matrix  ... done


Timings:
 Total evaluation time                   ...   7.545 sec (  0.126 min)
 One electron matrix time                ...   2.678 sec (  0.045 min) = 35.5%
 Schwartz matrix evaluation time         ...   3.772 sec (  0.063 min) = 50.0%
 Two index repulsion integral time       ...   0.403 sec (  0.007 min) =  5.3%
 Cholesky decomposition of V             ...   0.589 sec (  0.010 min) =  7.8%
 Three index repulsion integral time     ...   0.000 sec (  0.000 min) =  0.0%

-------------------------------------------------------------------------------
                                 ORCA SCF
-------------------------------------------------------------------------------

------------
SCF SETTINGS
------------
Hamiltonian:
 Density Functional     Method          .... DFT(GTOs)
 Exchange Functional    Exchange        .... B88
   X-Alpha parameter    XAlpha          ....  0.666667
   Becke's b parameter  XBeta           ....  0.004200
 Correlation Functional Correlation     .... LYP
 LDA part of GGA corr.  LDAOpt          .... VWN-5
 Gradients option       PostSCFGGA      .... off
 Hybrid DFT is turned on
   Fraction HF Exchange ScalHFX         ....  0.200000
   Scaling of DF-GGA-X  ScalDFX         ....  0.720000
   Scaling of DF-GGA-C  ScalDFC         ....  0.810000
   Scaling of DF-LDA-C  ScalLDAC        ....  1.000000
   Perturbative correction              ....  0.000000
   Density functional embedding theory  .... OFF
   NL short-range parameter             ....  4.800000
 RI-approximation to the Coulomb term is turned on
   Number of auxiliary basis functions  .... 4141
   RIJ-COSX (HFX calculated with COS-X)).... on


General Settings:
 Integral files         IntName         .... FO-2F
 Hartree-Fock type      HFTyp           .... RHF
 Total Charge           Charge          ....    0
 Multiplicity           Mult            ....    1
 Number of Electrons    NEL             ....  536
 Basis Dimension        Dim             .... 2589
 Nuclear Repulsion      ENuc            ....  11203.3254126285 Eh

Convergence Acceleration:
 DIIS                   CNVDIIS         .... on
   Start iteration      DIISMaxIt       ....    12
   Startup error        DIISStart       ....  0.200000
   # of expansion vecs  DIISMaxEq       ....     5
   Bias factor          DIISBfac        ....   1.050
   Max. coefficient     DIISMaxC        ....  10.000
 Newton-Raphson         CNVNR           .... off
 SOSCF                  CNVSOSCF        .... on
   Start iteration      SOSCFMaxIt      ....   150
   Startup grad/error   SOSCFStart      ....  0.003300
 Level Shifting         CNVShift        .... on
   Level shift para.    LevelShift      ....    0.2500
   Turn off err/grad.   ShiftErr        ....    0.0010
 Zerner damping         CNVZerner       .... off
 Static damping         CNVDamp         .... on
   Fraction old density DampFac         ....    0.7000
   Max. Damping (<1)    DampMax         ....    0.9800
   Min. Damping (>=0)   DampMin         ....    0.0000
   Turn off err/grad.   DampErr         ....    0.1000
 Fernandez-Rico         CNVRico         .... off

SCF Procedure:
 Maximum # iterations   MaxIter         ....   125
 SCF integral mode      SCFMode         .... Direct
   Integral package                     .... LIBINT
 Reset frequency        DirectResetFreq ....    20
 Integral Threshold     Thresh          ....  2.500e-11 Eh
 Primitive CutOff       TCut            ....  2.500e-12 Eh

Convergence Tolerance:
 Convergence Check Mode ConvCheckMode   .... Total+1el-Energy
 Convergence forced     ConvForced      .... 1
 Energy Change          TolE            ....  1.000e-08 Eh
 1-El. energy change                    ....  1.000e-05 Eh
 Orbital Gradient       TolG            ....  1.000e-05
 Orbital Rotation angle TolX            ....  1.000e-05
 DIIS Error             TolErr          ....  5.000e-07


Diagonalization of the overlap matrix:
Smallest eigenvalue                        ... 2.136e-06
Time for diagonalization                   ...    4.130 sec
Threshold for overlap eigenvalues          ... 1.000e-08
Number of eigenvalues below threshold      ... 0
Time for construction of square roots      ...    1.256 sec
Total time needed                          ...    5.402 sec

-------------------
DFT GRID GENERATION
-------------------

General Integration Accuracy     IntAcc      ...  4.670
Radial Grid Type                 RadialGrid  ... Gauss-Chebyshev
Angular Grid (max. acc.)         AngularGrid ... Lebedev-302
Angular grid pruning method      GridPruning ... 3 (G Style)
Weight generation scheme         WeightScheme... Becke
Basis function cutoff            BFCut       ...    1.0000e-11
Integration weight cutoff        WCut        ...    1.0000e-14
Grids for H and He will be reduced by one unit

# of grid points (after initial pruning)     ... 609956 (   1.6 sec)
# of grid points (after weights+screening)   ... 513953 (  33.3 sec)
nearest neighbour list constructed           ...    0.0 sec
Grid point re-assignment to atoms done       ...    0.1 sec
Grid point division into batches done        ...    1.8 sec
Reduced shell lists constructed in   17.7 sec

Total number of grid points                  ...   513953
Total number of batches                      ...     8088
Average number of points per batch           ...       63
Average number of grid points per atom       ...     4393
Average number of shells per batch           ...   176.62 (17.71%)
Average number of basis functions per batch  ...   431.33 (16.66%)
Average number of large shells per batch     ...   104.17 (58.98%)
Average number of large basis fcns per batch ...   259.65 (60.20%)
Maximum spatial batch extension              ...  24.86, 20.27, 28.59 au
Average spatial batch extension              ...   2.02,  2.11,  2.17 au

Time for grid setup =   52.619 sec

------------------------------
INITIAL GUESS: MODEL POTENTIAL
------------------------------
Loading Hartree-Fock densities                     ... done
Calculating cut-offs                               ... done
Setting up the integral package                    ... done
Initializing the effective Hamiltonian             ... done
Starting the Coulomb interaction                   ... done (  34.2 sec)
Reading the grid                                   ... done
Mapping shells                                     ... done
Starting the XC term evaluation                    ... done (  28.1 sec)
  promolecular density results
     # of electrons  =    535.979477961
     EX              =   -475.774906195
     EC              =    -18.733698418
     EX+EC           =   -494.508604613
Transforming the Hamiltonian                       ... done (   1.2 sec)
Diagonalizing the Hamiltonian                      ... done (   3.5 sec)
Back transforming the eigenvectors                 ... done (   0.5 sec)
Now organizing SCF variables                       ... done
                      ------------------
                      INITIAL GUESS DONE ( 120.9 sec)
                      ------------------
--------------------
COSX GRID GENERATION
--------------------

General Integration Accuracy     IntAcc      ...  3.340
Radial Grid Type                 RadialGrid  ... Gauss-Chebyshev
Angular Grid (max. acc.)         AngularGrid ... Lebedev-50
Angular grid pruning method      GridPruning ... 3 (G Style)
Weight generation scheme         WeightScheme... Becke
Basis function cutoff            BFCut       ...    1.0000e-11
Integration weight cutoff        WCut        ...    1.0000e-14
Grids for H and He will be reduced by one unit

# of grid points (after initial pruning)     ...  57136 (   0.1 sec)
# of grid points (after weights+screening)   ...  50388 (   3.1 sec)
nearest neighbour list constructed           ...    0.0 sec
Grid point re-assignment to atoms done       ...    0.0 sec
Grid point division into batches done        ...    0.0 sec
Reduced shell lists constructed in    2.4 sec

Total number of grid points                  ...    50388
Total number of batches                      ...      850
Average number of points per batch           ...       59
Average number of grid points per atom       ...      431
Average number of shells per batch           ...   214.57 (21.52%)
Average number of basis functions per batch  ...   529.99 (20.47%)
Average number of large shells per batch     ...   127.86 (59.59%)
Average number of large basis fcns per batch ...   324.15 (61.16%)
Maximum spatial batch extension              ...  21.75, 20.91, 24.03 au
Average spatial batch extension              ...   3.98,  4.39,  4.72 au

Overlap Fitting                  UseSFitting ... on
Constructing numerical overlap ... done (      2.4 sec)
Inverting numerical overlap    ... done (      0.4 sec)
Obtaining analytic overlap     ... done (      0.0 sec)
Final contraction and storage  ... done (      0.6 sec)


General Integration Accuracy     IntAcc      ...  3.670
Radial Grid Type                 RadialGrid  ... Gauss-Chebyshev
Angular Grid (max. acc.)         AngularGrid ... Lebedev-50
Angular grid pruning method      GridPruning ... 3 (G Style)
Weight generation scheme         WeightScheme... Becke
Basis function cutoff            BFCut       ...    1.0000e-11
Integration weight cutoff        WCut        ...    1.0000e-14
Grids for H and He will be reduced by one unit

# of grid points (after initial pruning)     ...  71686 (   0.1 sec)
# of grid points (after weights+screening)   ...  62912 (   3.9 sec)
nearest neighbour list constructed           ...    0.0 sec
Grid point re-assignment to atoms done       ...    0.0 sec
Grid point division into batches done        ...    0.0 sec
Reduced shell lists constructed in    2.9 sec

Total number of grid points                  ...    62912
Total number of batches                      ...     1042
Average number of points per batch           ...       60
Average number of grid points per atom       ...      538
Average number of shells per batch           ...   210.10 (21.07%)
Average number of basis functions per batch  ...   518.43 (20.02%)
Average number of large shells per batch     ...   124.53 (59.27%)
Average number of large basis fcns per batch ...   315.24 (60.81%)
Maximum spatial batch extension              ...  23.70, 22.86, 27.71 au
Average spatial batch extension              ...   3.69,  4.04,  4.37 au

Overlap Fitting                  UseSFitting ... on
Constructing numerical overlap ... done (      2.7 sec)
Inverting numerical overlap    ... done (      0.4 sec)
Obtaining analytic overlap     ... done (      0.0 sec)
Final contraction and storage  ... done (      0.6 sec)


General Integration Accuracy     IntAcc      ...  4.010
Radial Grid Type                 RadialGrid  ... Gauss-Chebyshev
Angular Grid (max. acc.)         AngularGrid ... Lebedev-110
Angular grid pruning method      GridPruning ... 3 (G Style)
Weight generation scheme         WeightScheme... Becke
Basis function cutoff            BFCut       ...    1.0000e-11
Integration weight cutoff        WCut        ...    1.0000e-14
Grids for H and He will be reduced by one unit

# of grid points (after initial pruning)     ... 138212 (   0.2 sec)
# of grid points (after weights+screening)   ... 120363 (   7.5 sec)
nearest neighbour list constructed           ...    0.0 sec
Grid point re-assignment to atoms done       ...    0.0 sec
Grid point division into batches done        ...    0.1 sec
Reduced shell lists constructed in    5.1 sec

Total number of grid points                  ...   120363
Total number of batches                      ...     1942
Average number of points per batch           ...       61
Average number of grid points per atom       ...     1029
Average number of shells per batch           ...   198.82 (19.94%)
Average number of basis functions per batch  ...   489.99 (18.93%)
Average number of large shells per batch     ...   118.43 (59.56%)
Average number of large basis fcns per batch ...   298.97 (61.02%)
Maximum spatial batch extension              ...  24.23, 20.21, 20.61 au
Average spatial batch extension              ...   3.12,  3.41,  3.63 au

Overlap Fitting                  UseSFitting ... on
Constructing numerical overlap ... done (      5.3 sec)
Inverting numerical overlap    ... done (      0.4 sec)
Obtaining analytic overlap     ... done (      0.0 sec)
Final contraction and storage  ... done (      0.6 sec)

Time for X-Grid setup             =   38.800 sec
--------------
SCF ITERATIONS
--------------
ITER       Energy         Delta-E        Max-DP      RMS-DP      [F,P]     Damp
               ***  Starting incremental Fock matrix formation  ***
  0  -4062.6518929199   0.000000000000 0.19064841  0.00090915  0.3073946 0.7000
  1  -4063.5903524556  -0.938459535746 0.17760288  0.00073697  0.1045022 0.7000
                               ***Turning on DIIS***
  2  -4063.9291433112  -0.338790855580 0.20882597  0.00108114  0.0496507 0.0000
  3  -4064.4956084816  -0.566465170385 0.17177737  0.00064464  0.0575139 0.0000
  4  -4064.6119841135  -0.116375631982 0.04983195  0.00018582  0.0393300 0.0000
  5  -4064.6257995734  -0.013815459801 0.02068432  0.00009232  0.0120546 0.0000
                      *** Initiating the SOSCF procedure ***
                           *** Shutting down DIIS ***
                      *** Re-Reading the Fockian *** 
                      *** Removing any level shift *** 
ITER      Energy       Delta-E        Grad      Rot      Max-DP    RMS-DP
  6  -4064.62689367  -0.0010940952  0.000851  0.000851  0.006578  0.000032
               *** Restarting incremental Fock matrix formation ***
  7  -4064.62700305  -0.0001093841  0.000581  0.006865  0.018123  0.000083
  8  -4064.62700748  -0.0000044299  0.000324  0.001901  0.008758  0.000033
  9  -4064.62703249  -0.0000250062  0.000155  0.001841  0.008503  0.000033
 10  -4064.62703154   0.0000009538  0.000171  0.000591  0.002690  0.000008
 11  -4064.62703713  -0.0000055901  0.000122  0.001499  0.002684  0.000014
 12  -4064.62703605   0.0000010713  0.000123  0.000502  0.000448  0.000002
 13  -4064.62703834  -0.0000022905  0.000018  0.000377  0.000823  0.000005
 14  -4064.62703828   0.0000000627  0.000033  0.000187  0.000467  0.000001
 15  -4064.62703852  -0.0000002363  0.000007  0.000042  0.001223  0.000003
 16  -4064.62703838   0.0000001375  0.000008  0.000021  0.000574  0.000001
 17  -4064.62703848  -0.0000000971  0.000003  0.000042  0.001238  0.000002
 18  -4064.62703868  -0.0000001976  0.000004  0.000017  0.000903  0.000001
                  ***Gradient check signals convergence***
              ***Rediagonalizing the Fockian in SOSCF/NRSCF***

               *****************************************************
               *                     SUCCESS                       *
               *           SCF CONVERGED AFTER  19 CYCLES          *
               *****************************************************

Setting up the final grid:

General Integration Accuracy     IntAcc      ...  5.010
Radial Grid Type                 RadialGrid  ... Gauss-Chebyshev
Angular Grid (max. acc.)         AngularGrid ... Lebedev-434
Angular grid pruning method      GridPruning ... 3 (G Style)
Weight generation scheme         WeightScheme... Becke
Basis function cutoff            BFCut       ...    1.0000e-11
Integration weight cutoff        WCut        ...    1.0000e-14
Grids for H and He will be reduced by one unit

# of grid points (after initial pruning)     ... 1086122 (   2.0 sec)
# of grid points (after weights+screening)   ... 912022 (  59.5 sec)
nearest neighbour list constructed           ...    0.0 sec
Grid point re-assignment to atoms done       ...    0.1 sec
Grid point division into batches done        ...    5.8 sec
Reduced shell lists constructed in   33.4 sec

Total number of grid points                  ...   912022
Total number of batches                      ...    14308
Average number of points per batch           ...       63
Average number of grid points per atom       ...     7795
Average number of shells per batch           ...   170.45 (17.10%)
Average number of basis functions per batch  ...   414.53 (16.01%)
Average number of large shells per batch     ...   100.30 (58.84%)
Average number of large basis fcns per batch ...   248.98 (60.06%)
Maximum spatial batch extension              ...  21.21, 21.60, 23.74 au
Average spatial batch extension              ...   1.65,  1.70,  1.75 au

Final grid set up in   94.9 sec
Final integration                            ... done (  73.9 sec)
Change in XC energy                          ...     0.000032531
Integrated number of electrons               ...   535.999964167
Previous integrated no of electrons          ...   536.000081508
Old exchange energy                            =    -96.294353632 Eh
New exchange energy                            =    -96.294706914 Eh
Exchange energy change after final integration =     -0.000353282 Eh
Total energy after final integration           =  -4064.627359227 Eh
Final COS-X integration done in                =  1886.359 sec

----------------
TOTAL SCF ENERGY
----------------

Total Energy       :        -4064.62735923 Eh         -110604.13345 eV

Components:
Nuclear Repulsion  :        11203.32541263 Eh          304857.98316 eV
Electronic Energy  :       -15267.95277186 Eh         -415462.11661 eV
One Electron Energy:       -27869.37129769 Eh         -758364.14750 eV
Two Electron Energy:        12601.41852583 Eh          342902.03089 eV

Virial components:
Potential Energy   :        -8115.33792857 Eh         -220829.57179 eV
Kinetic Energy     :         4050.71056934 Eh          110225.43834 eV
Virial Ratio       :            2.00343564


DFT components:
N(Alpha)           :      267.999982083514 electrons
N(Beta)            :      267.999982083514 electrons
N(Total)           :      535.999964167028 electrons
E(X)               :     -382.785806856714 Eh       
E(C)               :      -22.016699170065 Eh       
E(XC)              :     -404.802506026779 Eh       
DFET-embed. en.    :        0.000000000000 Eh       

---------------
SCF CONVERGENCE
---------------

  Last Energy change         ...    1.9867e-07  Tolerance :   1.0000e-08
  Last MAX-Density change    ...    3.3307e-15  Tolerance :   1.0000e-07
  Last RMS-Density change    ...    1.0984e-17  Tolerance :   5.0000e-09
  Last Orbital Gradient      ...    1.7647e-06  Tolerance :   1.0000e-05
  Last Orbital Rotation      ...    1.3953e-05  Tolerance :   1.0000e-05

             **** THE GBW FILE WAS UPDATED (FO-2F.gbw) ****
             **** DENSITY FILE WAS UPDATED (FO-2F.scfp) ****
             **** ENERGY FILE WAS UPDATED (FO-2F.en.tmp) ****
             **** THE GBW FILE WAS UPDATED (FO-2F.gbw) ****
             **** DENSITY FILE WAS UPDATED (FO-2F.scfp) ****
----------------
ORBITAL ENERGIES
----------------

  NO   OCC          E(Eh)            E(eV) 
   0   2.0000     -88.911406     -2419.4024 
   1   2.0000     -88.910703     -2419.3832 
   2   2.0000     -24.725581      -672.8173 
   3   2.0000     -24.725334      -672.8106 
   4   2.0000     -24.724964      -672.8005 
   5   2.0000     -24.723049      -672.7484 
   6   2.0000     -19.181736      -521.9616 
   7   2.0000     -19.180970      -521.9407 
   8   2.0000     -19.136134      -520.7207 
   9   2.0000     -19.132833      -520.6309 
  10   2.0000     -14.330932      -389.9645 
  11   2.0000     -14.330151      -389.9432 
  12   2.0000     -14.328605      -389.9012 
  13   2.0000     -14.326477      -389.8433 
  14   2.0000     -10.301495      -280.3179 
  15   2.0000     -10.300499      -280.2908 
  16   2.0000     -10.299665      -280.2681 
  17   2.0000     -10.299000      -280.2500 
  18   2.0000     -10.282112      -279.7905 
  19   2.0000     -10.278928      -279.7039 
  20   2.0000     -10.265713      -279.3442 
  21   2.0000     -10.265324      -279.3337 
  22   2.0000     -10.264679      -279.3161 
  23   2.0000     -10.264651      -279.3154 
  24   2.0000     -10.258537      -279.1490 
  25   2.0000     -10.256893      -279.1043 
  26   2.0000     -10.256444      -279.0920 
  27   2.0000     -10.255128      -279.0562 
  28   2.0000     -10.242437      -278.7109 
  29   2.0000     -10.241094      -278.6743 
  30   2.0000     -10.237193      -278.5682 
  31   2.0000     -10.237052      -278.5644 
  32   2.0000     -10.232053      -278.4283 
  33   2.0000     -10.232045      -278.4281 
  34   2.0000     -10.231646      -278.4172 
  35   2.0000     -10.229171      -278.3499 
  36   2.0000     -10.228977      -278.3446 
  37   2.0000     -10.228832      -278.3407 
  38   2.0000     -10.226621      -278.2805 
  39   2.0000     -10.225323      -278.2452 
  40   2.0000     -10.221422      -278.1390 
  41   2.0000     -10.221359      -278.1373 
  42   2.0000     -10.219828      -278.0957 
  43   2.0000     -10.218658      -278.0638 
  44   2.0000     -10.218181      -278.0508 
  45   2.0000     -10.216004      -277.9916 
  46   2.0000     -10.215407      -277.9754 
  47   2.0000     -10.215222      -277.9703 
  48   2.0000     -10.214813      -277.9592 
  49   2.0000     -10.214693      -277.9559 
  50   2.0000     -10.212822      -277.9050 
  51   2.0000     -10.209764      -277.8218 
  52   2.0000     -10.208979      -277.8004 
  53   2.0000     -10.206835      -277.7421 
  54   2.0000     -10.205731      -277.7121 
  55   2.0000     -10.205367      -277.7022 
  56   2.0000     -10.203979      -277.6644 
  57   2.0000     -10.202485      -277.6237 
  58   2.0000     -10.201900      -277.6078 
  59   2.0000     -10.196070      -277.4492 
  60   2.0000     -10.195357      -277.4298 
  61   2.0000     -10.195336      -277.4292 
  62   2.0000     -10.194945      -277.4185 
  63   2.0000     -10.188584      -277.2455 
  64   2.0000     -10.186845      -277.1981 
  65   2.0000     -10.185201      -277.1534 
  66   2.0000     -10.184469      -277.1335 
  67   2.0000     -10.183861      -277.1170 
  68   2.0000     -10.181510      -277.0530 
  69   2.0000     -10.170389      -276.7503 
  70   2.0000     -10.169931      -276.7379 
  71   2.0000     -10.168475      -276.6983 
  72   2.0000     -10.167703      -276.6773 
  73   2.0000     -10.166517      -276.6450 
  74   2.0000     -10.162406      -276.5331 
  75   2.0000      -7.988040      -217.3656 
  76   2.0000      -7.987797      -217.3590 
  77   2.0000      -5.950309      -161.9161 
  78   2.0000      -5.950139      -161.9115 
  79   2.0000      -5.946730      -161.8188 
  80   2.0000      -5.946477      -161.8119 
  81   2.0000      -5.944847      -161.7675 
  82   2.0000      -5.944430      -161.7562 
  83   2.0000      -1.268807       -34.5260 
  84   2.0000      -1.267247       -34.4835 
  85   2.0000      -1.255423       -34.1618 
  86   2.0000      -1.253858       -34.1192 
  87   2.0000      -1.102237       -29.9934 
  88   2.0000      -1.101417       -29.9711 
  89   2.0000      -1.067042       -29.0357 
  90   2.0000      -1.063807       -28.9477 
  91   2.0000      -0.947481       -25.7823 
  92   2.0000      -0.945589       -25.7308 
  93   2.0000      -0.929745       -25.2996 
  94   2.0000      -0.928084       -25.2545 
  95   2.0000      -0.927620       -25.2418 
  96   2.0000      -0.926585       -25.2137 
  97   2.0000      -0.924289       -25.1512 
  98   2.0000      -0.923238       -25.1226 
  99   2.0000      -0.920471       -25.0473 
 100   2.0000      -0.885663       -24.1001 
 101   2.0000      -0.882245       -24.0071 
 102   2.0000      -0.880552       -23.9610 
 103   2.0000      -0.860810       -23.4238 
 104   2.0000      -0.846989       -23.0477 
 105   2.0000      -0.844869       -22.9901 
 106   2.0000      -0.830641       -22.6029 
 107   2.0000      -0.828778       -22.5522 
 108   2.0000      -0.826101       -22.4793 
 109   2.0000      -0.817660       -22.2497 
 110   2.0000      -0.804516       -21.8920 
 111   2.0000      -0.802154       -21.8277 
 112   2.0000      -0.800087       -21.7715 
 113   2.0000      -0.788988       -21.4694 
 114   2.0000      -0.776881       -21.1400 
 115   2.0000      -0.775432       -21.1006 
 116   2.0000      -0.774839       -21.0844 
 117   2.0000      -0.774689       -21.0804 
 118   2.0000      -0.769170       -20.9302 
 119   2.0000      -0.766544       -20.8587 
 120   2.0000      -0.764317       -20.7981 
 121   2.0000      -0.759037       -20.6544 
 122   2.0000      -0.739780       -20.1304 
 123   2.0000      -0.724833       -19.7237 
 124   2.0000      -0.717048       -19.5119 
 125   2.0000      -0.711242       -19.3539 
 126   2.0000      -0.702534       -19.1169 
 127   2.0000      -0.701995       -19.1023 
 128   2.0000      -0.688796       -18.7431 
 129   2.0000      -0.684671       -18.6308 
 130   2.0000      -0.676123       -18.3982 
 131   2.0000      -0.659727       -17.9521 
 132   2.0000      -0.651486       -17.7278 
 133   2.0000      -0.649551       -17.6752 
 134   2.0000      -0.645867       -17.5749 
 135   2.0000      -0.640997       -17.4424 
 136   2.0000      -0.638423       -17.3724 
 137   2.0000      -0.633838       -17.2476 
 138   2.0000      -0.630019       -17.1437 
 139   2.0000      -0.626330       -17.0433 
 140   2.0000      -0.623986       -16.9795 
 141   2.0000      -0.618669       -16.8349 
 142   2.0000      -0.617411       -16.8006 
 143   2.0000      -0.611500       -16.6397 
 144   2.0000      -0.603526       -16.4228 
 145   2.0000      -0.597578       -16.2609 
 146   2.0000      -0.593478       -16.1494 
 147   2.0000      -0.588776       -16.0214 
 148   2.0000      -0.580119       -15.7858 
 149   2.0000      -0.577679       -15.7194 
[...]
   261a -> 270a  :     0.015741 (c=  0.12546221)
   261a -> 271a  :     0.031142 (c=  0.17647114)
   262a -> 270a  :     0.028511 (c=  0.16885311)
   263a -> 270a  :     0.022711 (c= -0.15070278)
   263a -> 271a  :     0.014144 (c= -0.11892800)
   264a -> 272a  :     0.081986 (c= -0.28633146)
   266a -> 273a  :     0.068320 (c= -0.26138071)
   267a -> 274a  :     0.156058 (c=  0.39504182)
   267a -> 275a  :     0.383528 (c= -0.61929611)

STATE 46:  E=   0.155076 au      4.220 eV    34035.3 cm**-1
   254a -> 268a  :     0.015940 (c=  0.12625352)
   255a -> 268a  :     0.013833 (c= -0.11761453)
   257a -> 270a  :     0.099630 (c= -0.31564259)
   257a -> 271a  :     0.074658 (c=  0.27323552)
   258a -> 270a  :     0.161320 (c= -0.40164669)
   258a -> 271a  :     0.051542 (c= -0.22702759)
   259a -> 270a  :     0.029355 (c=  0.17133192)
   260a -> 271a  :     0.031122 (c=  0.17641463)
   261a -> 271a  :     0.130367 (c=  0.36106372)
   262a -> 271a  :     0.163305 (c=  0.40410994)
   263a -> 271a  :     0.038596 (c= -0.19645950)
   266a -> 273a  :     0.016846 (c=  0.12979216)
   267a -> 274a  :     0.044908 (c= -0.21191459)
   267a -> 275a  :     0.047051 (c=  0.21691132)

STATE 47:  E=   0.155787 au      4.239 eV    34191.2 cm**-1
   254a -> 268a  :     0.083568 (c=  0.28908126)
   254a -> 269a  :     0.015980 (c= -0.12641018)
   255a -> 268a  :     0.061643 (c= -0.24828008)
   256a -> 269a  :     0.414618 (c= -0.64390807)
   257a -> 270a  :     0.087390 (c= -0.29561766)
   258a -> 271a  :     0.031024 (c=  0.17613618)
   259a -> 270a  :     0.013129 (c=  0.11458097)
   260a -> 271a  :     0.010392 (c= -0.10194145)
   262a -> 271a  :     0.051221 (c= -0.22632087)
   265a -> 272a  :     0.013099 (c= -0.11444878)
   266a -> 273a  :     0.012994 (c=  0.11399233)
   267a -> 274a  :     0.089573 (c=  0.29928665)

STATE 48:  E=   0.157041 au      4.273 eV    34466.5 cm**-1
   254a -> 268a  :     0.072699 (c=  0.26962769)
   255a -> 268a  :     0.039263 (c= -0.19814936)
   256a -> 269a  :     0.040301 (c= -0.20075086)
   257a -> 270a  :     0.254344 (c=  0.50432578)
   258a -> 270a  :     0.021201 (c=  0.14560602)
   258a -> 271a  :     0.075115 (c= -0.27407107)
   259a -> 270a  :     0.026086 (c= -0.16151186)
   261a -> 270a  :     0.138021 (c= -0.37151227)
   261a -> 271a  :     0.059040 (c=  0.24298181)
   262a -> 270a  :     0.070851 (c=  0.26617875)
   263a -> 270a  :     0.012623 (c= -0.11235423)
   266a -> 273a  :     0.031022 (c=  0.17612929)
   267a -> 274a  :     0.022225 (c= -0.14907967)
   267a -> 276a  :     0.018116 (c= -0.13459580)

STATE 49:  E=   0.158609 au      4.316 eV    34810.6 cm**-1
   253a -> 268a  :     0.019587 (c=  0.13995448)
   254a -> 268a  :     0.024100 (c= -0.15524024)
   254a -> 269a  :     0.046138 (c= -0.21479800)
   255a -> 269a  :     0.065555 (c=  0.25603719)
   256a -> 268a  :     0.026171 (c=  0.16177314)
   256a -> 269a  :     0.025220 (c=  0.15880742)
   258a -> 270a  :     0.010071 (c= -0.10035387)
   258a -> 271a  :     0.014688 (c= -0.12119604)
   261a -> 270a  :     0.015462 (c= -0.12434581)
   261a -> 271a  :     0.025344 (c= -0.15919763)
   262a -> 270a  :     0.013929 (c= -0.11801979)
   264a -> 272a  :     0.011246 (c= -0.10604695)
   265a -> 272a  :     0.015549 (c=  0.12469649)
   266a -> 273a  :     0.541449 (c=  0.73583244)
   267a -> 274a  :     0.046027 (c=  0.21453963)
   267a -> 275a  :     0.029019 (c= -0.17034969)

STATE 50:  E=   0.159625 au      4.344 eV    35033.5 cm**-1
   254a -> 268a  :     0.015303 (c= -0.12370499)
   255a -> 268a  :     0.026705 (c= -0.16341639)
   255a -> 269a  :     0.034159 (c=  0.18482288)
   256a -> 269a  :     0.039636 (c= -0.19908859)
   257a -> 270a  :     0.017692 (c=  0.13301006)
   257a -> 271a  :     0.039167 (c=  0.19790705)
   258a -> 270a  :     0.056476 (c= -0.23764683)
   258a -> 271a  :     0.156714 (c= -0.39587096)
   261a -> 271a  :     0.192163 (c= -0.43836400)
   262a -> 270a  :     0.028066 (c= -0.16752808)
   262a -> 271a  :     0.069136 (c= -0.26293784)
   265a -> 272a  :     0.083460 (c=  0.28889411)
   266a -> 273a  :     0.088637 (c= -0.29772019)
   267a -> 274a  :     0.034824 (c= -0.18661300)
   267a -> 275a  :     0.015163 (c=  0.12313651)


-----------------------------
TD-DFT/TDA-EXCITATION SPECTRA
-----------------------------

Center of mass = ( 18.7124,  4.4277, -7.0586)
Calculating the Dipole integrals                  ... done
Transforming integrals                            ... done
Calculating the Linear Momentum integrals         ... done
Transforming integrals                            ... done
Calculating angular momentum integrals            ... done
Transforming integrals                            ... done

-----------------------------------------------------------------------------
         ABSORPTION SPECTRUM VIA TRANSITION ELECTRIC DIPOLE MOMENTS
-----------------------------------------------------------------------------
State   Energy    Wavelength  fosc         T2        TX        TY        TZ  
        (cm-1)      (nm)                 (au**2)    (au)      (au)      (au) 
-----------------------------------------------------------------------------
   1   14893.7    671.4   1.728915004  38.21614   3.28236   3.56992  -3.83379
   2   17049.7    586.5   0.182285158   3.51974   1.72995   0.58227  -0.43357
   3   19035.7    525.3   0.282541062   4.88638  -2.19425  -0.08611  -0.25342
   4   19916.7    502.1   0.278800014   4.60840   1.06120   1.35251  -1.28567
   5   20587.1    485.7   0.166175573   2.65735  -0.87849  -1.01298   0.92708
   6   21255.7    470.5   0.235479881   3.64715  -1.90453   0.00237  -0.14109
   7   23328.1    428.7   0.059939307   0.84588   0.54737  -0.22976   0.70247
   8   23919.9    418.1   0.096638064   1.33004   0.98560   0.43375  -0.41291
   9   24132.7    414.4   0.155631134   2.12308  -1.31251  -0.53619   0.33601
  10   24579.6    406.8   0.028427026   0.38074  -0.45073  -0.23383   0.35059
  11   25409.8    393.5   0.141132072   1.82852  -0.56954  -0.95032   0.77527
  12   25503.7    392.1   0.042404926   0.54738   0.36979  -0.56749   0.29764
  13   25806.1    387.5   0.057158256   0.72917  -0.83690  -0.15605   0.06651
  14   26006.8    384.5   0.031669986   0.40090  -0.50404  -0.30814   0.22779
  15   26154.7    382.3   0.009104280   0.11460   0.33176  -0.06247  -0.02514
  16   26837.7    372.6   0.036608177   0.44906   0.61111  -0.07919  -0.26332
  17   26939.9    371.2   0.123392641   1.50789  -0.39855  -0.94608   0.67378
  18   27415.3    364.8   0.047911502   0.57534  -0.06287   0.54010  -0.52884
  19   27870.1    358.8   0.026269687   0.31031  -0.11378  -0.49154   0.23612
  20   27891.8    358.5   0.019990195   0.23595  -0.02962   0.45918  -0.15564
  21   28251.9    354.0   0.015545836   0.18115   0.31146   0.06216   0.28334
  22   28659.2    348.9   0.008421912   0.09674   0.13405  -0.26584  -0.09003
  23   29045.4    344.3   0.003103920   0.03518   0.02453   0.15661  -0.10027
  24   29246.7    341.9   0.018950212   0.21331  -0.44769  -0.11256  -0.01474
  25   29601.1    337.8   0.127043512   1.41293  -0.51356  -0.84908   0.65440
  26   29971.7    333.6   0.024860993   0.27308   0.48890  -0.16947   0.07305
  27   30222.2    330.9   0.017731479   0.19315   0.16167  -0.37173   0.16979
  28   30564.4    327.2   0.006865885   0.07395   0.26443   0.03822  -0.05067
  29   30712.1    325.6   0.009569143   0.10257   0.31743   0.01889   0.03814
  30   30808.6    324.6   0.005615467   0.06001  -0.23920  -0.02388   0.04709
  31   30964.1    323.0   0.005765621   0.06130   0.20100  -0.10284   0.10160
  32   31098.7    321.6   0.001409537   0.01492  -0.09369  -0.06216   0.04776
  33   31330.7    319.2   0.003417529   0.03591  -0.10824   0.14844  -0.04648
  34   31468.7    317.8   0.010970146   0.11477  -0.00011   0.33347  -0.05968
  35   31490.6    317.6   0.014030202   0.14668  -0.05579   0.36403  -0.10511
  36   31787.2    314.6   0.026168540   0.27102  -0.06353  -0.39726   0.33040
  37   32007.1    312.4   0.007500452   0.07715   0.16316   0.22417  -0.01656
  38   32575.0    307.0   0.001659962   0.01678  -0.04937  -0.11701  -0.02547
  39   32632.7    306.4   0.004644894   0.04686  -0.00082  -0.21518   0.02356
  40   33359.3    299.8   0.107298398   1.05889  -0.58872  -0.81654   0.21346
  41   33383.5    299.5   0.319136065   3.14716   0.74242  -1.22738   1.04380
  42   33508.9    298.4   0.329847803   3.24063   0.60862   1.69054  -0.11089
  43   33624.0    297.4   0.263878083   2.58363   0.52310  -1.23659   0.88365
  44   33780.6    296.0   0.023955471   0.23346   0.09444  -0.36485   0.30237
  45   33922.9    294.8   0.011725237   0.11379   0.23707  -0.20565   0.12368
  46   34035.3    293.8   0.003624133   0.03506   0.03543   0.17816  -0.04537
  47   34191.2    292.5   0.005676543   0.05466  -0.08806  -0.15477   0.15149
  48   34466.5    290.1   0.035492792   0.33901  -0.04180  -0.47475   0.33449
  49   34810.6    287.3   0.027170084   0.25695  -0.44030  -0.23186   0.09661
  50   35033.5    285.4   0.034559847   0.32476   0.26083  -0.50649   0.01399

-----------------------------------------------------------------------------
         ABSORPTION SPECTRUM VIA TRANSITION VELOCITY DIPOLE MOMENTS
-----------------------------------------------------------------------------
State   Energy    Wavelength   fosc        P2         PX        PY        PZ  
        (cm-1)      (nm)                 (au**2)     (au)      (au)      (au) 
-----------------------------------------------------------------------------
   1   14893.7    671.4   0.431618850   0.04393  -0.11631  -0.13559   0.10965
   2   17049.7    586.5   0.041044468   0.00478  -0.01725  -0.03973   0.05391
   3   19035.7    525.3   0.045933918   0.00598  -0.01744   0.03169  -0.06832
   4   19916.7    502.1   0.043807339   0.00596  -0.04778  -0.03902   0.04645
   5   20587.1    485.7   0.061394238   0.00864   0.03895   0.06640  -0.05208
   6   21255.7    470.5   0.056651071   0.00823   0.05754   0.05032  -0.04886
   7   23328.1    428.7   0.059020879   0.00941   0.00624   0.08357  -0.04886
   8   23919.9    418.1   0.078563416   0.01284  -0.09478  -0.03929   0.04814
   9   24132.7    414.4   0.095893177   0.01582   0.10855   0.03687  -0.05171
  10   24579.6    406.8   0.017186130   0.00289   0.04067   0.03311  -0.01171
  11   25409.8    393.5   0.061658413   0.01071   0.05824   0.05420  -0.06616
  12   25503.7    392.1   0.016967901   0.00296  -0.04577   0.00536  -0.02889
  13   25806.1    387.5   0.020492465   0.00361   0.05132   0.01873  -0.02509
  14   26006.8    384.5   0.025620340   0.00455   0.05753   0.00957  -0.03395
  15   26154.7    382.3   0.000400683   0.00007  -0.00826  -0.00181  -0.00018
  16   26837.7    372.6   0.000657414   0.00012  -0.00636  -0.00830   0.00334
  17   26939.9    371.2   0.010175792   0.00187   0.01430   0.02424  -0.03289
  18   27415.3    364.8   0.022124831   0.00415  -0.04195  -0.00965   0.04788
  19   27870.1    358.8   0.005005201   0.00095  -0.01292   0.00803  -0.02687
  20   27891.8    358.5   0.007393523   0.00141   0.02486  -0.01022   0.02621
  21   28251.9    354.0   0.003638602   0.00070   0.00890   0.01482  -0.02009
  22   28659.2    348.9   0.002345687   0.00046   0.01475  -0.01165   0.01030
  23   29045.4    344.3   0.002601042   0.00052  -0.01439  -0.00199   0.01748
  24   29246.7    341.9   0.058958004   0.01178  -0.06918   0.04919  -0.06767
  25   29601.1    337.8   0.011616905   0.00235   0.03887   0.01906  -0.02182
  26   29971.7    333.6   0.008343137   0.00171  -0.03764   0.00811  -0.01506
  27   30222.2    330.9   0.037923305   0.00783   0.06424   0.04904  -0.03608
  28   30564.4    327.2   0.002763162   0.00058   0.02316   0.00360   0.00527
  29   30712.1    325.6   0.000962491   0.00020  -0.01213   0.00695  -0.00257
  30   30808.6    324.6   0.006238204   0.00131   0.02882  -0.01578   0.01530
  31   30964.1    323.0   0.003358466   0.00071  -0.02134   0.00778  -0.01395
  32   31098.7    321.6   0.000535489   0.00011   0.00907  -0.00446   0.00342
  33   31330.7    319.2   0.004104152   0.00088   0.01053  -0.01819   0.02091
  34   31468.7    317.8   0.001845577   0.00040  -0.01652  -0.00599   0.00938
  35   31490.6    317.6   0.007731490   0.00166  -0.02606  -0.02118   0.02315
  36   31787.2    314.6   0.020788262   0.00452   0.02189   0.04645  -0.04335
  37   32007.1    312.4   0.005419109   0.00119  -0.03191  -0.00303   0.01258
  38   32575.0    307.0   0.002135302   0.00048   0.00853   0.01655  -0.01135
  39   32632.7    306.4   0.001922162   0.00043  -0.00775  -0.01457  -0.01250
  40   33359.3    299.8   0.004853173   0.00111   0.02562  -0.01961  -0.00810
  41   33383.5    299.5   0.013705622   0.00313   0.05121   0.00997   0.02014
  42   33508.9    298.4   0.075934905   0.01739   0.08817  -0.04919   0.08483
  43   33624.0    297.4   0.009162202   0.00211   0.04339  -0.00001  -0.01491
  44   33780.6    296.0   0.005042437   0.00116   0.01756  -0.01776   0.02324
  45   33922.9    294.8   0.009150861   0.00212  -0.00149  -0.03488   0.03005
  46   34035.3    293.8   0.013463067   0.00313   0.05438  -0.01244   0.00442
  47   34191.2    292.5   0.006789776   0.00159   0.01781  -0.02220   0.02787
  48   34466.5    290.1   0.011078376   0.00261   0.04789   0.01261  -0.01254
  49   34810.6    287.3   0.005440985   0.00129  -0.00950   0.02931  -0.01858
  50   35033.5    285.4   0.009844016   0.00236   0.00004   0.02847  -0.03932

-------------------------------------------------------------------
                             CD SPECTRUM
-------------------------------------------------------------------
State  Energy     Wavelength     R         MX        MY        MZ   
       (cm-1)       (nm)     (1e40*cgs)   (au)      (au)      (au)  
-------------------------------------------------------------------
   1   14893.7    671.4     -8.84698   0.02455   0.45067   0.44557
   2   17049.7    586.5     -9.96724  -0.02830   0.04454  -0.00432
   3   19035.7    525.3    -119.81701   0.10348  -0.00983   0.11024
   4   19916.7    502.1    -16.57860  -0.09848   0.61823   0.59644
   5   20587.1    485.7    -24.63487   0.02578  -0.17175  -0.21960
   6   21255.7    470.5    -42.32362   0.02568   0.15978   0.29227
   7   23328.1    428.7    -165.45413  -0.16354  -0.44504  -0.51772
   8   23919.9    418.1     28.45213   0.02454   0.23758   0.16199
   9   24132.7    414.4    -14.04841   0.10087  -0.24183  -0.08056
  10   24579.6    406.8     -6.02780  -0.04155  -0.21097  -0.23060
  11   25409.8    393.5     10.00931   0.10099  -0.46782  -0.47188
  12   25503.7    392.1     19.94917   0.10733  -0.12781  -0.23485
  13   25806.1    387.5    -16.48018   0.05983  -0.09361   0.00766
  14   26006.8    384.5     39.05239  -0.17070   0.01331   0.00393
  15   26154.7    382.3     10.11754   0.08799   0.05635   0.16750
  16   26837.7    372.6     10.56594   0.01634  -0.01979  -0.04125
  17   26939.9    371.2    -20.99079   0.05434   0.10555   0.11427
  18   27415.3    364.8     24.66023  -0.09682  -0.03669  -0.12487
  19   27870.1    358.8     22.34376   0.03856  -0.15213  -0.09738
  20   27891.8    358.5     16.68119   0.23128   0.13452   0.12551
  21   28251.9    354.0     42.91663   0.06047   0.21938   0.20668
  22   28659.2    348.9      7.89160   0.00308  -0.05218  -0.02725
  23   29045.4    344.3     -1.68015   0.01892  -0.17338  -0.23063
  24   29246.7    341.9     -1.34820  -0.02798   0.12948   0.05494
  25   29601.1    337.8     39.06331   0.01860  -0.43312  -0.42076
  26   29971.7    333.6     -2.02454  -0.02085  -0.11087  -0.17648
  27   30222.2    330.9     30.16000   0.00244  -0.37653  -0.44991
  28   30564.4    327.2      1.96780  -0.00079  -0.12432  -0.18027
  29   30712.1    325.6     -2.54669   0.01087  -0.13746  -0.16395
  30   30808.6    324.6     -1.88706   0.01840  -0.07912  -0.03167
  31   30964.1    323.0     -2.50500  -0.00944   0.07491   0.04220
  32   31098.7    321.6      1.80618  -0.01732  -0.11508  -0.10354
  33   31330.7    319.2     -5.03512   0.03301  -0.04540   0.00791
  34   31468.7    317.8     31.20764   0.02380   0.23897   0.22612
  35   31490.6    317.6     10.06249   0.03343   0.11885   0.19081
  36   31787.2    314.6     -5.76319  -0.00100   0.04598   0.01810
  37   32007.1    312.4     10.88056   0.03471   0.08067   0.04033
  38   32575.0    307.0      3.08360  -0.02270  -0.02820  -0.08329
  39   32632.7    306.4      5.73656   0.03697  -0.03842   0.16682
  40   33359.3    299.8     60.40551   0.05485  -0.19782  -0.00517
  41   33383.5    299.5      1.57126  -0.01550  -0.22473  -0.25004
  42   33508.9    298.4    463.66528   0.07401   0.58348   0.43235
  43   33624.0    297.4     59.46762  -0.00451  -0.05163   0.07317
  44   33780.6    296.0      7.52938   0.02678  -0.01727   0.02361
  45   33922.9    294.8     -4.25229   0.03213   0.26456   0.30538
  46   34035.3    293.8     -6.55720   0.06105  -0.10280  -0.04943
  47   34191.2    292.5      4.49073   0.00139  -0.13469  -0.07392
  48   34466.5    290.1     12.18794   0.05777  -0.09195  -0.04600
  49   34810.6    287.3     -7.98565  -0.00254   0.07127  -0.01585
  50   35033.5    285.4     69.28865  -0.04420  -0.32273  -0.35457

Total run time:   141703.352 sec

           *** ORCA-CIS/TD-DFT FINISHED WITHOUT ERROR ***

-----------------------
CIS/TD-DFT TOTAL ENERGY
-----------------------

    E(SCF)  =  -4064.627359227 Eh
    DE(CIS) =      0.067860667 Eh (Root  1)
    ----------------------------- ---------
    E(tot)  =  -4064.559498560 Eh


-------------------------   --------------------
FINAL SINGLE POINT ENERGY     -4064.559498560403
-------------------------   --------------------


                            ***************************************
                            *     ORCA property calculations      *
                            ***************************************

                                    ---------------------
                                    Active property flags
                                    ---------------------
   (+) Dipole Moment


------------------------------------------------------------------------------
                       ORCA ELECTRIC PROPERTIES CALCULATION
------------------------------------------------------------------------------

Dipole Moment Calculation                       ... on
Quadrupole Moment Calculation                   ... off
Polarizability Calculation                      ... off
GBWName                                         ... FO-2F.gbw
Electron density file                           ... FO-2F.scfp
The origin for moment calculation is the CENTER OF MASS  = (18.712425,  4.427676 -7.058557)

-------------
DIPOLE MOMENT
-------------
                                X             Y             Z
Electronic contribution:    -78.50283      26.56649     -21.81309
Nuclear contribution   :     82.58952     -26.96152      23.79734
                        -----------------------------------------
Total Dipole Moment    :      4.08668      -0.39503       1.98425
                        -----------------------------------------
Magnitude (a.u.)       :      4.56008
Magnitude (Debye)      :     11.59079



--------------------
Rotational spectrum 
--------------------
 
Rotational constants in cm-1:     0.001693     0.000252     0.000227 
Rotational constants in MHz :    50.759000     7.553165     6.802929 

 Dipole components along the rotational axes: 
x,y,z [a.u.] :     0.927947    -4.214346     1.473938 
x,y,z [Debye]:     2.358653   -10.712015     3.746454 

 

Timings for individual modules:

Sum of individual times         ...   160640.806 sec (=2677.347 min)
GTO integral calculation        ...        7.581 sec (=   0.126 min)   0.0 %
SCF iterations                  ...    18926.831 sec (= 315.447 min)  11.8 %
CIS module                      ...   141706.395 sec (=2361.773 min)  88.2 %
                             ****ORCA TERMINATED NORMALLY****
TOTAL RUN TIME: 1 days 20 hours 37 minutes 24 seconds 449 msec
