
                                 *****************
                                 * O   R   C   A *
                                 *****************

           --- An Ab Initio, DFT and Semiempirical electronic structure package ---

                  #######################################################
                  #                        -***-                        #
                  #          Department of theory and spectroscopy      #
                  #               Directorship: Frank Neese             #
                  #        Max Planck Institute fuer Kohlenforschung    #
                  #                Kaiser Wilhelm Platz 1               #
                  #                 D-45470 Muelheim/Ruhr               #
                  #                      Germany                        #
                  #                                                     #
                  #                  All rights reserved                #
                  #                        -***-                        #
                  #######################################################


                         Program Version 4.2.0 -  RELEASE  -


 With contributions from (in alphabetic order):
   Daniel Aravena         : Magnetic Suceptibility
   Michael Atanasov       : Ab Initio Ligand Field Theory (pilot matlab implementation)
   Alexander A. Auer      : GIAO ZORA, VPT2
   Ute Becker             : Parallelization
   Giovanni Bistoni       : ED, misc. LED, open-shell LED, HFLED
   Martin Brehm           : Molecular dynamics
   Dmytro Bykov           : SCF Hessian
   Vijay G. Chilkuri      : MRCI spin determinant printing, contributions to CSF-ICE
   Dipayan Datta          : RHF DLPNO-CCSD density
   Achintya Kumar Dutta   : EOM-CC, STEOM-CC
   Dmitry Ganyushin       : Spin-Orbit,Spin-Spin,Magnetic field MRCI
   Miquel Garcia          : C-PCM Hessian, Gaussian charge scheme
   Yang Guo               : DLPNO-NEVPT2, CIM, IAO-localization
   Andreas Hansen         : Spin unrestricted coupled pair/coupled cluster methods
   Benjamin Helmich-Paris : CASSCF linear response (MC-RPA)
   Lee Huntington         : MR-EOM, pCC
   Robert Izsak           : Overlap fitted RIJCOSX, COSX-SCS-MP3, EOM
   Christian Kollmar      : KDIIS, OOCD, Brueckner-CCSD(T), CCSD density
   Simone Kossmann        : Meta GGA functionals, TD-DFT gradient, OOMP2, MP2 Hessian
   Martin Krupicka        : AUTO-CI
   Lucas Lang             : DCDCAS
   Dagmar Lenk            : GEPOL surface, SMD
   Dimitrios Liakos       : Extrapolation schemes; Compound Job, initial MDCI parallelization
   Dimitrios Manganas     : Further ROCIS development; embedding schemes
   Dimitrios Pantazis     : SARC Basis sets
   Taras Petrenko         : DFT Hessian,TD-DFT gradient, ASA, ECA, R-Raman, ABS, FL, XAS/XES, NRVS
   Peter Pinski           : DLPNO-MP2, DLPNO-MP2 Gradient
   Christoph Reimann      : Effective Core Potentials
   Marius Retegan         : Local ZFS, SOC
   Christoph Riplinger    : Optimizer, TS searches, QM/MM, DLPNO-CCSD(T), (RO)-DLPNO pert. Triples
   Tobias Risthaus        : Range-separated hybrids, TD-DFT gradient, RPA, STAB
   Michael Roemelt        : Original ROCIS implementation
   Masaaki Saitow         : Open-shell DLPNO-CCSD energy and density
   Barbara Sandhoefer     : DKH picture change effects
   Avijit Sen             : IP-ROCIS
   Kantharuban Sivalingam : CASSCF convergence, NEVPT2, FIC-MRCI
   Bernardo de Souza      : ESD, SOC TD-DFT
   Georgi Stoychev        : AutoAux, RI-MP2 NMR
   Willem Van den Heuvel  : Paramagnetic NMR
   Boris Wezisla          : Elementary symmetry handling
   Frank Wennmohs         : Technical directorship


 We gratefully acknowledge several colleagues who have allowed us to
 interface, adapt or use parts of their codes:
   Stefan Grimme, W. Hujo, H. Kruse,             : VdW corrections, initial TS optimization,
                  C. Bannwarth                     DFT functionals, gCP, sTDA/sTD-DF
   Ed Valeev, F. Pavosevic, A. Kumar             : LibInt (2-el integral package), F12 methods
   Garnet Chan, S. Sharma, J. Yang, R. Olivares  : DMRG
   Ulf Ekstrom                                   : XCFun DFT Library
   Mihaly Kallay                                 : mrcc  (arbitrary order and MRCC methods)
   Andreas Klamt, Michael Diedenhofen            : otool_cosmo (COSMO solvation model)
   Jiri Pittner, Ondrej Demel                    : Mk-CCSD
   Frank Weinhold                                : gennbo (NPA and NBO analysis)
   Christopher J. Cramer and Donald G. Truhlar   : smd solvation model
   Lars Goerigk                                  : TD-DFT with DH, B97 family of functionals
   V. Asgeirsson, H. Jonsson                     : NEB implementation
   FAccTs GmbH                                   : IRC, NEB, NEB-TS, Multilevel, MM, QM/MM, CI optimization
   S Lehtola, MJT Oliveira, MAL Marques          : LibXC Library


 Your calculation uses the libint2 library for the computation of 2-el integrals
 For citations please refer to: http://libint.valeyev.net

 Your ORCA version has been built with support for libXC version: 4.2.3
 For citations please refer to: https://tddft.org/programs/libxc/

 This ORCA versions uses:
   CBLAS   interface :  Fast vector & matrix operations
   LAPACKE interface :  Fast linear algebra routines
   SCALAPACK package :  Parallel linear algebra routines


----- Orbital basis set information -----
Your calculation utilizes the basis: def2-TZVP
   F. Weigend and R. Ahlrichs, Phys. Chem. Chem. Phys. 7, 3297 (2005).

----- AuxJ basis set information -----
Your calculation utilizes the auxiliary basis: def2/J
   F. Weigend, Phys. Chem. Chem. Phys. 8, 1057 (2006).

================================================================================
                                        WARNINGS
                       Please study these warnings very carefully!
================================================================================

INFO   : Checking CIS options ...

WARNING: CIS/ROCIS methods need fully converged wavefunctions
  ===> : Setting SCFConvForced true
         You can overwrite this default with %scf ConvForced false 


INFO   : the flag for use of LIBINT has been found!

================================================================================
                                       INPUT FILE
================================================================================
NAME = FO-2F.inp
|  1> # ORCA input file
|  2> # FO-2F.out: Geometry 97
|  3> ! B3LYP def2-TZVP def2/J RIJCOSX Grid4 TightSCF
|  4> 
|  5> %maxcore 6000
|  6> %tddft
|  7>   maxdim 5
|  8>   nroots 50
|  9>   end
| 10> %pal
| 11>   nprocs 6
| 12>   end
| 13> 
| 14> 
| 15> * xyz 0 1
| 16>    C        5.08002        -3.50737         1.97359
| 17>    O        6.23184        -3.34276         2.33578
| 18>    C        4.36498        -4.80815         1.99662
| 19>    C        4.89574        -6.04912         2.32864
| 20>    C        4.05598        -7.15227         2.23629
| 21>    F        4.50073        -8.37293         2.51971
| 22>    C        2.71745        -6.99568         1.83095
| 23>    F        1.95809        -8.08355         1.73941
| 24>    C        2.18384        -5.74794         1.51784
| 25>    C        3.02948        -4.63284         1.59057
| 26>    C        2.81624        -3.20009         1.27711
| 27>    C        1.59858        -2.62703         0.96209
| 28>    C        1.42547        -1.22510         0.73431
| 29>    N        1.25449        -0.09086         0.54722
| 30>    C        0.39317        -3.39052         0.85999
| 31>    N       -0.58769        -4.00705         0.76773
| 32>    C        4.11588        -2.52630         1.39062
| 33>    C        4.44351        -1.33334         0.77607
| 34>    C        5.70031        -0.67444         0.69515
| 35>    C        6.85014        -0.74600         1.48776
| 36>    C        7.94326        -0.05550         0.94663
| 37>    C        7.64958         0.56505        -0.27005
| 38>    S        5.99736         0.33909        -0.72376
| 39>    C        8.68095         1.16150        -1.08140
| 40>    C       10.01263         0.84371        -0.69063
| 41>    O       10.28581         0.13495         0.42391
| 42>    C        9.33375         0.08666         1.52445
| 43>    C        9.74974        -1.12801         2.36255
| 44>    C        9.74737        -2.45649         1.60960
| 45>    C        9.43858         1.41222         2.31357
| 46>    C       10.82111         1.71108         2.89255
| 47>    C       11.08646         1.18329        -1.51618
| 48>    C       10.83314         1.88657        -2.69255
| 49>    C        9.52171         2.28406        -3.05982
| 50>    C        8.45392         1.89697        -2.26729
| 51>    C        9.53798         3.05291        -4.38327
| 52>    C        8.73575         2.30601        -5.48199
| 53>    C        9.16725         0.86463        -5.74385
| 54>    C        9.04423         4.52020        -4.24642
| 55>    C        7.57397         4.72818        -3.88756
| 56>    C       11.03379         3.05215        -4.70383
| 57>    C       11.76077         2.33100        -3.72598
| 58>    C       13.13187         2.11014        -3.85002
| 59>    C       13.79566         2.64440        -4.95543
| 60>    C       13.10161         3.46318        -5.89052
| 61>    C       11.70465         3.63379        -5.76637
| 62>    C       13.93591         4.09582        -6.88232
| 63>    C       15.24177         3.66047        -7.12284
| 64>    C       15.76368         2.45864        -6.36634
| 65>    C       17.26146         2.56031        -6.04614
| 66>    C       17.66141         3.83930        -5.30976
| 67>    C       15.39859         1.17424        -7.14354
| 68>    C       15.62783        -0.13678        -6.39572
| 69>    O       15.12205         2.41676        -5.06261
| 70>    C       15.87916         4.41514        -8.11251
| 71>    C       15.09870         5.46759        -8.62139
| 72>    S       13.51868         5.46831        -7.84603
| 73>    C       15.66223         6.46967        -9.45295
| 74>    C       15.30730         7.72804        -9.88080
| 75>    C       14.09173         8.52282        -9.86082
| 76>    C       12.79780         8.05924       -10.02308
| 77>    C       11.65871         8.92004        -9.95489
| 78>    N       10.73162         9.61705        -9.87867
| 79>    C       12.52731         6.71832       -10.43199
| 80>    N       12.29644         5.64544       -10.81485
| 81>    C       14.49947         9.95099        -9.88599
| 82>    C       13.76656        11.13411        -9.73742
| 83>    C       14.44157        12.34528        -9.87288
| 84>    F       13.78252        13.48862        -9.70258
| 85>    C       15.81195        12.39815       -10.19161
| 86>    F       16.39205        13.58481       -10.35107
| 87>    C       16.54827        11.22714       -10.33293
| 88>    C       15.87840        10.01947       -10.17366
| 89>    C       16.44069         8.64556       -10.24461
| 90>    O       17.59006         8.33516       -10.47842
| 91>    H        5.93396        -6.15563         2.64629
| 92>    H        1.14349        -5.69795         1.20402
| 93>    H        3.66173        -0.87448         0.16667
| 94>    H        6.86955        -1.31405         2.41153
| 95>    H        9.08148        -1.17456         3.23799
| 96>    H       10.75798        -0.93137         2.75579
| 97>    H        8.73659        -2.75359         1.29513
| 98>    H       10.14339        -3.25693         2.25253
| 99>    H       10.38212        -2.39102         0.71440
|100>    H        8.67846         1.38565         3.11224
|101>    H        9.13276         2.22384         1.63249
|102>    H       11.09813         1.00423         3.68847
|103>    H       10.84794         2.72113         3.32991
|104>    H       11.59294         1.65638         2.11017
|105>    H       12.09036         0.87227        -1.22328
|106>    H        7.42631         2.12854        -2.55353
|107>    H        8.80877         2.89515        -6.41258
|108>    H        7.67131         2.31476        -5.19810
|109>    H       10.21889         0.80588        -6.06532
|110>    H        8.55033         0.41564        -6.53682
|111>    H        9.05370         0.24279        -4.84222
|112>    H        9.24683         5.02086        -5.20861
|113>    H        9.68033         5.02440        -3.50139
|114>    H        6.89866         4.21374        -4.58644
|115>    H        7.32338         5.79954        -3.92926
|116>    H        7.34265         4.37623        -2.87134
|117>    H       13.70050         1.52941        -3.12208
|118>    H       11.17208         4.21946        -6.52006
|119>    H       17.82663         2.45332        -6.98650
|120>    H       17.51909         1.68534        -5.43076
|121>    H       17.57509         4.72934        -5.95021
|122>    H       18.70259         3.77809        -4.95824
|123>    H       17.01846         3.99473        -4.43193
|124>    H       15.96393         1.19450        -8.08897
|125>    H       14.33641         1.24931        -7.42875
|126>    H       16.68484        -0.29532        -6.13203
|127>    H       15.30779        -0.98662        -7.01785
|128>    H       15.04408        -0.16302        -5.46469
|129>    H       16.90088         4.24863        -8.45536
|130>    H       16.71375         6.26012        -9.69094
|131>    H       12.70398        11.15856        -9.50268
|132>    H       17.61158        11.26125       -10.57607
|133> *
|134> 
|135>                          ****END OF INPUT****
================================================================================

                       ****************************
                       * Single Point Calculation *
                       ****************************

---------------------------------
CARTESIAN COORDINATES (ANGSTROEM)
---------------------------------
  C      5.080020   -3.507370    1.973590
  O      6.231840   -3.342760    2.335780
  C      4.364980   -4.808150    1.996620
  C      4.895740   -6.049120    2.328640
  C      4.055980   -7.152270    2.236290
  F      4.500730   -8.372930    2.519710
  C      2.717450   -6.995680    1.830950
  F      1.958090   -8.083550    1.739410
  C      2.183840   -5.747940    1.517840
  C      3.029480   -4.632840    1.590570
  C      2.816240   -3.200090    1.277110
  C      1.598580   -2.627030    0.962090
  C      1.425470   -1.225100    0.734310
  N      1.254490   -0.090860    0.547220
  C      0.393170   -3.390520    0.859990
  N     -0.587690   -4.007050    0.767730
  C      4.115880   -2.526300    1.390620
  C      4.443510   -1.333340    0.776070
  C      5.700310   -0.674440    0.695150
  C      6.850140   -0.746000    1.487760
  C      7.943260   -0.055500    0.946630
  C      7.649580    0.565050   -0.270050
  S      5.997360    0.339090   -0.723760
  C      8.680950    1.161500   -1.081400
  C     10.012630    0.843710   -0.690630
  O     10.285810    0.134950    0.423910
  C      9.333750    0.086660    1.524450
  C      9.749740   -1.128010    2.362550
  C      9.747370   -2.456490    1.609600
  C      9.438580    1.412220    2.313570
  C     10.821110    1.711080    2.892550
  C     11.086460    1.183290   -1.516180
  C     10.833140    1.886570   -2.692550
  C      9.521710    2.284060   -3.059820
  C      8.453920    1.896970   -2.267290
  C      9.537980    3.052910   -4.383270
  C      8.735750    2.306010   -5.481990
  C      9.167250    0.864630   -5.743850
  C      9.044230    4.520200   -4.246420
  C      7.573970    4.728180   -3.887560
  C     11.033790    3.052150   -4.703830
  C     11.760770    2.331000   -3.725980
  C     13.131870    2.110140   -3.850020
  C     13.795660    2.644400   -4.955430
  C     13.101610    3.463180   -5.890520
  C     11.704650    3.633790   -5.766370
  C     13.935910    4.095820   -6.882320
  C     15.241770    3.660470   -7.122840
  C     15.763680    2.458640   -6.366340
  C     17.261460    2.560310   -6.046140
  C     17.661410    3.839300   -5.309760
  C     15.398590    1.174240   -7.143540
  C     15.627830   -0.136780   -6.395720
  O     15.122050    2.416760   -5.062610
  C     15.879160    4.415140   -8.112510
  C     15.098700    5.467590   -8.621390
  S     13.518680    5.468310   -7.846030
  C     15.662230    6.469670   -9.452950
  C     15.307300    7.728040   -9.880800
  C     14.091730    8.522820   -9.860820
  C     12.797800    8.059240  -10.023080
  C     11.658710    8.920040   -9.954890
  N     10.731620    9.617050   -9.878670
  C     12.527310    6.718320  -10.431990
  N     12.296440    5.645440  -10.814850
  C     14.499470    9.950990   -9.885990
  C     13.766560   11.134110   -9.737420
  C     14.441570   12.345280   -9.872880
  F     13.782520   13.488620   -9.702580
  C     15.811950   12.398150  -10.191610
  F     16.392050   13.584810  -10.351070
  C     16.548270   11.227140  -10.332930
  C     15.878400   10.019470  -10.173660
  C     16.440690    8.645560  -10.244610
  O     17.590060    8.335160  -10.478420
  H      5.933960   -6.155630    2.646290
  H      1.143490   -5.697950    1.204020
  H      3.661730   -0.874480    0.166670
  H      6.869550   -1.314050    2.411530
  H      9.081480   -1.174560    3.237990
  H     10.757980   -0.931370    2.755790
  H      8.736590   -2.753590    1.295130
  H     10.143390   -3.256930    2.252530
  H     10.382120   -2.391020    0.714400
  H      8.678460    1.385650    3.112240
  H      9.132760    2.223840    1.632490
  H     11.098130    1.004230    3.688470
  H     10.847940    2.721130    3.329910
  H     11.592940    1.656380    2.110170
  H     12.090360    0.872270   -1.223280
  H      7.426310    2.128540   -2.553530
  H      8.808770    2.895150   -6.412580
  H      7.671310    2.314760   -5.198100
  H     10.218890    0.805880   -6.065320
  H      8.550330    0.415640   -6.536820
  H      9.053700    0.242790   -4.842220
  H      9.246830    5.020860   -5.208610
  H      9.680330    5.024400   -3.501390
  H      6.898660    4.213740   -4.586440
  H      7.323380    5.799540   -3.929260
  H      7.342650    4.376230   -2.871340
  H     13.700500    1.529410   -3.122080
  H     11.172080    4.219460   -6.520060
  H     17.826630    2.453320   -6.986500
  H     17.519090    1.685340   -5.430760
  H     17.575090    4.729340   -5.950210
  H     18.702590    3.778090   -4.958240
  H     17.018460    3.994730   -4.431930
  H     15.963930    1.194500   -8.088970
  H     14.336410    1.249310   -7.428750
  H     16.684840   -0.295320   -6.132030
  H     15.307790   -0.986620   -7.017850
  H     15.044080   -0.163020   -5.464690
  H     16.900880    4.248630   -8.455360
  H     16.713750    6.260120   -9.690940
  H     12.703980   11.158560   -9.502680
  H     17.611580   11.261250  -10.576070

----------------------------
CARTESIAN COORDINATES (A.U.)
----------------------------
  NO LB      ZA    FRAG     MASS         X           Y           Z
   0 C     6.0000    0    12.011    9.599847   -6.627969    3.729545
   1 O     8.0000    0    15.999   11.776471   -6.316901    4.413985
   2 C     6.0000    0    12.011    8.248617   -9.086087    3.773065
   3 C     6.0000    0    12.011    9.251608  -11.431180    4.400492
   4 C     6.0000    0    12.011    7.664691  -13.515832    4.225976
   5 F     9.0000    0    18.998    8.505147  -15.822545    4.761562
   6 C     6.0000    0    12.011    5.135236  -13.219919    3.459994
   7 F     9.0000    0    18.998    3.700254  -15.275696    3.287009
   8 C     6.0000    0    12.011    4.126860  -10.862032    2.868302
   9 C     6.0000    0    12.011    5.724888   -8.754799    3.005742
  10 C     6.0000    0    12.011    5.321922   -6.047294    2.413388
  11 C     6.0000    0    12.011    3.020878   -4.964367    1.818087
  12 C     6.0000    0    12.011    2.693748   -2.315103    1.387645
  13 N     7.0000    0    14.007    2.370643   -0.171701    1.034096
  14 C     6.0000    0    12.011    0.742984   -6.407154    1.625146
  15 N     7.0000    0    14.007   -1.110573   -7.572227    1.450799
  16 C     6.0000    0    12.011    7.777886   -4.774015    2.627891
  17 C     6.0000    0    12.011    8.397017   -2.519647    1.466560
  18 C     6.0000    0    12.011   10.772025   -1.274507    1.313643
  19 C     6.0000    0    12.011   12.944889   -1.409736    2.811459
  20 C     6.0000    0    12.011   15.010586   -0.104880    1.788871
  21 C     6.0000    0    12.011   14.455611    1.067790   -0.510321
  22 S    16.0000    0    32.060   11.333368    0.640787   -1.367708
  23 C     6.0000    0    12.011   16.404618    2.194917   -2.043550
  24 C     6.0000    0    12.011   18.921129    1.594381   -1.305102
  25 O     8.0000    0    15.999   19.437364    0.255019    0.801074
  26 C     6.0000    0    12.011   17.638231    0.163764    2.880793
  27 C     6.0000    0    12.011   18.424338   -2.131630    4.464572
  28 C     6.0000    0    12.011   18.419860   -4.642093    3.041703
  29 C     6.0000    0    12.011   17.836331    2.668709    4.372014
  30 C     6.0000    0    12.011   20.448934    3.233473    5.466127
  31 C     6.0000    0    12.011   20.950373    2.236094   -2.865165
  32 C     6.0000    0    12.011   20.471668    3.565101   -5.088182
  33 C     6.0000    0    12.011   17.993424    4.316248   -5.782222
  34 C     6.0000    0    12.011   15.975594    3.584754   -4.284557
  35 C     6.0000    0    12.011   18.024170    5.769164   -8.283180
  36 C     6.0000    0    12.011   16.508175    4.357727  -10.359460
  37 C     6.0000    0    12.011   17.323592    1.633914  -10.854303
  38 C     6.0000    0    12.011   17.091118    8.541940   -8.024571
  39 C     6.0000    0    12.011   14.312729    8.934965   -7.346424
  40 C     6.0000    0    12.011   20.850841    5.767728   -8.888950
  41 C     6.0000    0    12.011   22.224634    4.404952   -7.041082
  42 C     6.0000    0    12.011   24.815638    3.987587   -7.275483
  43 C     6.0000    0    12.011   26.070019    4.997192   -9.364406
  44 C     6.0000    0    12.011   24.758455    6.544462  -11.131470
  45 C     6.0000    0    12.011   22.118583    6.866868  -10.896860
  46 C     6.0000    0    12.011   26.335053    7.739978  -13.005700
  47 C     6.0000    0    12.011   28.802771    6.917286  -13.460217
  48 C     6.0000    0    12.011   29.789038    4.646156  -12.030639
  49 C     6.0000    0    12.011   32.619432    4.838285  -11.425549
  50 C     6.0000    0    12.011   33.375228    7.255226  -10.033992
  51 C     6.0000    0    12.011   29.099118    2.218992  -13.499334
  52 C     6.0000    0    12.011   29.532319   -0.258477  -12.086159
  53 O     8.0000    0    15.999   28.576533    4.567015   -9.566946
  54 C     6.0000    0    12.011   30.007264    8.343405  -15.330422
  55 C     6.0000    0    12.011   28.532408   10.332248  -16.292066
  56 S    16.0000    0    32.060   25.546603   10.333608  -14.826848
  57 C     6.0000    0    12.011   29.597325   12.225904  -17.863487
  58 C     6.0000    0    12.011   28.926605   14.603879  -18.672006
  59 C     6.0000    0    12.011   26.629510   16.105796  -18.634249
  60 C     6.0000    0    12.011   24.184337   15.229756  -18.940876
  61 C     6.0000    0    12.011   22.031769   16.856433  -18.812016
  62 N     7.0000    0    14.007   20.279823   18.173591  -18.667981
  63 C     6.0000    0    12.011   23.673185   12.695785  -19.713604
  64 N     7.0000    0    14.007   23.236904   10.668336  -20.437105
  65 C     6.0000    0    12.011   27.400027   18.804646  -18.681814
  66 C     6.0000    0    12.011   26.015028   21.040419  -18.401057
  67 C     6.0000    0    12.011   27.290612   23.329198  -18.657039
  68 F     9.0000    0    18.998   26.045188   25.489798  -18.335219
  69 C     6.0000    0    12.011   29.880255   23.429108  -19.259352
  70 F     9.0000    0    18.998   30.976485   25.671570  -19.560687
  71 C     6.0000    0    12.011   31.271698   21.216220  -19.526408
  72 C     6.0000    0    12.011   30.005827   18.934054  -19.225431
  73 C     6.0000    0    12.011   31.068402   16.337741  -19.359507
  74 O     8.0000    0    15.999   33.240396   15.751170  -19.801344
  75 H     1.0000    0     1.008   11.213559  -11.632455    5.000763
  76 H     1.0000    0     1.008    2.160883  -10.767565    2.275268
  77 H     1.0000    0     1.008    6.919667   -1.652528    0.314961
  78 H     1.0000    0     1.008   12.981568   -2.483195    4.557131
  79 H     1.0000    0     1.008   17.161510   -2.219597    6.118914
  80 H     1.0000    0     1.008   20.329636   -1.760034    5.207688
  81 H     1.0000    0     1.008   16.509762   -5.203531    2.447441
  82 H     1.0000    0     1.008   19.168229   -6.154706    4.256665
  83 H     1.0000    0     1.008   19.619363   -4.518373    1.350020
  84 H     1.0000    0     1.008   16.399913    2.618499    5.881281
  85 H     1.0000    0     1.008   17.258415    4.202449    3.084959
  86 H     1.0000    0     1.008   20.972426    1.897720    6.970198
  87 H     1.0000    0     1.008   20.499636    5.142190    6.292618
  88 H     1.0000    0     1.008   21.907482    3.130105    3.987643
  89 H     1.0000    0     1.008   22.847469    1.648351   -2.311664
  90 H     1.0000    0     1.008   14.033692    4.022358   -4.825472
  91 H     1.0000    0     1.008   16.646163    5.471041  -12.118020
  92 H     1.0000    0     1.008   14.496675    4.374262   -9.822985
  93 H     1.0000    0     1.008   19.310903    1.522892  -11.461794
  94 H     1.0000    0     1.008   16.157782    0.785446  -12.352800
  95 H     1.0000    0     1.008   17.109013    0.458807   -9.150470
  96 H     1.0000    0     1.008   17.473976    9.488050   -9.842846
  97 H     1.0000    0     1.008   18.293173    9.494740   -6.616668
  98 H     1.0000    0     1.008   13.036578    7.962815   -8.667116
  99 H     1.0000    0     1.008   13.839183   10.959542   -7.425225
 100 H     1.0000    0     1.008   13.875598    8.269876   -5.426046
 101 H     1.0000    0     1.008   25.890193    2.890166   -5.899876
 102 H     1.0000    0     1.008   21.112172    7.973624  -12.321128
 103 H     1.0000    0     1.008   33.687449    4.636103  -13.202572
 104 H     1.0000    0     1.008   33.106282    3.184831  -10.262649
 105 H     1.0000    0     1.008   33.212107    8.937157  -11.244267
 106 H     1.0000    0     1.008   35.342773    7.139555   -9.369716
 107 H     1.0000    0     1.008   32.160229    7.548946   -8.375134
 108 H     1.0000    0     1.008   30.167456    2.257278  -15.285938
 109 H     1.0000    0     1.008   27.091889    2.360854  -14.038303
 110 H     1.0000    0     1.008   31.529778   -0.558074  -11.587857
 111 H     1.0000    0     1.008   28.927531   -1.864442  -13.261815
 112 H     1.0000    0     1.008   28.429191   -0.308063  -10.326768
 113 H     1.0000    0     1.008   31.938035    8.028747  -15.978315
 114 H     1.0000    0     1.008   31.584410   11.829912  -18.313223
 115 H     1.0000    0     1.008   24.007043   21.086622  -17.957463
 116 H     1.0000    0     1.008   33.281063   21.280678  -19.985876

--------------------------------
INTERNAL COORDINATES (ANGSTROEM)
--------------------------------
 C      0   0   0     0.000000000000     0.00000000     0.00000000
 O      1   0   0     1.218592368514     0.00000000     0.00000000
 C      1   2   0     1.484533997893   124.68178341     0.00000000
 C      3   1   2     1.389946041722   127.01955268   354.85671144
 C      4   3   1     1.389483825958   117.52757658   182.32647932
 F      5   4   3     1.329714365757   120.83087563   179.03085835
 C      5   4   3     1.407296523338   120.37379254   359.45155892
 F      7   5   4     1.329837703669   118.15880779   179.05855403
 C      7   5   4     1.392706936796   121.92889553   359.61818173
 C      9   7   5     1.401372424625   118.03565711     1.24426415
 C     10   9   7     1.482059726091   132.17873891   176.97933203
 C     11  10   9     1.382147329195   125.15460343     7.89623428
 C     12  11  10     1.430824421584   123.30628425   176.61044461
 N     13  12  11     1.162212203558   178.48302321   185.77122894
 C     12  11  10     1.430508531327   122.50284954   357.78057685
 N     15  12  11     1.162199418387   179.49924815   233.79365836
 C     11  10   9     1.468312505497   107.45259357   186.84730817
 C     17  11  10     1.381364065335   124.87862488   157.56009525
 C     18  17  11     1.421352699508   129.44921330   187.78679658
 C     19  18  17     1.398377801097   132.14996369   337.19270075
 C     20  19  18     1.401614519510   113.40574582   171.77684768
 C     21  20  19     1.397011262410   113.02431854     0.29628422
 S     22  21  20     1.728219203139   111.81062095     1.92328937
 C     22  21  20     1.441445629186   121.57424547   189.02058771
 C     24  22  21     1.423749732011   114.98571000    11.77628358
 O     25  24  22     1.348765161768   122.24477417   354.43218395
 C     26  25  24     1.456000844540   120.63664717   336.75081203
 C     27  26  25     1.533258784094   105.19078713   161.93265439
 C     28  27  26     1.527022733884   114.78812660   301.11073543
 C     27  26  25     1.546224116000   108.23969840   282.33236530
 C     30  27  26     1.528373102649   114.97960641   301.03189592
 C     25  24  22     1.396409054611   120.18033058   169.84395723
 C     32  25  24     1.393779092145   118.81072210     2.78613193
 C     33  32  25     1.418708637423   121.86203419     1.08080170
 C     34  33  32     1.384961354371   119.09384766   356.23387059
 C     34  33  32     1.530658334802   110.77745810   179.26956584
 C     36  34  33     1.551972364863   111.40040014   117.11961552
 C     37  36  34     1.527199795050   115.43921865   304.77596433
 C     36  34  33     1.554174034367   113.24786584   242.59736997
 C     39  36  34     1.527645458737   117.06343284   293.36890773
 C     36  34  33     1.529773462739   101.03008418   359.28790740
 C     41  36  34     1.415891191229   110.95155729     2.25079172
 C     42  41  36     1.394302790358   121.61022008   175.45648000
 C     43  42  41     1.395701321845   118.52263261     1.43688626
 C     44  43  42     1.423551684696   120.56668170     3.72187378
 C     41  36  34     1.384683892013   129.36938774   182.15293424
 C     45  44  43     1.442205637071   114.96031786   172.04515064
 C     47  45  44     1.397372474503   121.48720870    16.26731801
 C     48  47  45     1.512969810340   118.93274429     2.79277694
 C     49  48  47     1.534995034943   112.84767047   214.14792572
 C     50  49  48     1.529062106979   114.27306914    54.06362760
 C     49  48  47     1.544996410384   109.10653466    87.67150956
 C     52  49  48     1.526616903614   115.59596190   190.65464368
 O     44  43  42     1.350043685997   117.74881611   180.24608200
 C     48  47  45     1.398298798505   112.31254382   180.54404811
 C     55  48  47     1.405605801247   114.03175353     1.93054740
 S     47  45  44     1.728162792419   126.31400874   198.95798080
 C     56  55  48     1.418880692976   121.36284671   168.81246997
 C     58  56  55     1.375691093342   136.53703883   196.56800665
 C     59  58  56     1.452475429637   135.41147383   347.19904327
 C     60  59  58     1.384012127440   126.69304313   323.80247539
 C     61  60  59     1.429388870882   122.52930677   178.44064035
 N     62  61  60     1.162380444003   178.96500820   271.94270735
 C     61  60  59     1.427739007872   121.68747015   350.61252052
 N     64  61  60     1.162305566923   177.31674818   257.24630791
 C     60  59  58     1.485447739034   107.22582277   154.06591840
 C     66  60  59     1.399643900212   131.84933380   187.94695049
 C     67  66  60     1.393169293589   118.08891664   182.85575034
 F     68  67  66     1.330629681053   119.64192651   181.78040157
 C     68  67  66     1.407950778330   121.75185697     1.98422282
 F     70  68  67     1.330453102217   119.01291957   177.80838250
 C     70  68  67     1.390468591842   120.45097188   357.59147347
 C     72  70  68     1.390165306250   117.69718784     1.18014056
 C     73  72  70     1.486214195431   127.97398089   181.45828887
 O     74  73  72     1.213287547534   127.16464436   358.65324608
 H      4   3   1     1.090938435935   121.34056053     2.08550805
 H      9   7   5     1.087800586045   118.19430995   179.54718225
 H     18  17  11     1.092291548992   116.18335604     0.09963840
 H     20  19  18     1.084623696726   121.61865637   353.49427277
 H     28  27  26     1.102330950169   107.64291710   177.33461303
 H     28  27  26     1.099933127422   107.60705993    63.22804279
 H     29  28  27     1.099470781467   112.18171430   294.60216627
 H     29  28  27     1.100406751570   110.13154062   174.85756638
 H     29  28  27     1.099352956698   110.41457066    55.50376886
 H     30  27  26     1.102888094142   107.58970451   177.17125327
 H     30  27  26     1.102779607719   107.27434330    63.62851959
 H     31  30  27     1.099938929805   112.10308988   292.65175082
 H     31  30  27     1.101001644413   110.60440299   173.05107084
 H     31  30  27     1.100378163769   110.81943840    53.15893795
 H     32  25  24     1.091026608475   118.65577702   183.82870921
 H     35  34  33     1.091576985192   121.09506680   184.03508212
 H     37  36  34     1.103818648194   107.80579359   181.49167743
 H     37  36  34     1.101681718193   108.25118642    67.14985329
 H     38  37  36     1.101245301012   111.72918139   300.06955591
 H     38  37  36     1.100447057972   110.50189058   180.23280782
 H     38  37  36     1.101142699653   111.31255229    60.77714394
 H     39  36  34     1.103411433555   107.05303020   171.20496722
 H     39  36  34     1.101776089276   107.94881008    57.44906172
 H     40  39  36     1.099602366358   112.21437004   305.14423487
 H     40  39  36     1.101066068726   110.03619441   186.20069100
 H     40  39  36     1.100036741795   112.07610334    66.81373569
 H     43  42  41     1.091093054418   122.50953348   182.01571919
 H     46  41  36     1.093018192850   121.20748063     1.83611001
 H     50  49  48     1.102334304374   108.41487032   289.73465661
 H     50  49  48     1.100290080933   107.00572298   175.51106725
 H     51  50  49     1.099908426416   112.08049145   290.72755622
 H     51  50  49     1.100621990921   110.77701665   170.31725284
 H     51  50  49     1.099149078287   110.48107373    50.89434996
 H     52  49  48     1.101752090127   107.16516003    66.27360092
 H     52  49  48     1.102364096567   107.53139441   312.99537303
 H     53  52  49     1.100880324013   112.65523156   298.26057877
 H     53  52  49     1.100772167208   110.02901971   178.12629906
 H     53  52  49     1.099213109911   110.83390668    58.97870592
 H     55  48  47     1.090496887203   124.55487666   179.89455428
 H     58  56  55     1.098291743117   111.86974977     4.60352725
 H     67  66  60     1.088474586979   123.57737781     4.11623737
 H     72  70  68     1.091287637518   120.81667793   180.23801454

---------------------------
INTERNAL COORDINATES (A.U.)
---------------------------
 C      0   0   0     0.000000000000     0.00000000     0.00000000
 O      1   0   0     2.302805845377     0.00000000     0.00000000
 C      1   2   0     2.805362692513   124.68178341     0.00000000
 C      3   1   2     2.626617359783   127.01955268   354.85671144
 C      4   3   1     2.625743898574   117.52757658   182.32647932
 F      5   4   3     2.512795987621   120.83087563   179.03085835
 C      5   4   3     2.659405018329   120.37379254   359.45155892
 F      7   5   4     2.513029062497   118.15880779   179.05855403
 C      7   5   4     2.631834695357   121.92889553   359.61818173
 C      9   7   5     2.648210094171   118.03565711     1.24426415
 C     10   9   7     2.800686996426   132.17873891   176.97933203
 C     11  10   9     2.611879928909   125.15460343     7.89623428
 C     12  11  10     2.703866302519   123.30628425   176.61044461
 N     13  12  11     2.196262774226   178.48302321   185.77122894
 C     12  11  10     2.703269356446   122.50284954   357.78057685
 N     15  12  11     2.196238613755   179.49924815   233.79365836
 C     11  10   9     2.774708514402   107.45259357   186.84730817
 C     17  11  10     2.610399774724   124.87862488   157.56009525
 C     18  17  11     2.685967341781   129.44921330   187.78679658
 C     19  18  17     2.642551075828   132.14996369   337.19270075
 C     20  19  18     2.648667587201   113.40574582   171.77684768
 C     21  20  19     2.639968691958   113.02431854     0.29628422
 S     22  21  20     3.265860993317   111.81062095     1.92328937
 C     22  21  20     2.723937476100   121.57424547   189.02058771
 C     24  22  21     2.690497076744   114.98571000    11.77628358
 O     25  24  22     2.548796774716   122.24477417   354.43218395
 C     26  25  24     2.751442846938   120.63664717   336.75081203
 C     27  26  25     2.897439194366   105.19078713   161.93265439
 C     28  27  26     2.885654767313   114.78812660   301.11073543
 C     27  26  25     2.921940120904   108.23969840   282.33236530
 C     30  27  26     2.888206594458   114.97960641   301.03189592
 C     25  24  22     2.638830684143   120.18033058   169.84395723
 C     32  25  24     2.633860775339   118.81072210     2.78613193
 C     33  32  25     2.680970788559   121.86203419     1.08080170
 C     34  33  32     2.617197665825   119.09384766   356.23387059
 C     34  33  32     2.892525057380   110.77745810   179.26956584
 C     36  34  33     2.932802737006   111.40040014   117.11961552
 C     37  36  34     2.885989364425   115.43921865   304.77596433
 C     36  34  33     2.936963289405   113.24786584   242.59736997
 C     39  36  34     2.886831546742   117.06343284   293.36890773
 C     36  34  33     2.890852891517   101.03008418   359.28790740
 C     41  36  34     2.675646586854   110.95155729     2.25079172
 C     42  41  36     2.634850421539   121.61022008   175.45648000
 C     43  42  41     2.637493263039   118.52263261     1.43688626
 C     44  43  42     2.690122821557   120.56668170     3.72187378
 C     41  36  34     2.616673337957   129.36938774   182.15293424
 C     45  44  43     2.725373682862   114.96031786   172.04515064
 C     47  45  44     2.640651283891   121.48720870    16.26731801
 C     48  47  45     2.859098590433   118.93274429     2.79277694
 C     49  48  47     2.900720232971   112.84767047   214.14792572
 C     50  49  48     2.889508623947   114.27306914    54.06362760
 C     49  48  47     2.919620093518   109.10653466    87.67150956
 C     52  49  48     2.884887859245   115.59596190   190.65464368
 O     44  43  42     2.551212835364   117.74881611   180.24608200
 C     48  47  45     2.642401782565   112.31254382   180.54404811
 C     55  48  47     2.656210016608   114.03175353     1.93054740
 S     47  45  44     3.265754392504   126.31400874   198.95798080
 C     56  55  48     2.681295926433   121.36284671   168.81246997
 C     58  56  55     2.599679411291   136.53703883   196.56800665
 C     59  58  56     2.744780778264   135.41147383   347.19904327
 C     60  59  58     2.615403886887   126.69304313   323.80247539
 C     61  60  59     2.701153504841   122.52930677   178.44064035
 N     62  61  60     2.196580702591   178.96500820   271.94270735
 C     61  60  59     2.698035715595   121.68747015   350.61252052
 N     64  61  60     2.196439205416   177.31674818   257.24630791
 C     60  59  58     2.807089413026   107.22582277   154.06591840
 C     66  60  59     2.644943656414   131.84933380   187.94695049
 C     67  66  60     2.632708423072   118.08891664   182.85575034
 F     68  67  66     2.514525682858   119.64192651   181.78040157
 C     68  67  66     2.660641381085   121.75185697     1.98422282
 F     70  68  67     2.514191997217   119.01291957   177.80838250
 C     70  68  67     2.627604836401   120.45097188   357.59147347
 C     72  70  68     2.627031709690   117.69718784     1.18014056
 C     73  72  70     2.808537805710   127.97398089   181.45828887
 O     74  73  72     2.292781186535   127.16464436   358.65324608
 H      4   3   1     2.061574872885   121.34056053     2.08550805
 H      9   7   5     2.055645195944   118.19430995   179.54718225
 H     18  17  11     2.064131885992   116.18335604     0.09963840
 H     20  19  18     2.049641745174   121.61865637   353.49427277
 H     28  27  26     2.083103604764   107.64291710   177.33461303
 H     28  27  26     2.078572376455   107.60705993    63.22804279
 H     29  28  27     2.077698669221   112.18171430   294.60216627
 H     29  28  27     2.079467396384   110.13154062   174.85756638
 H     29  28  27     2.077476012675   110.41457066    55.50376886
 H     30  27  26     2.084156454291   107.58970451   177.17125327
 H     30  27  26     2.083951444661   107.27434330    63.62851959
 H     31  30  27     2.078583341369   112.10308988   292.65175082
 H     31  30  27     2.080591580937   110.60440299   173.05107084
 H     31  30  27     2.079413373271   110.81943840    53.15893795
 H     32  25  24     2.061741494838   118.65577702   183.82870921
 H     35  34  33     2.062781556104   121.09506680   184.03508212
 H     37  36  34     2.085914946601   107.80579359   181.49167743
 H     37  36  34     2.081876734132   108.25118642    67.14985329
 H     38  37  36     2.081052025179   111.72918139   300.06955591
 H     38  37  36     2.079543564447   110.50189058   180.23280782
 H     38  37  36     2.080858136712   111.31255229    60.77714394
 H     39  36  34     2.085145422456   107.05303020   171.20496722
 H     39  36  34     2.082055069634   107.94881008    57.44906172
 H     40  39  36     2.077947328628   112.21437004   305.14423487
 H     40  39  36     2.080713325246   110.03619441   186.20069100
 H     40  39  36     2.078768179244   112.07610334    66.81373569
 H     43  42  41     2.061867059474   122.50953348   182.01571919
 H     46  41  36     2.065505043879   121.20748063     1.83611001
 H     50  49  48     2.083109943294   108.41487032   289.73465661
 H     50  49  48     2.079246920834   107.00572298   175.51106725
 H     51  50  49     2.078525698318   112.08049145   290.72755622
 H     51  50  49     2.079874139813   110.77701665   170.31725284
 H     51  50  49     2.077090738315   110.48107373    50.89434996
 H     52  49  48     2.082009717816   107.16516003    66.27360092
 H     52  49  48     2.083166242379   107.53139441   312.99537303
 H     53  52  49     2.080362318608   112.65523156   298.26057877
 H     53  52  49     2.080157931866   110.02901971   178.12629906
 H     53  52  49     2.077211740547   110.83390668    58.97870592
 H     55  48  47     2.060740466708   124.55487666   179.89455428
 H     58  56  55     2.075470609639   111.86974977     4.60352725
 H     67  66  60     2.056918873124   123.57737781     4.11623737
 H     72  70  68     2.062234768243   120.81667793   180.23801454

---------------------
BASIS SET INFORMATION
---------------------
There are 6 groups of distinct atoms

 Group   1 Type C   : 11s6p2d1f contracted to 5s3p2d1f pattern {62111/411/11/1}
 Group   2 Type O   : 11s6p2d1f contracted to 5s3p2d1f pattern {62111/411/11/1}
 Group   3 Type F   : 11s6p2d1f contracted to 5s3p2d1f pattern {62111/411/11/1}
 Group   4 Type N   : 11s6p2d1f contracted to 5s3p2d1f pattern {62111/411/11/1}
 Group   5 Type S   : 14s9p3d1f contracted to 5s5p2d1f pattern {73211/51111/21/1}
 Group   6 Type H   : 5s1p contracted to 3s1p pattern {311/1}

Atom   0C    basis set group =>   1
Atom   1O    basis set group =>   2
Atom   2C    basis set group =>   1
Atom   3C    basis set group =>   1
Atom   4C    basis set group =>   1
Atom   5F    basis set group =>   3
Atom   6C    basis set group =>   1
Atom   7F    basis set group =>   3
Atom   8C    basis set group =>   1
Atom   9C    basis set group =>   1
Atom  10C    basis set group =>   1
Atom  11C    basis set group =>   1
Atom  12C    basis set group =>   1
Atom  13N    basis set group =>   4
Atom  14C    basis set group =>   1
Atom  15N    basis set group =>   4
Atom  16C    basis set group =>   1
Atom  17C    basis set group =>   1
Atom  18C    basis set group =>   1
Atom  19C    basis set group =>   1
Atom  20C    basis set group =>   1
Atom  21C    basis set group =>   1
Atom  22S    basis set group =>   5
Atom  23C    basis set group =>   1
Atom  24C    basis set group =>   1
Atom  25O    basis set group =>   2
Atom  26C    basis set group =>   1
Atom  27C    basis set group =>   1
Atom  28C    basis set group =>   1
Atom  29C    basis set group =>   1
Atom  30C    basis set group =>   1
Atom  31C    basis set group =>   1
Atom  32C    basis set group =>   1
Atom  33C    basis set group =>   1
Atom  34C    basis set group =>   1
Atom  35C    basis set group =>   1
Atom  36C    basis set group =>   1
Atom  37C    basis set group =>   1
Atom  38C    basis set group =>   1
Atom  39C    basis set group =>   1
Atom  40C    basis set group =>   1
Atom  41C    basis set group =>   1
Atom  42C    basis set group =>   1
Atom  43C    basis set group =>   1
Atom  44C    basis set group =>   1
Atom  45C    basis set group =>   1
Atom  46C    basis set group =>   1
Atom  47C    basis set group =>   1
Atom  48C    basis set group =>   1
Atom  49C    basis set group =>   1
Atom  50C    basis set group =>   1
Atom  51C    basis set group =>   1
Atom  52C    basis set group =>   1
Atom  53O    basis set group =>   2
Atom  54C    basis set group =>   1
Atom  55C    basis set group =>   1
Atom  56S    basis set group =>   5
Atom  57C    basis set group =>   1
Atom  58C    basis set group =>   1
Atom  59C    basis set group =>   1
Atom  60C    basis set group =>   1
Atom  61C    basis set group =>   1
Atom  62N    basis set group =>   4
Atom  63C    basis set group =>   1
Atom  64N    basis set group =>   4
Atom  65C    basis set group =>   1
Atom  66C    basis set group =>   1
Atom  67C    basis set group =>   1
Atom  68F    basis set group =>   3
Atom  69C    basis set group =>   1
Atom  70F    basis set group =>   3
Atom  71C    basis set group =>   1
Atom  72C    basis set group =>   1
Atom  73C    basis set group =>   1
Atom  74O    basis set group =>   2
Atom  75H    basis set group =>   6
Atom  76H    basis set group =>   6
Atom  77H    basis set group =>   6
Atom  78H    basis set group =>   6
Atom  79H    basis set group =>   6
Atom  80H    basis set group =>   6
Atom  81H    basis set group =>   6
Atom  82H    basis set group =>   6
Atom  83H    basis set group =>   6
Atom  84H    basis set group =>   6
Atom  85H    basis set group =>   6
Atom  86H    basis set group =>   6
Atom  87H    basis set group =>   6
Atom  88H    basis set group =>   6
Atom  89H    basis set group =>   6
Atom  90H    basis set group =>   6
Atom  91H    basis set group =>   6
Atom  92H    basis set group =>   6
Atom  93H    basis set group =>   6
Atom  94H    basis set group =>   6
Atom  95H    basis set group =>   6
Atom  96H    basis set group =>   6
Atom  97H    basis set group =>   6
Atom  98H    basis set group =>   6
Atom  99H    basis set group =>   6
Atom 100H    basis set group =>   6
Atom 101H    basis set group =>   6
Atom 102H    basis set group =>   6
Atom 103H    basis set group =>   6
Atom 104H    basis set group =>   6
Atom 105H    basis set group =>   6
Atom 106H    basis set group =>   6
Atom 107H    basis set group =>   6
Atom 108H    basis set group =>   6
Atom 109H    basis set group =>   6
Atom 110H    basis set group =>   6
Atom 111H    basis set group =>   6
Atom 112H    basis set group =>   6
Atom 113H    basis set group =>   6
Atom 114H    basis set group =>   6
Atom 115H    basis set group =>   6
Atom 116H    basis set group =>   6
---------------------------------
AUXILIARY/J BASIS SET INFORMATION
---------------------------------
There are 6 groups of distinct atoms

 Group   1 Type C   : 12s5p4d2f1g contracted to 6s4p3d1f1g pattern {711111/2111/211/2/1}
 Group   2 Type O   : 12s5p4d2f1g contracted to 6s4p3d1f1g pattern {711111/2111/211/2/1}
 Group   3 Type F   : 12s5p4d2f1g contracted to 6s4p3d1f1g pattern {711111/2111/211/2/1}
 Group   4 Type N   : 12s5p4d2f1g contracted to 6s4p3d1f1g pattern {711111/2111/211/2/1}
 Group   5 Type S   : 14s5p5d2f1g contracted to 8s4p3d1f1g pattern {71111111/2111/311/2/1}
 Group   6 Type H   : 5s2p1d contracted to 3s1p1d pattern {311/2/1}

Atom   0C    basis set group =>   1
Atom   1O    basis set group =>   2
Atom   2C    basis set group =>   1
Atom   3C    basis set group =>   1
Atom   4C    basis set group =>   1
Atom   5F    basis set group =>   3
Atom   6C    basis set group =>   1
Atom   7F    basis set group =>   3
Atom   8C    basis set group =>   1
Atom   9C    basis set group =>   1
Atom  10C    basis set group =>   1
Atom  11C    basis set group =>   1
Atom  12C    basis set group =>   1
Atom  13N    basis set group =>   4
Atom  14C    basis set group =>   1
Atom  15N    basis set group =>   4
Atom  16C    basis set group =>   1
Atom  17C    basis set group =>   1
Atom  18C    basis set group =>   1
Atom  19C    basis set group =>   1
Atom  20C    basis set group =>   1
Atom  21C    basis set group =>   1
Atom  22S    basis set group =>   5
Atom  23C    basis set group =>   1
Atom  24C    basis set group =>   1
Atom  25O    basis set group =>   2
Atom  26C    basis set group =>   1
Atom  27C    basis set group =>   1
Atom  28C    basis set group =>   1
Atom  29C    basis set group =>   1
Atom  30C    basis set group =>   1
Atom  31C    basis set group =>   1
Atom  32C    basis set group =>   1
Atom  33C    basis set group =>   1
Atom  34C    basis set group =>   1
Atom  35C    basis set group =>   1
Atom  36C    basis set group =>   1
Atom  37C    basis set group =>   1
Atom  38C    basis set group =>   1
Atom  39C    basis set group =>   1
Atom  40C    basis set group =>   1
Atom  41C    basis set group =>   1
Atom  42C    basis set group =>   1
Atom  43C    basis set group =>   1
Atom  44C    basis set group =>   1
Atom  45C    basis set group =>   1
Atom  46C    basis set group =>   1
Atom  47C    basis set group =>   1
Atom  48C    basis set group =>   1
Atom  49C    basis set group =>   1
Atom  50C    basis set group =>   1
Atom  51C    basis set group =>   1
Atom  52C    basis set group =>   1
Atom  53O    basis set group =>   2
Atom  54C    basis set group =>   1
Atom  55C    basis set group =>   1
Atom  56S    basis set group =>   5
Atom  57C    basis set group =>   1
Atom  58C    basis set group =>   1
Atom  59C    basis set group =>   1
Atom  60C    basis set group =>   1
Atom  61C    basis set group =>   1
Atom  62N    basis set group =>   4
Atom  63C    basis set group =>   1
Atom  64N    basis set group =>   4
Atom  65C    basis set group =>   1
Atom  66C    basis set group =>   1
Atom  67C    basis set group =>   1
Atom  68F    basis set group =>   3
Atom  69C    basis set group =>   1
Atom  70F    basis set group =>   3
Atom  71C    basis set group =>   1
Atom  72C    basis set group =>   1
Atom  73C    basis set group =>   1
Atom  74O    basis set group =>   2
Atom  75H    basis set group =>   6
Atom  76H    basis set group =>   6
Atom  77H    basis set group =>   6
Atom  78H    basis set group =>   6
Atom  79H    basis set group =>   6
Atom  80H    basis set group =>   6
Atom  81H    basis set group =>   6
Atom  82H    basis set group =>   6
Atom  83H    basis set group =>   6
Atom  84H    basis set group =>   6
Atom  85H    basis set group =>   6
Atom  86H    basis set group =>   6
Atom  87H    basis set group =>   6
Atom  88H    basis set group =>   6
Atom  89H    basis set group =>   6
Atom  90H    basis set group =>   6
Atom  91H    basis set group =>   6
Atom  92H    basis set group =>   6
Atom  93H    basis set group =>   6
Atom  94H    basis set group =>   6
Atom  95H    basis set group =>   6
Atom  96H    basis set group =>   6
Atom  97H    basis set group =>   6
Atom  98H    basis set group =>   6
Atom  99H    basis set group =>   6
Atom 100H    basis set group =>   6
Atom 101H    basis set group =>   6
Atom 102H    basis set group =>   6
Atom 103H    basis set group =>   6
Atom 104H    basis set group =>   6
Atom 105H    basis set group =>   6
Atom 106H    basis set group =>   6
Atom 107H    basis set group =>   6
Atom 108H    basis set group =>   6
Atom 109H    basis set group =>   6
Atom 110H    basis set group =>   6
Atom 111H    basis set group =>   6
Atom 112H    basis set group =>   6
Atom 113H    basis set group =>   6
Atom 114H    basis set group =>   6
Atom 115H    basis set group =>   6
Atom 116H    basis set group =>   6


           ************************************************************
           *        Program running with 6 parallel MPI-processes     *
           *              working on a common directory               *
           ************************************************************
------------------------------------------------------------------------------
                           ORCA GTO INTEGRAL CALCULATION
                           -- RI-GTO INTEGRALS CHOSEN --
------------------------------------------------------------------------------

                         BASIS SET STATISTICS AND STARTUP INFO

Gaussian basis set:
 # of primitive gaussian shells          ... 1766
 # of primitive gaussian functions       ... 3820
 # of contracted shells                  ...  997
 # of contracted basis functions         ... 2589
 Highest angular momentum                ...    3
 Maximum contraction depth               ...    7
Auxiliary gaussian basis set:
 # of primitive gaussian shells          ... 2142
 # of primitive gaussian functions       ... 5936
 # of contracted shells                  ... 1339
 # of contracted aux-basis functions     ... 4141
 Highest angular momentum                ...    4
 Maximum contraction depth               ...    7
Ratio of auxiliary to basis functions    ...  1.60
Integral package used                  ... LIBINT
 One Electron integrals                  ... done
 Ordering auxiliary basis shells         ... done
 Integral threshhold             Thresh  ...  2.500e-11
 Primitive cut-off               TCut    ...  2.500e-12
 Pre-screening matrix                    ... done
 Shell pair data                         ... 
 Ordering of the shell pairs             ... done (   0.037 sec) 161840 of 497503 pairs
 Determination of significant pairs      ... done (   0.001 sec)
 Creation of shell pair data             ... done (   0.017 sec)
 Storage of shell pair data              ... done (   0.031 sec)
 Shell pair data done in (   0.085 sec)
 Computing two index integrals           ... done
 Cholesky decomposition of the V-matrix  ... done


Timings:
 Total evaluation time                   ...   7.591 sec (  0.127 min)
 One electron matrix time                ...   2.735 sec (  0.046 min) = 36.0%
 Schwartz matrix evaluation time         ...   3.618 sec (  0.060 min) = 47.7%
 Two index repulsion integral time       ...   0.395 sec (  0.007 min) =  5.2%
 Cholesky decomposition of V             ...   0.740 sec (  0.012 min) =  9.7%
 Three index repulsion integral time     ...   0.000 sec (  0.000 min) =  0.0%



           ************************************************************
           *        Program running with 6 parallel MPI-processes     *
           *              working on a common directory               *
           ************************************************************
-------------------------------------------------------------------------------
                                 ORCA SCF
-------------------------------------------------------------------------------

------------
SCF SETTINGS
------------
Hamiltonian:
 Density Functional     Method          .... DFT(GTOs)
 Exchange Functional    Exchange        .... B88
   X-Alpha parameter    XAlpha          ....  0.666667
   Becke's b parameter  XBeta           ....  0.004200
 Correlation Functional Correlation     .... LYP
 LDA part of GGA corr.  LDAOpt          .... VWN-5
 Gradients option       PostSCFGGA      .... off
 Hybrid DFT is turned on
   Fraction HF Exchange ScalHFX         ....  0.200000
   Scaling of DF-GGA-X  ScalDFX         ....  0.720000
   Scaling of DF-GGA-C  ScalDFC         ....  0.810000
   Scaling of DF-LDA-C  ScalLDAC        ....  1.000000
   Perturbative correction              ....  0.000000
   Density functional embedding theory  .... OFF
   NL short-range parameter             ....  4.800000
 RI-approximation to the Coulomb term is turned on
   Number of auxiliary basis functions  .... 4141
   RIJ-COSX (HFX calculated with COS-X)).... on


General Settings:
 Integral files         IntName         .... FO-2F
 Hartree-Fock type      HFTyp           .... RHF
 Total Charge           Charge          ....    0
 Multiplicity           Mult            ....    1
 Number of Electrons    NEL             ....  536
 Basis Dimension        Dim             .... 2589
 Nuclear Repulsion      ENuc            ....  11087.9271855525 Eh

Convergence Acceleration:
 DIIS                   CNVDIIS         .... on
   Start iteration      DIISMaxIt       ....    12
   Startup error        DIISStart       ....  0.200000
   # of expansion vecs  DIISMaxEq       ....     5
   Bias factor          DIISBfac        ....   1.050
   Max. coefficient     DIISMaxC        ....  10.000
 Newton-Raphson         CNVNR           .... off
 SOSCF                  CNVSOSCF        .... on
   Start iteration      SOSCFMaxIt      ....   150
   Startup grad/error   SOSCFStart      ....  0.003300
 Level Shifting         CNVShift        .... on
   Level shift para.    LevelShift      ....    0.2500
   Turn off err/grad.   ShiftErr        ....    0.0010
 Zerner damping         CNVZerner       .... off
 Static damping         CNVDamp         .... on
   Fraction old density DampFac         ....    0.7000
   Max. Damping (<1)    DampMax         ....    0.9800
   Min. Damping (>=0)   DampMin         ....    0.0000
   Turn off err/grad.   DampErr         ....    0.1000
 Fernandez-Rico         CNVRico         .... off

SCF Procedure:
 Maximum # iterations   MaxIter         ....   125
 SCF integral mode      SCFMode         .... Direct
   Integral package                     .... LIBINT
 Reset frequency        DirectResetFreq ....    20
 Integral Threshold     Thresh          ....  2.500e-11 Eh
 Primitive CutOff       TCut            ....  2.500e-12 Eh

Convergence Tolerance:
 Convergence Check Mode ConvCheckMode   .... Total+1el-Energy
 Convergence forced     ConvForced      .... 1
 Energy Change          TolE            ....  1.000e-08 Eh
 1-El. energy change                    ....  1.000e-05 Eh
 Orbital Gradient       TolG            ....  1.000e-05
 Orbital Rotation angle TolX            ....  1.000e-05
 DIIS Error             TolErr          ....  5.000e-07


Diagonalization of the overlap matrix:
Smallest eigenvalue                        ... 2.796e-06
Time for diagonalization                   ...    1.134 sec
Threshold for overlap eigenvalues          ... 1.000e-08
Number of eigenvalues below threshold      ... 0
Time for construction of square roots      ...    0.878 sec
Total time needed                          ...    2.027 sec

-------------------
DFT GRID GENERATION
-------------------

General Integration Accuracy     IntAcc      ...  4.670
Radial Grid Type                 RadialGrid  ... Gauss-Chebyshev
Angular Grid (max. acc.)         AngularGrid ... Lebedev-302
Angular grid pruning method      GridPruning ... 3 (G Style)
Weight generation scheme         WeightScheme... Becke
Basis function cutoff            BFCut       ...    1.0000e-11
Integration weight cutoff        WCut        ...    1.0000e-14
Grids for H and He will be reduced by one unit

# of grid points (after initial pruning)     ... 609956 (   0.0 sec)
# of grid points (after weights+screening)   ... 514815 (   8.8 sec)
nearest neighbour list constructed           ...    0.0 sec
Grid point re-assignment to atoms done       ...    0.1 sec
Grid point division into batches done        ...    1.7 sec
Reduced shell lists constructed in    3.6 sec

Total number of grid points                  ...   514815
Total number of batches                      ...     8105
Average number of points per batch           ...       63
Average number of grid points per atom       ...     4400
Average number of shells per batch           ...   132.62 (13.30%)
Average number of basis functions per batch  ...   345.28 (13.34%)
Average number of large shells per batch     ...    83.60 (63.03%)
Average number of large basis fcns per batch ...   222.55 (64.46%)
Maximum spatial batch extension              ...  18.12, 15.35, 22.18 au
Average spatial batch extension              ...   0.36,  0.37,  0.42 au

Time for grid setup =   13.242 sec

------------------------------
INITIAL GUESS: MODEL POTENTIAL
------------------------------
Loading Hartree-Fock densities                     ... done
Calculating cut-offs                               ... done
Setting up the integral package                    ... done
Initializing the effective Hamiltonian             ... done
Starting the Coulomb interaction                   ... done (   5.4 sec)
Reading the grid                                   ... done
Mapping shells                                     ... done
Starting the XC term evaluation                    ... done (   4.3 sec)
  promolecular density results
     # of electrons  =    535.980651426
     EX              =   -475.426753600
     EC              =    -18.700593915
     EX+EC           =   -494.127347515
Transforming the Hamiltonian                       ... done (   0.6 sec)
Diagonalizing the Hamiltonian                      ... done (   1.2 sec)
Back transforming the eigenvectors                 ... done (   0.3 sec)
Now organizing SCF variables                       ... done
                      ------------------
                      INITIAL GUESS DONE (  25.4 sec)
                      ------------------
--------------------
COSX GRID GENERATION
--------------------

General Integration Accuracy     IntAcc      ...  3.340
Radial Grid Type                 RadialGrid  ... Gauss-Chebyshev
Angular Grid (max. acc.)         AngularGrid ... Lebedev-50
Angular grid pruning method      GridPruning ... 3 (G Style)
Weight generation scheme         WeightScheme... Becke
Basis function cutoff            BFCut       ...    1.0000e-11
Integration weight cutoff        WCut        ...    1.0000e-14
Grids for H and He will be reduced by one unit

# of grid points (after initial pruning)     ...  57136 (   0.0 sec)
# of grid points (after weights+screening)   ...  50582 (   0.8 sec)
nearest neighbour list constructed           ...    0.0 sec
Grid point re-assignment to atoms done       ...    0.0 sec
Grid point division into batches done        ...    0.0 sec
Reduced shell lists constructed in    0.3 sec

Total number of grid points                  ...    50582
Total number of batches                      ...      851
Average number of points per batch           ...       59
Average number of grid points per atom       ...      432
Average number of shells per batch           ...   162.92 (16.34%)
Average number of basis functions per batch  ...   427.59 (16.52%)
Average number of large shells per batch     ...   102.77 (63.08%)
Average number of large basis fcns per batch ...   277.86 (64.98%)
Maximum spatial batch extension              ...  15.89, 15.86, 26.22 au
Average spatial batch extension              ...   0.68,  0.69,  0.94 au

Overlap Fitting                  UseSFitting ... on
Constructing numerical overlap ... done (      0.4 sec)
Inverting numerical overlap    ... done (      0.3 sec)
Obtaining analytic overlap     ... done (      0.0 sec)
Final contraction and storage  ... done (      0.5 sec)


General Integration Accuracy     IntAcc      ...  3.670
Radial Grid Type                 RadialGrid  ... Gauss-Chebyshev
Angular Grid (max. acc.)         AngularGrid ... Lebedev-50
Angular grid pruning method      GridPruning ... 3 (G Style)
Weight generation scheme         WeightScheme... Becke
Basis function cutoff            BFCut       ...    1.0000e-11
Integration weight cutoff        WCut        ...    1.0000e-14
Grids for H and He will be reduced by one unit

# of grid points (after initial pruning)     ...  71686 (   0.0 sec)
# of grid points (after weights+screening)   ...  63172 (   1.0 sec)
nearest neighbour list constructed           ...    0.0 sec
Grid point re-assignment to atoms done       ...    0.0 sec
Grid point division into batches done        ...    0.0 sec
Reduced shell lists constructed in    0.3 sec

Total number of grid points                  ...    63172
Total number of batches                      ...     1046
Average number of points per batch           ...       60
Average number of grid points per atom       ...      540
Average number of shells per batch           ...   161.08 (16.16%)
Average number of basis functions per batch  ...   422.01 (16.30%)
Average number of large shells per batch     ...   101.30 (62.89%)
Average number of large basis fcns per batch ...   273.30 (64.76%)
Maximum spatial batch extension              ...  16.87, 17.95, 19.69 au
Average spatial batch extension              ...   0.64,  0.66,  0.88 au

Overlap Fitting                  UseSFitting ... on
Constructing numerical overlap ... done (      0.4 sec)
Inverting numerical overlap    ... done (      0.3 sec)
Obtaining analytic overlap     ... done (      0.0 sec)
Final contraction and storage  ... done (      0.5 sec)


General Integration Accuracy     IntAcc      ...  4.010
Radial Grid Type                 RadialGrid  ... Gauss-Chebyshev
Angular Grid (max. acc.)         AngularGrid ... Lebedev-110
Angular grid pruning method      GridPruning ... 3 (G Style)
Weight generation scheme         WeightScheme... Becke
Basis function cutoff            BFCut       ...    1.0000e-11
Integration weight cutoff        WCut        ...    1.0000e-14
Grids for H and He will be reduced by one unit

# of grid points (after initial pruning)     ... 138212 (   0.0 sec)
# of grid points (after weights+screening)   ... 120555 (   2.1 sec)
nearest neighbour list constructed           ...    0.0 sec
Grid point re-assignment to atoms done       ...    0.0 sec
Grid point division into batches done        ...    0.1 sec
Reduced shell lists constructed in    0.6 sec

Total number of grid points                  ...   120555
Total number of batches                      ...     1950
Average number of points per batch           ...       61
Average number of grid points per atom       ...     1030
Average number of shells per batch           ...   147.83 (14.83%)
Average number of basis functions per batch  ...   386.89 (14.94%)
Average number of large shells per batch     ...    93.35 (63.15%)
Average number of large basis fcns per batch ...   250.79 (64.82%)
Maximum spatial batch extension              ...  18.04, 18.98, 22.00 au
Average spatial batch extension              ...   0.55,  0.57,  0.72 au

Overlap Fitting                  UseSFitting ... on
Constructing numerical overlap ... done (      0.7 sec)
Inverting numerical overlap    ... done (      0.3 sec)
Obtaining analytic overlap     ... done (      0.0 sec)
Final contraction and storage  ... done (      0.5 sec)

Time for X-Grid setup             =    9.775 sec
--------------
SCF ITERATIONS
--------------
ITER       Energy         Delta-E        Max-DP      RMS-DP      [F,P]     Damp
               ***  Starting incremental Fock matrix formation  ***
  0  -4062.7207903711   0.000000000000 0.14650624  0.00076581  0.2993082 0.7000
  1  -4063.6320409664  -0.911250595331 0.12645337  0.00060229  0.1031095 0.7000
                               ***Turning on DIIS***
  2  -4063.9528050647  -0.320764098309 0.13897389  0.00084029  0.0462173 0.0000
  3  -4064.5009170849  -0.548112020235 0.12043915  0.00054235  0.0557772 0.0000
  4  -4064.6096085624  -0.108691477457 0.03057238  0.00014851  0.0387208 0.0000
  5  -4064.6240653047  -0.014456742327 0.01705209  0.00007833  0.0107956 0.0000
                      *** Initiating the SOSCF procedure ***
                           *** Shutting down DIIS ***
                      *** Re-Reading the Fockian *** 
                      *** Removing any level shift *** 
ITER      Energy       Delta-E        Grad      Rot      Max-DP    RMS-DP
  6  -4064.62509809  -0.0010327891  0.000803  0.000803  0.004877  0.000027
               *** Restarting incremental Fock matrix formation ***
  7  -4064.62520405  -0.0001059609  0.000529  0.006078  0.010806  0.000052
  8  -4064.62520784  -0.0000037850  0.000281  0.002154  0.003767  0.000020
  9  -4064.62523048  -0.0000226416  0.000153  0.002023  0.003953  0.000019
 10  -4064.62523034   0.0000001456  0.000111  0.000304  0.000749  0.000004
 11  -4064.62523422  -0.0000038815  0.000079  0.001105  0.001278  0.000007
 12  -4064.62523288   0.0000013401  0.000114  0.000438  0.000296  0.000002
 13  -4064.62523484  -0.0000019624  0.000015  0.000261  0.000484  0.000003
 14  -4064.62523474   0.0000001028  0.000023  0.000117  0.000323  0.000001
 15  -4064.62523490  -0.0000001632  0.000006  0.000051  0.000800  0.000002
 16  -4064.62523470   0.0000002000  0.000006  0.000013  0.000219  0.000001
                  ***Gradient check signals convergence***
              ***Rediagonalizing the Fockian in SOSCF/NRSCF***

               *****************************************************
               *                     SUCCESS                       *
               *           SCF CONVERGED AFTER  17 CYCLES          *
               *****************************************************

Setting up the final grid:

General Integration Accuracy     IntAcc      ...  5.010
Radial Grid Type                 RadialGrid  ... Gauss-Chebyshev
Angular Grid (max. acc.)         AngularGrid ... Lebedev-434
Angular grid pruning method      GridPruning ... 3 (G Style)
Weight generation scheme         WeightScheme... Becke
Basis function cutoff            BFCut       ...    1.0000e-11
Integration weight cutoff        WCut        ...    1.0000e-14
Grids for H and He will be reduced by one unit

# of grid points (after initial pruning)     ... 1086122 (   0.1 sec)
# of grid points (after weights+screening)   ... 913528 (  15.1 sec)
nearest neighbour list constructed           ...    0.0 sec
Grid point re-assignment to atoms done       ...    0.1 sec
Grid point division into batches done        ...    5.6 sec
Reduced shell lists constructed in    8.8 sec

Total number of grid points                  ...   913528
Total number of batches                      ...    14331
Average number of points per batch           ...       63
Average number of grid points per atom       ...     7808
Average number of shells per batch           ...   130.23 (13.06%)
Average number of basis functions per batch  ...   338.14 (13.06%)
Average number of large shells per batch     ...    82.17 (63.09%)
Average number of large basis fcns per batch ...   218.34 (64.57%)
Maximum spatial batch extension              ...  18.25, 15.87, 22.66 au
Average spatial batch extension              ...   0.30,  0.30,  0.33 au

Final grid set up in   25.3 sec
Final integration                            ... done (   9.8 sec)
Change in XC energy                          ...     0.000053690
Integrated number of electrons               ...   535.999981329
Previous integrated no of electrons          ...   536.000521773
Old exchange energy                            =    -96.155044003 Eh
New exchange energy                            =    -96.155563908 Eh
Exchange energy change after final integration =     -0.000519906 Eh
Total energy after final integration           =  -4064.625701071 Eh
Final COS-X integration done in                =   292.665 sec

----------------
TOTAL SCF ENERGY
----------------

Total Energy       :        -4064.62570107 Eh         -110604.08833 eV

Components:
Nuclear Repulsion  :        11087.92718555 Eh          301717.83776 eV
Electronic Energy  :       -15152.55288662 Eh         -412321.92609 eV
One Electron Energy:       -27639.05455565 Eh         -752096.91033 eV
Two Electron Energy:        12486.50166903 Eh          339774.98424 eV

Virial components:
Potential Energy   :        -8112.62719481 Eh         -220755.80898 eV
Kinetic Energy     :         4048.00149374 Eh          110151.72065 eV
Virial Ratio       :            2.00410677


DFT components:
N(Alpha)           :      267.999990664305 electrons
N(Beta)            :      267.999990664305 electrons
N(Total)           :      535.999981328611 electrons
E(X)               :     -382.292178443662 Eh       
E(C)               :      -21.979852309447 Eh       
E(XC)              :     -404.272030753108 Eh       
DFET-embed. en.    :        0.000000000000 Eh       

---------------
SCF CONVERGENCE
---------------

  Last Energy change         ...   -1.5450e-07  Tolerance :   1.0000e-08
  Last MAX-Density change    ...    3.5527e-15  Tolerance :   1.0000e-07
  Last RMS-Density change    ...    1.1327e-17  Tolerance :   5.0000e-09
  Last Orbital Gradient      ...    1.6744e-06  Tolerance :   1.0000e-05
  Last Orbital Rotation      ...    2.3418e-05  Tolerance :   1.0000e-05

             **** THE GBW FILE WAS UPDATED (FO-2F.gbw) ****
             **** DENSITY FILE WAS UPDATED (FO-2F.scfp) ****
             **** ENERGY FILE WAS UPDATED (FO-2F.en.tmp) ****
             **** THE GBW FILE WAS UPDATED (FO-2F.gbw) ****
             **** DENSITY FILE WAS UPDATED (FO-2F.scfp) ****
----------------
ORBITAL ENERGIES
----------------

  NO   OCC          E(Eh)            E(eV) 
   0   2.0000     -88.914542     -2419.4877 
   1   2.0000     -88.912498     -2419.4321 
   2   2.0000     -24.729204      -672.9159 
   3   2.0000     -24.727520      -672.8700 
   4   2.0000     -24.726821      -672.8510 
   5   2.0000     -24.726516      -672.8427 
   6   2.0000     -19.177968      -521.8590 
   7   2.0000     -19.176976      -521.8321 
   8   2.0000     -19.139162      -520.8031 
   9   2.0000     -19.134718      -520.6822 
  10   2.0000     -14.335708      -390.0944 
  11   2.0000     -14.335143      -390.0791 
  12   2.0000     -14.334640      -390.0654 
  13   2.0000     -14.333965      -390.0470 
  14   2.0000     -10.302945      -280.3574 
  15   2.0000     -10.302258      -280.3387 
  16   2.0000     -10.302236      -280.3381 
  17   2.0000     -10.301473      -280.3173 
  18   2.0000     -10.286754      -279.9168 
  19   2.0000     -10.281356      -279.7699 
  20   2.0000     -10.269502      -279.4473 
  21   2.0000     -10.265945      -279.3506 
  22   2.0000     -10.265564      -279.3402 
  23   2.0000     -10.265453      -279.3372 
  24   2.0000     -10.265134      -279.3285 
  25   2.0000     -10.265015      -279.3253 
  26   2.0000     -10.263038      -279.2715 
  27   2.0000     -10.262380      -279.2536 
  28   2.0000     -10.245799      -278.8024 
  29   2.0000     -10.244239      -278.7599 
  30   2.0000     -10.243304      -278.7345 
  31   2.0000     -10.239800      -278.6391 
  32   2.0000     -10.238725      -278.6099 
  33   2.0000     -10.236099      -278.5384 
  34   2.0000     -10.235973      -278.5350 
  35   2.0000     -10.235885      -278.5326 
  36   2.0000     -10.235105      -278.5114 
  37   2.0000     -10.234685      -278.4999 
  38   2.0000     -10.234442      -278.4933 
  39   2.0000     -10.232388      -278.4374 
  40   2.0000     -10.224164      -278.2136 
  41   2.0000     -10.223726      -278.2017 
  42   2.0000     -10.223513      -278.1959 
  43   2.0000     -10.223292      -278.1899 
  44   2.0000     -10.223218      -278.1879 
  45   2.0000     -10.220215      -278.1062 
  46   2.0000     -10.220038      -278.1014 
  47   2.0000     -10.219473      -278.0860 
  48   2.0000     -10.218714      -278.0653 
  49   2.0000     -10.217828      -278.0412 
  50   2.0000     -10.217632      -278.0359 
  51   2.0000     -10.213301      -277.9180 
  52   2.0000     -10.212029      -277.8834 
  53   2.0000     -10.210764      -277.8490 
  54   2.0000     -10.209948      -277.8268 
  55   2.0000     -10.209269      -277.8083 
  56   2.0000     -10.208921      -277.7989 
  57   2.0000     -10.206656      -277.7372 
  58   2.0000     -10.206025      -277.7201 
  59   2.0000     -10.199574      -277.5445 
  60   2.0000     -10.199105      -277.5318 
  61   2.0000     -10.198720      -277.5213 
  62   2.0000     -10.197595      -277.4907 
  63   2.0000     -10.193554      -277.3807 
  64   2.0000     -10.192085      -277.3407 
  65   2.0000     -10.190206      -277.2896 
  66   2.0000     -10.187005      -277.2025 
  67   2.0000     -10.186566      -277.1906 
  68   2.0000     -10.186084      -277.1774 
  69   2.0000     -10.177531      -276.9447 
  70   2.0000     -10.175729      -276.8957 
  71   2.0000     -10.175637      -276.8932 
  72   2.0000     -10.173147      -276.8254 
  73   2.0000     -10.169391      -276.7232 
  74   2.0000     -10.165943      -276.6294 
  75   2.0000      -7.990608      -217.4355 
  76   2.0000      -7.988606      -217.3810 
  77   2.0000      -5.952976      -161.9887 
  78   2.0000      -5.951000      -161.9349 
  79   2.0000      -5.949268      -161.8878 
  80   2.0000      -5.947390      -161.8367 
  81   2.0000      -5.947380      -161.8364 
  82   2.0000      -5.945321      -161.7804 
  83   2.0000      -1.274460       -34.6798 
  84   2.0000      -1.272896       -34.6373 
  85   2.0000      -1.260190       -34.2915 
  86   2.0000      -1.259134       -34.2628 
  87   2.0000      -1.095711       -29.8158 
  88   2.0000      -1.093690       -29.7608 
  89   2.0000      -1.066693       -29.0262 
  90   2.0000      -1.062656       -28.9163 
  91   2.0000      -0.940646       -25.5963 
  92   2.0000      -0.940290       -25.5866 
  93   2.0000      -0.923642       -25.1336 
  94   2.0000      -0.923161       -25.1205 
  95   2.0000      -0.921752       -25.0822 
  96   2.0000      -0.921455       -25.0741 
  97   2.0000      -0.920246       -25.0412 
  98   2.0000      -0.919191       -25.0125 
  99   2.0000      -0.913743       -24.8642 
 100   2.0000      -0.879399       -23.9297 
 101   2.0000      -0.877306       -23.8727 
 102   2.0000      -0.876006       -23.8373 
 103   2.0000      -0.855125       -23.2691 
 104   2.0000      -0.843147       -22.9432 
 105   2.0000      -0.840378       -22.8679 
 106   2.0000      -0.826214       -22.4824 
 107   2.0000      -0.824922       -22.4473 
 108   2.0000      -0.821115       -22.3437 
 109   2.0000      -0.813678       -22.1413 
 110   2.0000      -0.800689       -21.7879 
 111   2.0000      -0.798547       -21.7296 
 112   2.0000      -0.797884       -21.7115 
 113   2.0000      -0.784120       -21.3370 
 114   2.0000      -0.775056       -21.0904 
 115   2.0000      -0.772739       -21.0273 
 116   2.0000      -0.771170       -20.9846 
 117   2.0000      -0.769998       -20.9527 
 118   2.0000      -0.765615       -20.8334 
 119   2.0000      -0.763087       -20.7647 
 120   2.0000      -0.760323       -20.6894 
 121   2.0000      -0.755910       -20.5694 
 122   2.0000      -0.737117       -20.0580 
 123   2.0000      -0.721454       -19.6318 
 124   2.0000      -0.714192       -19.4341 
 125   2.0000      -0.707282       -19.2461 
 126   2.0000      -0.698926       -19.0187 
 127   2.0000      -0.696830       -18.9617 
 128   2.0000      -0.686805       -18.6889 
 129   2.0000      -0.683673       -18.6037 
 130   2.0000      -0.674301       -18.3487 
 131   2.0000      -0.657832       -17.9005 
 132   2.0000      -0.648572       -17.6485 
 133   2.0000      -0.646124       -17.5819 
 134   2.0000      -0.642555       -17.4848 
 135   2.0000      -0.638829       -17.3834 
 136   2.0000      -0.637124       -17.3370 
 137   2.0000      -0.631467       -17.1831 
 138   2.0000      -0.627493       -17.0749 
[...]
   254a -> 268a  :     0.049490 (c= -0.22246321)
   256a -> 268a  :     0.015560 (c=  0.12473809)
   256a -> 269a  :     0.012047 (c= -0.10975671)
   257a -> 268a  :     0.015191 (c= -0.12325012)
   257a -> 269a  :     0.067473 (c= -0.25975521)
   257a -> 270a  :     0.214481 (c= -0.46312068)
   257a -> 271a  :     0.047722 (c=  0.21845320)
   260a -> 270a  :     0.085671 (c=  0.29269587)
   260a -> 271a  :     0.012799 (c= -0.11313344)
   261a -> 268a  :     0.012622 (c=  0.11234860)
   261a -> 270a  :     0.025224 (c= -0.15881925)
   262a -> 269a  :     0.019376 (c= -0.13919665)
   262a -> 270a  :     0.046175 (c=  0.21488437)
   262a -> 271a  :     0.037719 (c= -0.19421479)
   263a -> 270a  :     0.010484 (c= -0.10239149)
   264a -> 272a  :     0.047474 (c= -0.21788609)
   265a -> 272a  :     0.015322 (c= -0.12378198)
   266a -> 273a  :     0.015733 (c= -0.12542939)
   267a -> 275a  :     0.141382 (c= -0.37600829)

STATE 46:  E=   0.155316 au      4.226 eV    34087.9 cm**-1
   255a -> 268a  :     0.032244 (c=  0.17956625)
   255a -> 270a  :     0.015855 (c= -0.12591602)
   256a -> 269a  :     0.201366 (c=  0.44873800)
   256a -> 271a  :     0.012327 (c=  0.11102703)
   257a -> 268a  :     0.013523 (c= -0.11628934)
   257a -> 270a  :     0.019498 (c=  0.13963484)
   258a -> 270a  :     0.012168 (c=  0.11030921)
   258a -> 271a  :     0.019302 (c=  0.13893223)
   261a -> 268a  :     0.019301 (c= -0.13892719)
   261a -> 270a  :     0.035498 (c=  0.18841020)
   264a -> 272a  :     0.062928 (c= -0.25085393)
   267a -> 274a  :     0.263482 (c= -0.51330511)
   267a -> 275a  :     0.096628 (c= -0.31085000)

STATE 47:  E=   0.156651 au      4.263 eV    34380.8 cm**-1
   253a -> 268a  :     0.013293 (c= -0.11529699)
   254a -> 268a  :     0.044273 (c=  0.21041104)
   254a -> 269a  :     0.052756 (c= -0.22968747)
   255a -> 268a  :     0.041194 (c=  0.20296304)
   256a -> 269a  :     0.275286 (c=  0.52467715)
   257a -> 270a  :     0.011733 (c= -0.10832064)
   258a -> 270a  :     0.027136 (c= -0.16473075)
   258a -> 271a  :     0.040454 (c= -0.20113115)
   261a -> 270a  :     0.094703 (c= -0.30773917)
   261a -> 271a  :     0.079806 (c= -0.28249937)
   262a -> 271a  :     0.025184 (c= -0.15869462)
   265a -> 272a  :     0.018213 (c= -0.13495513)
   266a -> 273a  :     0.167222 (c=  0.40892732)
   267a -> 272a  :     0.011358 (c=  0.10657345)

STATE 48:  E=   0.157206 au      4.278 eV    34502.7 cm**-1
   254a -> 268a  :     0.116739 (c=  0.34167024)
   254a -> 270a  :     0.012099 (c= -0.10999405)
   257a -> 270a  :     0.020462 (c= -0.14304468)
   257a -> 271a  :     0.010990 (c=  0.10483224)
   258a -> 270a  :     0.017362 (c= -0.13176530)
   258a -> 271a  :     0.012078 (c= -0.10990102)
   261a -> 271a  :     0.428537 (c=  0.65462747)
   262a -> 270a  :     0.065648 (c=  0.25621916)
   262a -> 271a  :     0.019187 (c=  0.13851613)
   264a -> 272a  :     0.011689 (c=  0.10811486)
   265a -> 272a  :     0.118582 (c= -0.34435801)
   267a -> 276a  :     0.028963 (c= -0.17018502)

STATE 49:  E=   0.157847 au      4.295 eV    34643.4 cm**-1
   255a -> 268a  :     0.048975 (c=  0.22130262)
   255a -> 269a  :     0.033467 (c= -0.18294083)
   256a -> 268a  :     0.011819 (c= -0.10871659)
   257a -> 270a  :     0.015114 (c= -0.12293943)
   258a -> 270a  :     0.199866 (c=  0.44706332)
   258a -> 271a  :     0.352387 (c=  0.59362181)
   261a -> 270a  :     0.011086 (c= -0.10529203)
   261a -> 271a  :     0.020387 (c=  0.14278182)
   266a -> 273a  :     0.080127 (c=  0.28306687)
   267a -> 274a  :     0.068113 (c=  0.26098433)
   267a -> 275a  :     0.010258 (c=  0.10128116)
   267a -> 276a  :     0.014822 (c=  0.12174760)

STATE 50:  E=   0.158618 au      4.316 eV    34812.7 cm**-1
   255a -> 268a  :     0.047193 (c= -0.21724023)
   256a -> 269a  :     0.094270 (c= -0.30703449)
   264a -> 272a  :     0.026003 (c= -0.16125506)
   265a -> 272a  :     0.103716 (c=  0.32204908)
   266a -> 273a  :     0.425507 (c=  0.65230876)
   266a -> 274a  :     0.011202 (c=  0.10584108)
   267a -> 274a  :     0.062116 (c= -0.24923093)
   267a -> 275a  :     0.065004 (c= -0.25495963)
   267a -> 276a  :     0.040230 (c= -0.20057307)
   267a -> 279a  :     0.011621 (c= -0.10779961)


-----------------------------
TD-DFT/TDA-EXCITATION SPECTRA
-----------------------------

Center of mass = ( 19.0790,  4.3591, -7.0499)
Calculating the Dipole integrals                  ... done
Transforming integrals                            ... done
Calculating the Linear Momentum integrals         ... done
Transforming integrals                            ... done
Calculating angular momentum integrals            ... done
Transforming integrals                            ... done

-----------------------------------------------------------------------------
         ABSORPTION SPECTRUM VIA TRANSITION ELECTRIC DIPOLE MOMENTS
-----------------------------------------------------------------------------
State   Energy    Wavelength  fosc         T2        TX        TY        TZ  
        (cm-1)      (nm)                 (au**2)    (au)      (au)      (au) 
-----------------------------------------------------------------------------
   1   15676.8    637.9   1.943809796  40.81983   3.54139   3.93248  -3.57966
   2   17500.0    571.4   0.075254066   1.41569  -1.18235  -0.08746  -0.10048
   3   19584.9    510.6   0.169118980   2.84280  -0.18062  -1.16860   1.20189
   4   19863.1    503.4   0.315903358   5.23580  -1.97122  -0.86571   0.77501
   5   21164.3    472.5   0.192208147   2.98981  -0.80071  -1.34209   0.73991
   6   21467.2    465.8   0.121757984   1.86723   0.85062  -0.57652   0.90072
   7   23827.3    419.7   0.055225689   0.76303   0.76467   0.32434  -0.27039
   8   24010.9    416.5   0.117923049   1.61684  -0.69952  -0.85159   0.63427
   9   24204.8    413.1   0.063454594   0.86305  -0.85089   0.07242  -0.36579
  10   24826.0    402.8   0.106993531   1.41882  -0.10774  -0.88483   0.79011
  11   25477.2    392.5   0.034400589   0.44452   0.37843   0.44206  -0.32540
  12   25864.7    386.6   0.041104147   0.52318   0.05323   0.56605  -0.44714
  13   26103.3    383.1   0.070403902   0.88793   0.59165   0.68794  -0.25421
  14   26413.6    378.6   0.013782314   0.17178  -0.38582  -0.11998   0.09233
  15   26674.6    374.9   0.139407162   1.72053  -1.02799  -0.42078   0.69765
  16   27109.1    368.9   0.031506894   0.38262  -0.57007  -0.02351   0.23893
  17   27284.2    366.5   0.010646387   0.12846  -0.02603   0.05697   0.35290
  18   27544.2    363.1   0.046892486   0.56046   0.17691   0.62090  -0.37901
  19   27854.0    359.0   0.021042044   0.24870   0.37952   0.30965  -0.09372
  20   28446.0    351.5   0.024770625   0.28668  -0.25062   0.25684   0.39736
  21   28591.5    349.8   0.062908684   0.72435   0.77314   0.27251  -0.22878
  22   28667.8    348.8   0.009793229   0.11246  -0.27090   0.11331  -0.16197
  23   29053.4    344.2   0.006084656   0.06895  -0.19206  -0.15814   0.08397
  24   29214.0    342.3   0.025066997   0.28248   0.50272  -0.07305  -0.15625
  25   29547.8    338.4   0.102870846   1.14616  -0.03349  -1.00951   0.35487
  26   29836.6    335.2   0.005353114   0.05907   0.21895  -0.10545   0.00270
  27   30013.9    333.2   0.009551540   0.10477  -0.26887  -0.15157  -0.09747
  28   30287.8    330.2   0.014663857   0.15939  -0.28484   0.27811   0.03014
  29   30427.1    328.7   0.025535381   0.27628  -0.14171   0.26833   0.42919
  30   30676.4    326.0   0.004559882   0.04894   0.20872   0.01995   0.07051
  31   30714.5    325.6   0.015192406   0.16284  -0.35269  -0.09629   0.17081
  32   31058.0    322.0   0.009227140   0.09781  -0.30812  -0.04812  -0.02345
  33   31602.7    316.4   0.113691485   1.18435   0.64690   0.85624  -0.18088
  34   31684.1    315.6   0.011084386   0.11517  -0.33615  -0.04586   0.00843
  35   31740.3    315.1   0.029419273   0.30514   0.04458  -0.51975   0.18169
  36   32035.1    312.2   0.003216190   0.03305   0.17583  -0.04369   0.01498
  37   32149.8    311.0   0.071766247   0.73488  -0.70232  -0.48179   0.09753
  38   32370.6    308.9   0.024065613   0.24475  -0.23420  -0.42941  -0.07421
  39   32789.3    305.0   0.078604753   0.78921   0.87075  -0.07602   0.15882
  40   32976.6    303.2   0.107099031   1.06919  -0.00011  -0.98622   0.31075
  41   33068.4    302.4   0.127290363   1.26724   1.11737  -0.07502   0.11439
  42   33194.3    301.3   0.330476633   3.27758  -0.54620   1.67005  -0.43610
  43   33586.0    297.7   0.050786732   0.49781   0.65959   0.12935   0.21453
  44   33757.6    296.2   0.027163280   0.26490  -0.49092  -0.15459  -0.00153
  45   33803.6    295.8   0.071602661   0.69734   0.40014  -0.72605   0.10038
  46   34087.9    293.4   0.131205910   1.26715   0.70967   0.86435   0.12816
  47   34380.8    290.9   0.084128779   0.80557  -0.59063  -0.66744   0.10611
  48   34502.7    289.8   0.001441133   0.01375   0.09096   0.00218   0.07398
  49   34643.4    288.7   0.037950422   0.36064   0.44441  -0.40249   0.03373
  50   34812.7    287.3   0.004069387   0.03848   0.00654  -0.01004   0.19580

-----------------------------------------------------------------------------
         ABSORPTION SPECTRUM VIA TRANSITION VELOCITY DIPOLE MOMENTS
-----------------------------------------------------------------------------
State   Energy    Wavelength   fosc        P2         PX        PY        PZ  
        (cm-1)      (nm)                 (au**2)     (au)      (au)      (au) 
-----------------------------------------------------------------------------
   1   15676.8    637.9   0.573180029   0.06141  -0.13238  -0.16587   0.12797
   2   17500.0    571.4   0.011349204   0.00136  -0.01468   0.01889  -0.02802
   3   19584.9    510.6   0.052273735   0.00700   0.07078   0.04097  -0.01759
   4   19863.1    503.4   0.065800959   0.00893   0.00797   0.07516  -0.05675
   5   21164.3    472.5   0.086741776   0.01255   0.06649   0.07127  -0.05520
   6   21467.2    465.8   0.005437359   0.00080   0.01898   0.01519   0.01438
   7   23827.3    419.7   0.037545185   0.00611  -0.07450  -0.01518   0.01825
   8   24010.9    416.5   0.130893251   0.02148   0.08605   0.07455  -0.09229
   9   24204.8    413.1   0.016575210   0.00274   0.03700  -0.02519   0.02717
  10   24826.0    402.8   0.061703801   0.01047   0.04989   0.07336  -0.05097
  11   25477.2    392.5   0.021866663   0.00381  -0.03681  -0.03871   0.03089
  12   25864.7    386.6   0.014735957   0.00260  -0.02148  -0.03391   0.03152
  13   26103.3    383.1   0.015090595   0.00269  -0.01393  -0.03288   0.03764
  14   26413.6    378.6   0.020137837   0.00364   0.05932   0.00293  -0.01037
  15   26674.6    374.9   0.025316387   0.00462   0.04367   0.04842  -0.01907
  16   27109.1    368.9   0.027875725   0.00516   0.07030   0.01491  -0.00041
  17   27284.2    366.5   0.004247175   0.00079   0.01252   0.01693  -0.01867
  18   27544.2    363.1   0.003638898   0.00069  -0.00905  -0.01225   0.02129
  19   27854.0    359.0   0.012480355   0.00238   0.03840  -0.02267   0.01969
  20   28446.0    351.5   0.013243253   0.00257   0.01866   0.01462  -0.04486
  21   28591.5    349.8   0.008362203   0.00163  -0.03679  -0.00715   0.01514
  22   28667.8    348.8   0.002704425   0.00053   0.00812  -0.00404   0.02116
  23   29053.4    344.2   0.008411463   0.00167  -0.01666   0.03414   0.01508
  24   29214.0    342.3   0.062724291   0.01252   0.07566  -0.04612   0.06836
  25   29547.8    338.4   0.027793457   0.00561   0.05577   0.04094  -0.02875
  26   29836.6    335.2   0.000504728   0.00010  -0.00324   0.00760  -0.00589
  27   30013.9    333.2   0.008086289   0.00166   0.02535   0.01503  -0.02811
  28   30287.8    330.2   0.006203839   0.00128  -0.02780  -0.01577   0.01621
  29   30427.1    328.7   0.013003355   0.00270  -0.04117  -0.02175   0.02315
  30   30676.4    326.0   0.000883156   0.00019  -0.01294   0.00243   0.00345
  31   30714.5    325.6   0.002286969   0.00048   0.01888   0.00648   0.00903
  32   31058.0    322.0   0.007909632   0.00168   0.03695  -0.00904   0.01522
  33   31602.7    316.4   0.025547692   0.00552  -0.03558  -0.04271   0.04927
  34   31684.1    315.6   0.001920515   0.00042  -0.01684   0.00211   0.01131
  35   31740.3    315.1   0.009015590   0.00196  -0.01743   0.02632  -0.03097
  36   32035.1    312.2   0.000197808   0.00004   0.00059   0.00440  -0.00486
  37   32149.8    311.0   0.009982706   0.00219  -0.02540   0.03038  -0.02500
  38   32370.6    308.9   0.004116210   0.00091   0.01353   0.02137  -0.01646
  39   32789.3    305.0   0.012002863   0.00269   0.04173  -0.01969   0.02369
  40   32976.6    303.2   0.008163743   0.00184   0.03498   0.02103   0.01318
  41   33068.4    302.4   0.025844149   0.00584   0.03317  -0.03166   0.06114
  42   33194.3    301.3   0.009157863   0.00208  -0.01888  -0.04112   0.00547
  43   33586.0    297.7   0.017111236   0.00393   0.04463  -0.03985   0.01866
  44   33757.6    296.2   0.004594977   0.00106   0.02850  -0.00448   0.01509
  45   33803.6    295.8   0.001023980   0.00024  -0.00329   0.01456  -0.00371
  46   34087.9    293.4   0.022756965   0.00530   0.00891  -0.06333   0.03480
  47   34380.8    290.9   0.013845823   0.00325   0.01239   0.05373  -0.01460
  48   34502.7    289.8   0.013766725   0.00325   0.04598  -0.02331   0.02426
  49   34643.4    288.7   0.041804264   0.00990   0.09464   0.01348  -0.02756
  50   34812.7    287.3   0.001327059   0.00032  -0.01136   0.01314   0.00376

-------------------------------------------------------------------
                             CD SPECTRUM
-------------------------------------------------------------------
State  Energy     Wavelength     R         MX        MY        MZ   
       (cm-1)       (nm)     (1e40*cgs)   (au)      (au)      (au)  
-------------------------------------------------------------------
   1   15676.8    637.9    372.53950   0.04620   0.17812   0.02063
   2   17500.0    571.4    -42.99736   0.05736   0.04404   0.19437
   3   19584.9    510.6    -88.47967  -0.01188  -0.23388  -0.38533
   4   19863.1    503.4    -53.94231   0.09189  -0.23518  -0.17662
   5   21164.3    472.5     34.55053  -0.02710  -0.00756   0.05601
   6   21467.2    465.8    -399.50302  -0.42250  -0.10881  -0.61144
   7   23827.3    419.7     40.55474   0.01525   0.18482  -0.05330
   8   24010.9    416.5    158.71393   0.01625  -0.45675  -0.06455
   9   24204.8    413.1    -214.25528   0.36390   0.05636   0.40708
  10   24826.0    402.8    -57.59165  -0.22658  -0.17654  -0.38321
  11   25477.2    392.5     32.63978   0.03512   0.15561   0.03948
  12   25864.7    386.6     -9.25123   0.05417   0.20890   0.31479
  13   26103.3    383.1     35.86447  -0.02661   0.27524   0.38367
  14   26413.6    378.6      0.54648   0.05570  -0.08026   0.14104
  15   26674.6    374.9    -44.48677   0.10240  -0.08887  -0.03797
  16   27109.1    368.9    -62.68597   0.20623  -0.31437  -0.09538
  17   27284.2    366.5    -11.36232  -0.02928   0.02135  -0.07390
  18   27544.2    363.1    -35.68274  -0.21537  -0.16626  -0.17320
  19   27854.0    359.0     49.71281   0.31559   0.01119   0.18983
  20   28446.0    351.5     32.83361   0.08730   0.17027   0.12027
  21   28591.5    349.8    -11.79953  -0.06077   0.04166  -0.04636
  22   28667.8    348.8     -3.37624   0.02546  -0.15702  -0.10822
  23   29053.4    344.2     30.14372  -0.11858  -0.47362  -0.40173
  24   29214.0    342.3     34.66785   0.18879  -0.10509   0.18593
  25   29547.8    338.4    110.63009  -0.06955  -0.36551  -0.38510
  26   29836.6    335.2    -14.88263  -0.16538  -0.04902  -0.19554
  27   30013.9    333.2    -11.94005   0.07935  -0.02473   0.07940
  28   30287.8    330.2     10.33941   0.12951   0.18066   0.28454
  29   30427.1    328.7     77.50517  -0.01984   0.28301   0.19956
  30   30676.4    326.0    -17.97881  -0.14126   0.02948  -0.13104
  31   30714.5    325.6     -1.67058   0.01134  -0.14069  -0.07664
  32   31058.0    322.0      7.66138  -0.04978  -0.01241  -0.01344
  33   31602.7    316.4    112.80936   0.18271   0.18079   0.18641
  34   31684.1    315.6     23.42775  -0.12281  -0.21654  -0.18033
  35   31740.3    315.1     16.98531   0.03155  -0.00847   0.16631
  36   32035.1    312.2      2.11535   0.03675   0.03423  -0.03196
  37   32149.8    311.0     44.76983  -0.06116  -0.11914  -0.05525
  38   32370.6    308.9     -8.33578   0.02867   0.03313  -0.04390
  39   32789.3    305.0     26.67577   0.04296  -0.09287   0.07629
  40   32976.6    303.2     80.29438  -0.07461  -0.21916  -0.14748
  41   33068.4    302.4    115.67112   0.19332  -0.11009   0.18432
  42   33194.3    301.3    156.20946   0.08231   0.24706   0.08326
  43   33586.0    297.7     71.46027   0.12986   0.09349   0.25090
  44   33757.6    296.2    -10.11391   0.05566  -0.03790  -0.00728
  45   33803.6    295.8    -13.68393  -0.00781   0.05123   0.11254
  46   34087.9    293.4    148.15452   0.16622   0.18880   0.25827
  47   34380.8    290.9    116.82854  -0.13243  -0.30639  -0.32894
  48   34502.7    289.8     16.71307   0.21201  -0.04971   0.21999
  49   34643.4    288.7     18.17497   0.09041   0.01114   0.08467
  50   34812.7    287.3      9.63967   0.03374   0.26054   0.11666

Total run time:    17641.517 sec

           *** ORCA-CIS/TD-DFT FINISHED WITHOUT ERROR ***

-----------------------
CIS/TD-DFT TOTAL ENERGY
-----------------------

    E(SCF)  =  -4064.625701071 Eh
    DE(CIS) =      0.071428884 Eh (Root  1)
    ----------------------------- ---------
    E(tot)  =  -4064.554272187 Eh


-------------------------   --------------------
FINAL SINGLE POINT ENERGY     -4064.554272186882
-------------------------   --------------------


                            ***************************************
                            *     ORCA property calculations      *
                            ***************************************

                                    ---------------------
                                    Active property flags
                                    ---------------------
   (+) Dipole Moment


------------------------------------------------------------------------------
                       ORCA ELECTRIC PROPERTIES CALCULATION
------------------------------------------------------------------------------

Dipole Moment Calculation                       ... on
Quadrupole Moment Calculation                   ... off
Polarizability Calculation                      ... off
GBWName                                         ... FO-2F.gbw
Electron density file                           ... FO-2F.scfp
The origin for moment calculation is the CENTER OF MASS  = (19.079042,  4.359103 -7.049948)

-------------
DIPOLE MOMENT
-------------
                                X             Y             Z
Electronic contribution:    -49.50515      21.10795     -22.38874
Nuclear contribution   :     53.36417     -21.99009      23.88847
                        -----------------------------------------
Total Dipole Moment    :      3.85902      -0.88214       1.49973
                        -----------------------------------------
Magnitude (a.u.)       :      4.23313
Magnitude (Debye)      :     10.75977



--------------------
Rotational spectrum 
--------------------
 
Rotational constants in cm-1:     0.001861     0.000237     0.000226 
Rotational constants in MHz :    55.780428     7.096787     6.762904 

 Dipole components along the rotational axes: 
x,y,z [a.u.] :     0.740534    -3.906039     1.453917 
x,y,z [Debye]:     1.882288    -9.928361     3.695564 

 

Timings for individual modules:

Sum of individual times         ...    20499.759 sec (= 341.663 min)
GTO integral calculation        ...        8.531 sec (=   0.142 min)   0.0 %
SCF iterations                  ...     2847.911 sec (=  47.465 min)  13.9 %
CIS module                      ...    17643.317 sec (= 294.055 min)  86.1 %
                             ****ORCA TERMINATED NORMALLY****
TOTAL RUN TIME: 0 days 5 hours 41 minutes 42 seconds 225 msec
