
                                 *****************
                                 * O   R   C   A *
                                 *****************

           --- An Ab Initio, DFT and Semiempirical electronic structure package ---

                  #######################################################
                  #                        -***-                        #
                  #          Department of theory and spectroscopy      #
                  #               Directorship: Frank Neese             #
                  #        Max Planck Institute fuer Kohlenforschung    #
                  #                Kaiser Wilhelm Platz 1               #
                  #                 D-45470 Muelheim/Ruhr               #
                  #                      Germany                        #
                  #                                                     #
                  #                  All rights reserved                #
                  #                        -***-                        #
                  #######################################################


                         Program Version 4.2.0 -  RELEASE  -


 With contributions from (in alphabetic order):
   Daniel Aravena         : Magnetic Suceptibility
   Michael Atanasov       : Ab Initio Ligand Field Theory (pilot matlab implementation)
   Alexander A. Auer      : GIAO ZORA, VPT2
   Ute Becker             : Parallelization
   Giovanni Bistoni       : ED, misc. LED, open-shell LED, HFLED
   Martin Brehm           : Molecular dynamics
   Dmytro Bykov           : SCF Hessian
   Vijay G. Chilkuri      : MRCI spin determinant printing, contributions to CSF-ICE
   Dipayan Datta          : RHF DLPNO-CCSD density
   Achintya Kumar Dutta   : EOM-CC, STEOM-CC
   Dmitry Ganyushin       : Spin-Orbit,Spin-Spin,Magnetic field MRCI
   Miquel Garcia          : C-PCM Hessian, Gaussian charge scheme
   Yang Guo               : DLPNO-NEVPT2, CIM, IAO-localization
   Andreas Hansen         : Spin unrestricted coupled pair/coupled cluster methods
   Benjamin Helmich-Paris : CASSCF linear response (MC-RPA)
   Lee Huntington         : MR-EOM, pCC
   Robert Izsak           : Overlap fitted RIJCOSX, COSX-SCS-MP3, EOM
   Christian Kollmar      : KDIIS, OOCD, Brueckner-CCSD(T), CCSD density
   Simone Kossmann        : Meta GGA functionals, TD-DFT gradient, OOMP2, MP2 Hessian
   Martin Krupicka        : AUTO-CI
   Lucas Lang             : DCDCAS
   Dagmar Lenk            : GEPOL surface, SMD
   Dimitrios Liakos       : Extrapolation schemes; Compound Job, initial MDCI parallelization
   Dimitrios Manganas     : Further ROCIS development; embedding schemes
   Dimitrios Pantazis     : SARC Basis sets
   Taras Petrenko         : DFT Hessian,TD-DFT gradient, ASA, ECA, R-Raman, ABS, FL, XAS/XES, NRVS
   Peter Pinski           : DLPNO-MP2, DLPNO-MP2 Gradient
   Christoph Reimann      : Effective Core Potentials
   Marius Retegan         : Local ZFS, SOC
   Christoph Riplinger    : Optimizer, TS searches, QM/MM, DLPNO-CCSD(T), (RO)-DLPNO pert. Triples
   Tobias Risthaus        : Range-separated hybrids, TD-DFT gradient, RPA, STAB
   Michael Roemelt        : Original ROCIS implementation
   Masaaki Saitow         : Open-shell DLPNO-CCSD energy and density
   Barbara Sandhoefer     : DKH picture change effects
   Avijit Sen             : IP-ROCIS
   Kantharuban Sivalingam : CASSCF convergence, NEVPT2, FIC-MRCI
   Bernardo de Souza      : ESD, SOC TD-DFT
   Georgi Stoychev        : AutoAux, RI-MP2 NMR
   Willem Van den Heuvel  : Paramagnetic NMR
   Boris Wezisla          : Elementary symmetry handling
   Frank Wennmohs         : Technical directorship


 We gratefully acknowledge several colleagues who have allowed us to
 interface, adapt or use parts of their codes:
   Stefan Grimme, W. Hujo, H. Kruse,             : VdW corrections, initial TS optimization,
                  C. Bannwarth                     DFT functionals, gCP, sTDA/sTD-DF
   Ed Valeev, F. Pavosevic, A. Kumar             : LibInt (2-el integral package), F12 methods
   Garnet Chan, S. Sharma, J. Yang, R. Olivares  : DMRG
   Ulf Ekstrom                                   : XCFun DFT Library
   Mihaly Kallay                                 : mrcc  (arbitrary order and MRCC methods)
   Andreas Klamt, Michael Diedenhofen            : otool_cosmo (COSMO solvation model)
   Jiri Pittner, Ondrej Demel                    : Mk-CCSD
   Frank Weinhold                                : gennbo (NPA and NBO analysis)
   Christopher J. Cramer and Donald G. Truhlar   : smd solvation model
   Lars Goerigk                                  : TD-DFT with DH, B97 family of functionals
   V. Asgeirsson, H. Jonsson                     : NEB implementation
   FAccTs GmbH                                   : IRC, NEB, NEB-TS, Multilevel, MM, QM/MM, CI optimization
   S Lehtola, MJT Oliveira, MAL Marques          : LibXC Library


 Your calculation uses the libint2 library for the computation of 2-el integrals
 For citations please refer to: http://libint.valeyev.net

 Your ORCA version has been built with support for libXC version: 4.2.3
 For citations please refer to: https://tddft.org/programs/libxc/

 This ORCA versions uses:
   CBLAS   interface :  Fast vector & matrix operations
   LAPACKE interface :  Fast linear algebra routines
   SCALAPACK package :  Parallel linear algebra routines


----- Orbital basis set information -----
Your calculation utilizes the basis: def2-TZVP
   F. Weigend and R. Ahlrichs, Phys. Chem. Chem. Phys. 7, 3297 (2005).

----- AuxJ basis set information -----
Your calculation utilizes the auxiliary basis: def2/J
   F. Weigend, Phys. Chem. Chem. Phys. 8, 1057 (2006).

================================================================================
                                        WARNINGS
                       Please study these warnings very carefully!
================================================================================

INFO   : Checking CIS options ...

WARNING: CIS/ROCIS methods need fully converged wavefunctions
  ===> : Setting SCFConvForced true
         You can overwrite this default with %scf ConvForced false 


INFO   : the flag for use of LIBINT has been found!

================================================================================
                                       INPUT FILE
================================================================================
NAME = i-cc23.inp
|  1> # ORCA input file
|  2> # i-cc23.out: Geometry 69
|  3> ! B3LYP def2-TZVP def2/J RIJCOSX Grid4 TightSCF
|  4> 
|  5> %maxcore 6000
|  6> %tddft
|  7>   maxdim 5
|  8>   nroots 50
|  9>   end
| 10> %pal
| 11>   nprocs 6
| 12>   end
| 13> 
| 14> 
| 15> * xyz 0 1
| 16>    C       -0.87374        -4.46936        -0.35846
| 17>    C        0.54846        -4.30082        -0.55204
| 18>    S        1.18972        -4.18798        -2.19157
| 19>    C        2.77167        -3.91136        -1.56851
| 20>    C        2.80843        -3.89564        -0.18563
| 21>    C        1.54108        -4.12317         0.40347
| 22>    C        4.06457        -3.60716        -2.13648
| 23>    C        4.96765        -3.44183        -1.05373
| 24>    C        4.22813        -3.59095         0.29693
| 25>    C        4.45759        -3.39465        -3.46170
| 26>    C        5.77147        -3.01940        -3.69223
| 27>    C        6.68809        -2.87135        -2.61938
| 28>    C        6.28830        -3.07794        -1.28858
| 29>    C        6.40476        -2.60736        -5.03280
| 30>    C        7.82536        -2.27802        -4.58308
| 31>    C        7.94182        -2.43270        -3.21100
| 32>    C        9.01043        -1.79898        -5.19408
| 33>    C       10.03032        -1.59501        -4.27806
| 34>    S        9.51394        -2.00458        -2.63772
| 35>    C        4.34048        -2.23193         1.00815
| 36>    C        4.73417        -4.73432         1.17982
| 37>    C        6.38966        -3.71759        -6.08781
| 38>    C        5.62068        -1.36419        -5.49862
| 39>    C        5.61997        -5.71269         0.72080
| 40>    C        6.05204        -6.73977         1.56755
| 41>    C        5.61814        -6.82068         2.89565
| 42>    C        4.70780        -5.84781         3.34358
| 43>    C        4.27252        -4.82746         2.50346
| 44>    C        3.40381        -1.21489         0.79734
| 45>    C        3.59860         0.06043         1.33760
| 46>    C        4.73605         0.36233         2.09633
| 47>    C        5.66406        -0.66746         2.31780
| 48>    C        5.46890        -1.94156         1.79132
| 49>    C        4.45148        -1.51179        -6.25595
| 50>    C        3.64786        -0.41325        -6.56291
| 51>    C        3.98204         0.87713        -6.12905
| 52>    C        5.15625         1.01856        -5.37326
| 53>    C        5.96229        -0.07753        -5.06282
| 54>    C        6.69678        -3.41128        -7.42209
| 55>    C        6.63089        -4.38752        -8.41576
| 56>    C        6.26149        -5.70706        -8.11290
| 57>    C        6.00058        -6.01791        -6.77225
| 58>    C        6.06339        -5.04291        -5.77523
| 59>    C        6.11397        -7.90486         3.82636
| 60>    C        5.00487        -8.80519         4.38174
| 61>    C        4.97569         1.74289         2.66327
| 62>    C        5.06655         1.76857         4.19235
| 63>    C        6.07957        -6.74635        -9.19399
| 64>    C        4.60959        -6.91077        -9.61120
| 65>    C        3.13691         2.08885        -6.46848
| 66>    C        1.65712         1.81003        -6.73406
| 67>    S       -1.85420        -5.35677        -1.50474
| 68>    C       -3.30181        -4.97839        -0.66576
| 69>    C       -3.07029        -4.21963         0.46817
| 70>    C       -1.66797        -3.95349         0.65257
| 71>    C       -4.09731        -3.78390         1.38970
| 72>    O       -1.20361        -3.21136         1.69067
| 73>    C       -0.90210        -1.84821         1.37266
| 74>    C       -5.37427        -3.41626         1.10946
| 75>    C       -6.41188        -3.44822         2.21624
| 76>    C       -7.69640        -3.42842         1.48689
| 77>    C       -7.50468        -3.25177         0.11881
| 78>    C       -6.06845        -3.09632        -0.14961
| 79>    S       -9.35320        -3.55757         1.90746
| 80>    C       -9.80569        -3.37509         0.23619
| 81>    C       -8.73176        -3.21374        -0.60788
| 82>    O       -6.20097        -3.52125         3.40560
| 83>    C       -5.54414        -2.53324        -1.29453
| 84>    C       -6.39730        -2.19697        -2.39339
| 85>    C       -4.17697        -2.13368        -1.41914
| 86>    N       -3.08443        -1.75392        -1.52766
| 87>    N       -7.11813        -1.93996        -3.26765
| 88>    C       11.37605        -1.09259        -4.50676
| 89>    S       11.90659         0.36369        -3.66624
| 90>    C       13.40894         0.37995        -4.47344
| 91>    C       13.54902        -0.66989        -5.37011
| 92>    C       12.37018        -1.52249        -5.36675
| 93>    C       14.71197        -1.07628        -6.10744
| 94>    O       12.38405        -2.61837        -6.14964
| 95>    C       11.74998        -3.81626        -5.71544
| 96>    C       15.92420        -0.51950        -6.39695
| 97>    C       17.01011        -1.48886        -6.83496
| 98>    C       18.25673        -0.71284        -6.70569
| 99>    C       17.99616         0.60238        -6.33797
|100>    C       16.53753         0.80231        -6.25692
|101>    S       19.92919        -1.02830        -6.90390
|102>    C       20.30039         0.61909        -6.48639
|103>    C       19.18589         1.38060        -6.21851
|104>    O       16.85740        -2.64396        -7.16529
|105>    C       15.93269         2.04513        -6.24845
|106>    C       16.71294         3.23633        -6.09987
|107>    C       14.54499         2.24950        -6.50602
|108>    N       13.42188         2.44379        -6.73153
|109>    N       17.36447         4.18856        -5.96239
|110>    H        1.32687        -4.15433         1.47083
|111>    H        3.74273        -3.48859        -4.28078
|112>    H        6.98462        -2.91838        -0.46344
|113>    H        9.12896        -1.57141        -6.25368
|114>    H        5.99054        -5.67143        -0.30416
|115>    H        6.75140        -7.48939         1.18644
|116>    H        4.34145        -5.88199         4.37294
|117>    H        3.58598        -4.06846         2.88593
|118>    H        2.52039        -1.41346         0.18828
|119>    H        2.85438         0.83944         1.14969
|120>    H        6.55993        -0.46678         2.91163
|121>    H        6.20491        -2.72280         1.98903
|122>    H        4.15614        -2.49948        -6.61351
|123>    H        2.74267        -0.57553        -7.14945
|124>    H        5.44625         2.00908        -5.01009
|125>    H        6.85854         0.06827        -4.45801
|126>    H        6.95686        -2.38582        -7.69343
|127>    H        6.86002        -4.11508        -9.45014
|128>    H        5.71732        -7.03903        -6.50025
|129>    H        5.82832        -5.31727        -4.74643
|130>    H        6.65198        -7.43459         4.66928
|131>    H        6.85686        -8.52148         3.29550
|132>    H        4.26450        -8.22628         4.95671
|133>    H        5.42168        -9.57380         5.05230
|134>    H        4.46442        -9.31545         3.56868
|135>    H        4.17607         2.42124         2.32459
|136>    H        5.91307         2.14535         2.23963
|137>    H        4.13426         1.40315         4.65212
|138>    H        5.25871         2.78790         4.56277
|139>    H        5.88292         1.12662         4.55761
|140>    H        6.46760        -7.71482        -8.83582
|141>    H        6.68369        -6.47114       -10.07350
|142>    H        3.99023        -7.22442        -8.75563
|143>    H        4.49591        -7.66740       -10.40405
|144>    H        4.19725        -5.96084        -9.98724
|145>    H        3.57714         2.58625        -7.35313
|146>    H        3.23485         2.82105        -5.64921
|147>    H        1.50859         1.17484        -7.62113
|148>    H        1.11024         2.74788        -6.91527
|149>    H        1.18566         1.29889        -5.87898
|150>    H       -4.25745        -5.35679        -1.02150
|151>    H       -3.84922        -3.82434         2.45780
|152>    H       -0.45920        -1.40247         2.27315
|153>    H       -1.81608        -1.30278         1.08863
|154>    H       -0.18443        -1.78736         0.53886
|155>    H      -10.85934        -3.39256        -0.04231
|156>    H       -8.82954        -3.07003        -1.68201
|157>    H       14.15299         1.12672        -4.20934
|158>    H       14.64775        -2.11548        -6.45325
|159>    H       11.88670        -3.95933        -4.63120
|160>    H       12.23830        -4.63401        -6.26135
|161>    H       10.67345        -3.81214        -5.94431
|162>    H       21.33898         0.94807        -6.46042
|163>    H       19.23165         2.43076        -5.93971
|164> *
|165> 
|166>                          ****END OF INPUT****
================================================================================

                       ****************************
                       * Single Point Calculation *
                       ****************************

---------------------------------
CARTESIAN COORDINATES (ANGSTROEM)
---------------------------------
  C     -0.873740   -4.469360   -0.358460
  C      0.548460   -4.300820   -0.552040
  S      1.189720   -4.187980   -2.191570
  C      2.771670   -3.911360   -1.568510
  C      2.808430   -3.895640   -0.185630
  C      1.541080   -4.123170    0.403470
  C      4.064570   -3.607160   -2.136480
  C      4.967650   -3.441830   -1.053730
  C      4.228130   -3.590950    0.296930
  C      4.457590   -3.394650   -3.461700
  C      5.771470   -3.019400   -3.692230
  C      6.688090   -2.871350   -2.619380
  C      6.288300   -3.077940   -1.288580
  C      6.404760   -2.607360   -5.032800
  C      7.825360   -2.278020   -4.583080
  C      7.941820   -2.432700   -3.211000
  C      9.010430   -1.798980   -5.194080
  C     10.030320   -1.595010   -4.278060
  S      9.513940   -2.004580   -2.637720
  C      4.340480   -2.231930    1.008150
  C      4.734170   -4.734320    1.179820
  C      6.389660   -3.717590   -6.087810
  C      5.620680   -1.364190   -5.498620
  C      5.619970   -5.712690    0.720800
  C      6.052040   -6.739770    1.567550
  C      5.618140   -6.820680    2.895650
  C      4.707800   -5.847810    3.343580
  C      4.272520   -4.827460    2.503460
  C      3.403810   -1.214890    0.797340
  C      3.598600    0.060430    1.337600
  C      4.736050    0.362330    2.096330
  C      5.664060   -0.667460    2.317800
  C      5.468900   -1.941560    1.791320
  C      4.451480   -1.511790   -6.255950
  C      3.647860   -0.413250   -6.562910
  C      3.982040    0.877130   -6.129050
  C      5.156250    1.018560   -5.373260
  C      5.962290   -0.077530   -5.062820
  C      6.696780   -3.411280   -7.422090
  C      6.630890   -4.387520   -8.415760
  C      6.261490   -5.707060   -8.112900
  C      6.000580   -6.017910   -6.772250
  C      6.063390   -5.042910   -5.775230
  C      6.113970   -7.904860    3.826360
  C      5.004870   -8.805190    4.381740
  C      4.975690    1.742890    2.663270
  C      5.066550    1.768570    4.192350
  C      6.079570   -6.746350   -9.193990
  C      4.609590   -6.910770   -9.611200
  C      3.136910    2.088850   -6.468480
  C      1.657120    1.810030   -6.734060
  S     -1.854200   -5.356770   -1.504740
  C     -3.301810   -4.978390   -0.665760
  C     -3.070290   -4.219630    0.468170
  C     -1.667970   -3.953490    0.652570
  C     -4.097310   -3.783900    1.389700
  O     -1.203610   -3.211360    1.690670
  C     -0.902100   -1.848210    1.372660
  C     -5.374270   -3.416260    1.109460
  C     -6.411880   -3.448220    2.216240
  C     -7.696400   -3.428420    1.486890
  C     -7.504680   -3.251770    0.118810
  C     -6.068450   -3.096320   -0.149610
  S     -9.353200   -3.557570    1.907460
  C     -9.805690   -3.375090    0.236190
  C     -8.731760   -3.213740   -0.607880
  O     -6.200970   -3.521250    3.405600
  C     -5.544140   -2.533240   -1.294530
  C     -6.397300   -2.196970   -2.393390
  C     -4.176970   -2.133680   -1.419140
  N     -3.084430   -1.753920   -1.527660
  N     -7.118130   -1.939960   -3.267650
  C     11.376050   -1.092590   -4.506760
  S     11.906590    0.363690   -3.666240
  C     13.408940    0.379950   -4.473440
  C     13.549020   -0.669890   -5.370110
  C     12.370180   -1.522490   -5.366750
  C     14.711970   -1.076280   -6.107440
  O     12.384050   -2.618370   -6.149640
  C     11.749980   -3.816260   -5.715440
  C     15.924200   -0.519500   -6.396950
  C     17.010110   -1.488860   -6.834960
  C     18.256730   -0.712840   -6.705690
  C     17.996160    0.602380   -6.337970
  C     16.537530    0.802310   -6.256920
  S     19.929190   -1.028300   -6.903900
  C     20.300390    0.619090   -6.486390
  C     19.185890    1.380600   -6.218510
  O     16.857400   -2.643960   -7.165290
  C     15.932690    2.045130   -6.248450
  C     16.712940    3.236330   -6.099870
  C     14.544990    2.249500   -6.506020
  N     13.421880    2.443790   -6.731530
  N     17.364470    4.188560   -5.962390
  H      1.326870   -4.154330    1.470830
  H      3.742730   -3.488590   -4.280780
  H      6.984620   -2.918380   -0.463440
  H      9.128960   -1.571410   -6.253680
  H      5.990540   -5.671430   -0.304160
  H      6.751400   -7.489390    1.186440
  H      4.341450   -5.881990    4.372940
  H      3.585980   -4.068460    2.885930
  H      2.520390   -1.413460    0.188280
  H      2.854380    0.839440    1.149690
  H      6.559930   -0.466780    2.911630
  H      6.204910   -2.722800    1.989030
  H      4.156140   -2.499480   -6.613510
  H      2.742670   -0.575530   -7.149450
  H      5.446250    2.009080   -5.010090
  H      6.858540    0.068270   -4.458010
  H      6.956860   -2.385820   -7.693430
  H      6.860020   -4.115080   -9.450140
  H      5.717320   -7.039030   -6.500250
  H      5.828320   -5.317270   -4.746430
  H      6.651980   -7.434590    4.669280
  H      6.856860   -8.521480    3.295500
  H      4.264500   -8.226280    4.956710
  H      5.421680   -9.573800    5.052300
  H      4.464420   -9.315450    3.568680
  H      4.176070    2.421240    2.324590
  H      5.913070    2.145350    2.239630
  H      4.134260    1.403150    4.652120
  H      5.258710    2.787900    4.562770
  H      5.882920    1.126620    4.557610
  H      6.467600   -7.714820   -8.835820
  H      6.683690   -6.471140  -10.073500
  H      3.990230   -7.224420   -8.755630
  H      4.495910   -7.667400  -10.404050
  H      4.197250   -5.960840   -9.987240
  H      3.577140    2.586250   -7.353130
  H      3.234850    2.821050   -5.649210
  H      1.508590    1.174840   -7.621130
  H      1.110240    2.747880   -6.915270
  H      1.185660    1.298890   -5.878980
  H     -4.257450   -5.356790   -1.021500
  H     -3.849220   -3.824340    2.457800
  H     -0.459200   -1.402470    2.273150
  H     -1.816080   -1.302780    1.088630
  H     -0.184430   -1.787360    0.538860
  H    -10.859340   -3.392560   -0.042310
  H     -8.829540   -3.070030   -1.682010
  H     14.152990    1.126720   -4.209340
  H     14.647750   -2.115480   -6.453250
  H     11.886700   -3.959330   -4.631200
  H     12.238300   -4.634010   -6.261350
  H     10.673450   -3.812140   -5.944310
  H     21.338980    0.948070   -6.460420
  H     19.231650    2.430760   -5.939710

----------------------------
CARTESIAN COORDINATES (A.U.)
----------------------------
  NO LB      ZA    FRAG     MASS         X           Y           Z
   0 C     6.0000    0    12.011   -1.651129   -8.445866   -0.677391
   1 C     6.0000    0    12.011    1.036439   -8.127372   -1.043204
   2 S    16.0000    0    32.060    2.248245   -7.914135   -4.141467
   3 C     6.0000    0    12.011    5.237697   -7.391399   -2.964054
   4 C     6.0000    0    12.011    5.307164   -7.361693   -0.350790
   5 C     6.0000    0    12.011    2.912219   -7.791662    0.762448
   6 C     6.0000    0    12.011    7.680924   -6.816545   -4.037362
   7 C     6.0000    0    12.011    9.387498   -6.504116   -1.991261
   8 C     6.0000    0    12.011    7.990008   -6.785912    0.561116
   9 C     6.0000    0    12.011    8.423624   -6.414959   -6.541665
  10 C     6.0000    0    12.011   10.906498   -5.705839   -6.977304
  11 C     6.0000    0    12.011   12.638658   -5.426065   -4.949911
  12 C     6.0000    0    12.011   11.883165   -5.816464   -2.435063
  13 C     6.0000    0    12.011   12.103242   -4.927196   -9.510614
  14 C     6.0000    0    12.011   14.787787   -4.304834   -8.660766
  15 C     6.0000    0    12.011   15.007865   -4.597137   -6.067911
  16 C     6.0000    0    12.011   17.027245   -3.399580   -9.815389
  17 C     6.0000    0    12.011   18.954558   -3.014132   -8.084362
  18 S    16.0000    0    32.060   17.978741   -3.788107   -4.984568
  19 C     6.0000    0    12.011    8.202318   -4.217736    1.905127
  20 C     6.0000    0    12.011    8.946285   -8.946568    2.229537
  21 C     6.0000    0    12.011   12.074707   -7.025227  -11.504294
  22 C     6.0000    0    12.011   10.621546   -2.577945  -10.390886
  23 C     6.0000    0    12.011   10.620204  -10.795420    1.362115
  24 C     6.0000    0    12.011   11.436698  -12.736320    2.962240
  25 C     6.0000    0    12.011   10.616746  -12.889217    5.471985
  26 C     6.0000    0    12.011    8.896453  -11.050759    6.318451
  27 C     6.0000    0    12.011    8.073893   -9.122577    4.730854
  28 C     6.0000    0    12.011    6.432269   -2.295809    1.506754
  29 C     6.0000    0    12.011    6.800368    0.114196    2.527698
  30 C     6.0000    0    12.011    8.949837    0.684704    3.961490
  31 C     6.0000    0    12.011   10.703522   -1.261317    4.380007
  32 C     6.0000    0    12.011   10.334723   -3.669017    3.385104
  33 C     6.0000    0    12.011    8.412078   -2.856869  -11.822032
  34 C     6.0000    0    12.011    6.893456   -0.780929  -12.402103
  35 C     6.0000    0    12.011    7.524965    1.657535  -11.582226
  36 C     6.0000    0    12.011    9.743900    1.924799  -10.153990
  37 C     6.0000    0    12.011   11.267095   -0.146510   -9.567343
  38 C     6.0000    0    12.011   12.655080   -6.446385  -14.025717
  39 C     6.0000    0    12.011   12.530566   -8.291211  -15.903482
  40 C     6.0000    0    12.011   11.832501  -10.784780  -15.331159
  41 C     6.0000    0    12.011   11.339453  -11.372202  -12.797698
  42 C     6.0000    0    12.011   11.458147   -9.529719  -10.913603
  43 C     6.0000    0    12.011   11.553729  -14.938021    7.230772
  44 C     6.0000    0    12.011    9.457834  -16.639398    8.280289
  45 C     6.0000    0    12.011    9.402691    3.293585    5.032851
  46 C     6.0000    0    12.011    9.574392    3.342113    7.922393
  47 C     6.0000    0    12.011   11.488722  -12.748754  -17.374123
  48 C     6.0000    0    12.011    8.710863  -13.059463  -18.162536
  49 C     6.0000    0    12.011    5.927901    3.947354  -12.223656
  50 C     6.0000    0    12.011    3.131503    3.420461  -12.725529
  51 S    16.0000    0    32.060   -3.503930  -10.122828   -2.843547
  52 C     6.0000    0    12.011   -6.239517   -9.407794   -1.258104
  53 C     6.0000    0    12.011   -5.802007   -7.973945    0.884713
  54 C     6.0000    0    12.011   -3.152006   -7.471013    1.233179
  55 C     6.0000    0    12.011   -7.742794   -7.150535    2.626152
  56 O     8.0000    0    15.999   -2.274493   -6.068591    3.194903
  57 C     6.0000    0    12.011   -1.704722   -3.492611    2.593951
  58 C     6.0000    0    12.011  -10.155898   -6.455796    2.096576
  59 C     6.0000    0    12.011  -12.116697   -6.516191    4.188087
  60 C     6.0000    0    12.011  -14.544088   -6.478775    2.809815
  61 C     6.0000    0    12.011  -14.181790   -6.144955    0.224518
  62 C     6.0000    0    12.011  -11.467709   -5.851197   -0.282722
  63 S    16.0000    0    32.060  -17.674986   -6.722833    3.604577
  64 C     6.0000    0    12.011  -18.530069   -6.377996    0.446334
  65 C     6.0000    0    12.011  -16.500635   -6.073088   -1.148727
  66 O     8.0000    0    15.999  -11.718135   -6.654198    6.435651
  67 C     6.0000    0    12.011  -10.476906   -4.787130   -2.446307
  68 C     6.0000    0    12.011  -12.089145   -4.151672   -4.522852
  69 C     6.0000    0    12.011   -7.893329   -4.032071   -2.681786
  70 N     7.0000    0    14.007   -5.828728   -3.314428   -2.886859
  71 N     7.0000    0    14.007  -13.451316   -3.665993   -6.174964
  72 C     6.0000    0    12.011   21.497619   -2.064696   -8.516542
  73 S    16.0000    0    32.060   22.500194    0.687274   -6.928190
  74 C     6.0000    0    12.011   25.339224    0.718001   -8.453576
  75 C     6.0000    0    12.011   25.603937   -1.265909  -10.148037
  76 C     6.0000    0    12.011   23.376252   -2.877089  -10.141688
  77 C     6.0000    0    12.011   27.801594   -2.033874  -11.541389
  78 O     8.0000    0    15.999   23.402463   -4.948002  -11.621135
  79 C     6.0000    0    12.011   22.204244   -7.211686  -10.800616
  80 C     6.0000    0    12.011   30.092377   -0.981713  -12.088484
  81 C     6.0000    0    12.011   32.144449   -2.813538  -12.916203
  82 C     6.0000    0    12.011   34.500220   -1.347072  -12.671918
  83 C     6.0000    0    12.011   34.007814    1.138333  -11.977028
  84 C     6.0000    0    12.011   31.251403    1.516146  -11.823865
  85 S    16.0000    0    32.060   37.660711   -1.943205  -13.046480
  86 C     6.0000    0    12.011   38.362178    1.169911  -12.257501
  87 C     6.0000    0    12.011   36.256078    2.608956  -11.751281
  88 O     8.0000    0    15.999   31.855869   -4.996360  -13.540436
  89 C     6.0000    0    12.011   30.108421    3.864736  -11.807859
  90 C     6.0000    0    12.011   31.582879    6.115777  -11.527084
  91 C     6.0000    0    12.011   27.486048    4.250939  -12.294596
  92 N     7.0000    0    14.007   25.363677    4.618094  -12.720748
  93 N     7.0000    0    14.007   32.814093    7.915231  -11.267284
  94 H     1.0000    0     1.008    2.507421   -7.850546    2.779466
  95 H     1.0000    0     1.008    7.072735   -6.592480   -8.089502
  96 H     1.0000    0     1.008   13.199019   -5.514939   -0.875775
  97 H     1.0000    0     1.008   17.251234   -2.969535  -11.817743
  98 H     1.0000    0     1.008   11.320480  -10.717449   -0.574779
  99 H     1.0000    0     1.008   12.758297  -14.152896    2.242047
 100 H     1.0000    0     1.008    8.204152  -11.115350    8.263659
 101 H     1.0000    0     1.008    6.776520   -7.688275    5.453617
 102 H     1.0000    0     1.008    4.762847   -2.671052    0.355798
 103 H     1.0000    0     1.008    5.393996    1.586312    2.172599
 104 H     1.0000    0     1.008   12.396471   -0.882086    5.502183
 105 H     1.0000    0     1.008   11.725581   -5.145346    3.758722
 106 H     1.0000    0     1.008    7.853966   -4.723333  -12.497723
 107 H     1.0000    0     1.008    5.182895   -1.087594  -13.510503
 108 H     1.0000    0     1.008   10.291921    3.796611   -9.467698
 109 H     1.0000    0     1.008   12.960762    0.129012   -8.424418
 110 H     1.0000    0     1.008   13.146560   -4.508546  -14.538476
 111 H     1.0000    0     1.008   12.963559   -7.776374  -17.858177
 112 H     1.0000    0     1.008   10.804169  -13.301839  -12.283692
 113 H     1.0000    0     1.008   11.013929  -10.048184   -8.969453
 114 H     1.0000    0     1.008   12.570420  -14.049339    8.823660
 115 H     1.0000    0     1.008   12.957588  -16.103263    6.227592
 116 H     1.0000    0     1.008    8.058737  -15.545416    9.366824
 117 H     1.0000    0     1.008   10.245490  -18.091860    9.547463
 118 H     1.0000    0     1.008    8.436531  -17.603649    6.743828
 119 H     1.0000    0     1.008    7.891629    4.575481    4.392838
 120 H     1.0000    0     1.008   11.174083    4.054124    4.232287
 121 H     1.0000    0     1.008    7.812619    2.651569    8.791233
 122 H     1.0000    0     1.008    9.937522    5.268367    8.622386
 123 H     1.0000    0     1.008   11.117108    2.129003    8.612635
 124 H     1.0000    0     1.008   12.221993  -14.578897  -16.697280
 125 H     1.0000    0     1.008   12.630344  -12.228682  -19.036156
 126 H     1.0000    0     1.008    7.540442  -13.652175  -16.545743
 127 H     1.0000    0     1.008    8.496039  -14.489286  -19.660805
 128 H     1.0000    0     1.008    7.931653  -11.264355  -18.873148
 129 H     1.0000    0     1.008    6.759815    4.887304  -13.895402
 130 H     1.0000    0     1.008    6.112981    5.331012  -10.675460
 131 H     1.0000    0     1.008    2.850822    2.220126  -14.401849
 132 H     1.0000    0     1.008    2.098050    5.192741  -13.067966
 133 H     1.0000    0     1.008    2.240573    2.454546  -11.109662
 134 H     1.0000    0     1.008   -8.045415  -10.122866   -1.930355
 135 H     1.0000    0     1.008   -7.273972   -7.226955    4.644569
 136 H     1.0000    0     1.008   -0.867762   -2.650284    4.295631
 137 H     1.0000    0     1.008   -3.431894   -2.461897    2.057213
 138 H     1.0000    0     1.008   -0.348522   -3.377621    1.018298
 139 H     1.0000    0     1.008  -20.521179   -6.411009   -0.079954
 140 H     1.0000    0     1.008  -16.685412   -5.801516   -3.178538
 141 H     1.0000    0     1.008   26.745275    2.129192   -7.954500
 142 H     1.0000    0     1.008   27.680236   -3.997678  -12.194875
 143 H     1.0000    0     1.008   22.462608   -7.482049   -8.751700
 144 H     1.0000    0     1.008   23.127035   -8.757010  -11.832237
 145 H     1.0000    0     1.008   20.169897   -7.203901  -11.233118
 146 H     1.0000    0     1.008   40.324828    1.791593  -12.208425
 147 H     1.0000    0     1.008   36.342552    4.593471  -11.224425

--------------------------------
INTERNAL COORDINATES (ANGSTROEM)
--------------------------------
 C      0   0   0     0.000000000000     0.00000000     0.00000000
 C      1   0   0     1.445175348530     0.00000000     0.00000000
 S      2   1   0     1.764087830608   119.31955355     0.00000000
 C      3   2   1     1.722581838549    90.45496227   176.39520619
 C      4   3   2     1.383457809404   112.81623038   359.56604515
 C      2   1   3     1.389191616373   128.75211366   175.48318370
 C      4   3   2     1.444547669999   135.52476487   184.33825024
 C      7   4   3     1.419589749822   107.09818110   177.51657753
 C      5   4   3     1.530113799591   110.00852191   182.23754590
 C      7   4   3     1.398511090017   131.00320924     1.93443733
 C     10   7   4     1.385726270877   117.72625482   175.32808906
 C     11  10   7     1.418843948220   120.99758182     0.69270322
 C      8   7   4     1.389851386696   120.40392507   182.99445152
 C     11  10   7     1.538818088859   127.41928790   186.01262277
 C     14  11  10     1.526046288289   100.61235002   177.99437602
 C     15  14  11     1.385673973343   110.23996571   357.98827923
 C     15  14  11     1.416753763538   136.43136444   181.92487335
 C     17  15  14     1.385955271068   112.34979788   176.19787629
 S     16  15  14     1.727280517808   112.17702614   182.53294279
 C      9   5   4     1.537983020485   112.92823815   113.20061411
 C      9   5   4     1.530642411081   109.87166039   238.58870285
 C     14  11  10     1.531628141227   113.69849635   297.45326060
 C     14  11  10     1.541830524961   105.65295466    60.41961617
 C     21   9   5     1.397336343655   122.89589581   101.73016801
 C     24  21   9     1.399486825161   120.71780677   180.09195899
 C     25  24  21     1.399523221708   121.39100818   359.82555611
 C     26  25  24     1.405644420684   117.59233148     1.33192402
 C     27  26  25     1.391540303153   121.17737654   358.87900432
 C     20   9   5     1.398628580646   121.59630182   338.17262721
 C     29  20   9     1.398665476124   120.76727534   186.95499923
 C     30  29  20     1.400216885129   121.26747994     0.41344010
 C     31  30  29     1.403822982110   117.66667055   358.83624078
 C     32  31  30     1.392335960176   121.26216586     0.62239350
 C     23  14  11     1.400843720370   120.18709206   272.50619371
 C     34  23  14     1.395284801609   121.11076364   172.88765354
 C     35  34  23     1.401781479547   121.28914382     0.19049617
 C     36  35  34     1.403563355570   117.31360044   359.95468039
 C     37  36  35     1.395523831147   121.59083987     0.00000000
 C     22  14  11     1.403015191970   119.64711862   167.93430658
 C     39  22  14     1.394548707862   120.96093168   183.00641336
 C     40  39  22     1.403341138569   121.12443743   359.72184245
 C     41  40  39     1.400729871567   117.66206722   358.12600837
 C     42  41  40     1.395929431060   121.34672703     1.98354682
 C     26  25  24     1.512453227508   121.58501106   181.84121974
 C     44  26  25     1.532691705236   114.00612178   240.00010113
 C     31  30  29     1.511553573910   121.93453136   178.71735399
 C     46  31  30     1.531992378702   113.52008641   119.36154436
 C     41  40  39     1.510620461466   121.61145726   175.05004727
 C     48  41  40     1.536860215146   112.52398331   263.21095039
 C     36  35  34     1.515824132345   122.25113402   179.00479446
 C     50  36  35     1.529068923528   115.63895173    26.35011056
 S      1   2   3     1.750073186498   121.51577202    32.24936386
 C     52   1   2     1.715410614663    92.32597889   184.60648119
 C     53  52   1     1.383876978962   112.36512743   359.01348957
 C      1   2   3     1.385317584780   128.20925674   215.17659156
 C     54  53  52     1.447013563931   124.62393996   181.75171049
 O     55   1   2     1.357953885999   124.42841818   357.62287907
 C     57  55   1     1.431857731306   114.99284495    77.07849589
 C     56  54  53     1.358057608793   128.13154891   324.78072107
 C     59  56  54     1.517437946705   119.12699303   159.33848343
 C     60  59  56     1.477272856618   103.54365279   197.68524769
 C     61  60  59     1.392696904319   111.52997830   353.89462252
 C     62  61  60     1.469343598958   109.11279635   358.12692124
 S     61  60  59     1.714218506317   135.91080936   174.41151202
 C     64  61  60     1.741031178181    90.44600842   179.51697429
 C     65  64  61     1.375432162013   113.48165686   359.64118163
 O     60  59  56     1.210121323918   126.79509480    15.34798872
 C     63  62  61     1.379420845464   124.49531253   199.51739651
 C     68  63  62     1.431241698002   120.43630177   352.45750885
 C     68  63  62     1.429800564624   123.35694158   166.27042823
 N     70  68  63     1.161739170210   177.11325122   242.74104278
 N     69  68  63     1.161886645332   178.17534024   354.05618242
 C     18  17  15     1.454551057646   128.88334370   181.22050091
 S     73  18  17     1.763150022091   119.25734592   121.14655838
 C     74  73  18     1.705547346191    92.71168586   183.79557170
 C     75  74  73     1.387733231172   112.79951657     0.18146634
 C     73  18  17     1.383000819595   130.95329007   305.23946233
 C     76  75  74     1.435709254515   128.88338334   187.99971626
 O     77  73  18     1.346871227475   128.44546776   353.46051166
 C     79  77  73     1.423205837889   120.19280494   325.97068061
 C     78  76  75     1.365035377344   135.46387178   345.83128975
 C     81  78  76     1.520102660283   115.81100522   160.94062898
 C     82  81  78     1.474102845021   104.07267066   195.54617487
 C     83  82  81     1.390294347144   111.26639521   355.83641942
 C     81  78  76     1.463886527672   136.06147771   349.56782433
 S     83  82  81     1.713454016687   135.92110887   176.26239145
 C     86  83  82     1.739539551778    90.35325603   179.71500518
 C     87  86  83     1.376142225390   113.45034653   359.45997039
 O     82  81  78     1.211071535047   126.63661466    13.30627389
 C     85  81  78     1.382210084936   128.98635091   331.99081414
 C     90  85  81     1.431720475128   120.68135505   180.06175019
 C     90  85  81     1.426120854556   123.61065511   354.01841652
 N     92  90  85     1.161886154621   178.38442827   216.70030230
 N     91  90  85     1.161952694476   178.57841831   326.93896653
 H      6   2   1     1.089088719664   121.99846171     3.86903740
 H     10   7   4     1.091211065560   120.93691157   357.38101584
 H     13   8   7     1.091410534858   121.11520062   178.14000210
 H     17  15  14     1.090224575856   125.49795152   358.34898408
 H     24  21   9     1.090672963862   119.84133098     0.87040120
 H     25  24  21     1.093745576494   119.31279715   180.44806785
 H     27  26  25     1.093143451016   119.70103752   179.62040861
 H     28  27  26     1.092566461365   119.64324049   181.68963150
 H     29  20   9     1.091244713573   119.60166211     5.77055254
 H     30  29  20     1.093631636613   119.23252790   179.46732822
 H     32  31  30     1.093384464953   119.51731501   180.39176192
 H     33  32  31     1.091391727016   119.47266251   180.53095948
 H     34  23  14     1.091149121477   119.89707375   353.03456427
 H     35  34  23     1.090748782305   118.62909377   180.41777734
 H     37  36  35     1.094130851087   119.45218936   180.46906863
 H     38  37  36     1.091016424533   119.52708577   181.08065626
 H     39  22  14     1.092169956371   119.56326039     0.81156996
 H     40  39  22     1.093922344090   119.30868043   178.99225593
 H     42  41  40     1.094032121101   119.55869936   180.44912317
 H     43  42  41     1.090394770026   119.23840046   178.41233393
 H     44  26  25     1.105044234137   108.90166985   118.02297646
 H     44  26  25     1.101779522454   109.00996393     2.67471081
 H     45  44  26     1.101759967461   111.51334046   300.00621877
 H     45  44  26     1.101881400968   110.88762715   180.06114243
 H     45  44  26     1.101597945577   111.07948660    59.75762357
 H     46  31  30     1.101932397790   109.38589429   356.29274270
 H     46  31  30     1.104593212726   108.87265901   241.02519625
 H     47  46  31     1.101855196203   111.14535620   299.76073263
 H     47  46  31     1.101440007853   111.19393252   179.01036768
 H     47  46  31     1.100897200923   111.42966877    59.25200716
 H     48  41  40     1.103080763453   109.22600968   141.62632506
 H     48  41  40     1.101925296288   109.47272922    25.25976608
 H     49  48  41     1.101809038355   110.93589352   299.82278507
 H     49  48  41     1.101827219577   111.56114095   179.64878558
 H     49  48  41     1.101724721562   111.00160254    59.23216679
 H     50  36  35     1.106261648707   108.45846727   263.39323777
 H     50  36  35     1.103137532903   108.34757737   149.83838204
 H     51  50  36     1.101099760194   112.06519104   296.13874279
 H     51  50  36     1.100671350131   110.73650585   176.78346724
 H     51  50  36     1.102134491612   111.33358833    56.50978654
 H     53  52   1     1.087651284742   120.31509983   181.08235430
 H     56  54  53     1.097279204077   116.63753425   139.63806199
 H     58  57  55     1.098055917383   106.81337486   184.87493887
 H     58  57  55     1.101601727577   110.72734903    64.88726587
 H     58  57  55     1.101805514326   110.96567413   304.28569734
 H     65  64  61     1.089975125129   119.65845511   179.88625532
 H     66  65  64     1.088103280668   123.44419103   181.01167963
 H     75  74  73     1.086749578054   119.64486989   183.99271463
 H     78  76  75     1.097107745165   112.49356809   159.61882832
 H     80  79  77     1.102151423762   110.73954338   322.70110569
 H     80  79  77     1.097811100782   106.08594888   203.71606757
 H     80  79  77     1.100597697708   111.66543368    84.43398381
 H     87  86  83     1.089757527801   119.66856507   179.53282806
 H     88  87  86     1.087501468137   123.38015144   179.90646649

---------------------------
INTERNAL COORDINATES (A.U.)
---------------------------
 C      0   0   0     0.000000000000     0.00000000     0.00000000
 C      1   0   0     2.730985624217     0.00000000     0.00000000
 S      2   1   0     3.333642876033   119.31955355     0.00000000
 C      3   2   1     3.255207918125    90.45496227   176.39520619
 C      4   3   2     2.614356377608   112.81623038   359.56604515
 C      2   1   3     2.625191702484   128.75211366   175.48318370
 C      4   3   2     2.729799483692   135.52476487   184.33825024
 C      7   4   3     2.682635849686   107.09818110   177.51657753
 C      5   4   3     2.891496034961   110.00852191   182.23754590
 C      7   4   3     2.642802955383   131.00320924     1.93443733
 C     10   7   4     2.618643148538   117.72625482   175.32808906
 C     11  10   7     2.681226488907   120.99758182     0.69270322
 C      8   7   4     2.626438487706   120.40392507   182.99445152
 C     11  10   7     2.907944757868   127.41928790   186.01262277
 C     14  11  10     2.883809552553   100.61235002   177.99437602
 C     15  14  11     2.618544320521   110.23996571   357.98827923
 C     15  14  11     2.677276612290   136.43136444   181.92487335
 C     17  15  14     2.619075896182   112.34979788   176.19787629
 S     16  15  14     3.264087135115   112.17702614   182.53294279
 C      9   5   4     2.906366707338   112.92823815   113.20061411
 C      9   5   4     2.892494965908   109.87166039   238.58870285
 C     14  11  10     2.894357725927   113.69849635   297.45326060
 C     14  11  10     2.913637437095   105.65295466    60.41961617
 C     21   9   5     2.640583006483   122.89589581   101.73016801
 C     24  21   9     2.644646827586   120.71780677   180.09195899
 C     25  24  21     2.644715607091   121.39100818   359.82555611
 C     26  25  24     2.656282996767   117.59233148     1.33192402
 C     27  26  25     2.629630077274   121.17737654   358.87900432
 C     20   9   5     2.643024980496   121.59630182   338.17262721
 C     29  20   9     2.643094702844   120.76727534   186.95499923
 C     30  29  20     2.646026440986   121.26747994     0.41344010
 C     31  30  29     2.652840976692   117.66667055   358.83624078
 C     32  31  30     2.631133651143   121.26216586     0.62239350
 C     23  14  11     2.647210987923   120.18709206   272.50619371
 C     34  23  14     2.636706153863   121.11076364   172.88765354
 C     35  34  23     2.648983095946   121.28914382     0.19049617
 C     36  35  34     2.652350353636   117.31360044   359.95468039
 C     37  36  35     2.637157854229   121.59083987     0.00000000
 C     22  14  11     2.651314474555   119.64711862   167.93430658
 C     39  22  14     2.635315138273   120.96093168   183.00641336
 C     40  39  22     2.651930424361   121.12443743   359.72184245
 C     41  40  39     2.646995844864   117.66206722   358.12600837
 C     42  41  40     2.637924326984   121.34672703     1.98354682
 C     26  25  24     2.858122390356   121.58501106   181.84121974
 C     44  26  25     2.896367570629   114.00612178   240.00010113
 C     31  30  29     2.856422291440   121.93453136   178.71735399
 C     46  31  30     2.895046035001   113.52008641   119.36154436
 C     41  40  39     2.854658964469   121.61145726   175.05004727
 C     48  41  40     2.904244912746   112.52398331   263.21095039
 C     36  35  34     2.864492477321   122.25113402   179.00479446
 C     50  36  35     2.889521505358   115.63895173    26.35011056
 S      1   2   3     3.307159036801   121.51577202    32.24936386
 C     52   1   2     3.241656268935    92.32597889   184.60648119
 C     53  52   1     2.615148493276   112.36512743   359.01348957
 C      1   2   3     2.617870843739   128.20925674   215.17659156
 C     54  53  52     2.734459347899   124.62393996   181.75171049
 O     55   1   2     2.566160947032   124.42841818   357.62287907
 C     57  55   1     2.705818974906   114.99284495    77.07849589
 C     56  54  53     2.566356954706   128.13154891   324.78072107
 C     59  56  54     2.867542144492   119.12699303   159.33848343
 C     60  59  56     2.791641124083   103.54365279   197.68524769
 C     61  60  59     2.631815736723   111.52997830   353.89462252
 C     62  61  60     2.776656998662   109.11279635   358.12692124
 S     61  60  59     3.239403510639   135.91080936   174.41151202
 C     64  61  60     3.290072117381    90.44600842   179.51697429
 C     65  64  61     2.599190101992   113.48165686   359.64118163
 O     60  59  56     2.286797891022   126.79509480    15.34798872
 C     63  62  61     2.606727621349   124.49531253   199.51739651
 C     68  63  62     2.704654840672   120.43630177   352.45750885
 C     68  63  62     2.701931493266   123.35694158   166.27042823
 N     70  68  63     2.195368870746   177.11325122   242.74104278
 N     69  68  63     2.195647558337   178.17534024   354.05618242
 C     18  17  15     2.748703146757   128.88334370   181.22050091
 S     73  18  17     3.331870674769   119.25734592   121.14655838
 C     74  73  18     3.223017392738    92.71168586   183.79557170
 C     75  74  73     2.622435753857   112.79951657     0.18146634
 C     73  18  17     2.613492792023   130.95329007   305.23946233
 C     76  75  74     2.713097298970   128.88338334   187.99971626
 O     77  73  18     2.545217757586   128.44546776   353.46051166
 C     79  77  73     2.689469265807   120.19280494   325.97068061
 C     78  76  75     2.579543026294   135.46387178   345.83128975
 C     81  78  76     2.872577723380   115.81100522   160.94062898
 C     82  81  78     2.785650670324   104.07267066   195.54617487
 C     83  82  81     2.627275561641   111.26639521   355.83641942
 C     81  78  76     2.766344628437   136.06147771   349.56782433
 S     83  82  81     3.237958834605   135.92110887   176.26239145
 C     86  83  82     3.287253351985    90.35325603   179.71500518
 C     87  86  83     2.600531927311   113.45034653   359.45997039
 O     82  81  78     2.288593529826   126.63661466    13.30627389
 C     85  81  78     2.611998520074   128.98635091   331.99081414
 C     90  85  81     2.705559598319   120.68135505   180.06175019
 C     90  85  81     2.694977848985   123.61065511   354.01841652
 N     92  90  85     2.195646631029   178.38442827   216.70030230
 N     91  90  85     2.195772373131   178.57841831   326.93896653
 H      6   2   1     2.058079415708   121.99846171     3.86903740
 H     10   7   4     2.062090068212   120.93691157   357.38101584
 H     13   8   7     2.062467010559   121.11520062   178.14000210
 H     17  15  14     2.060225872838   125.49795152   358.34898408
 H     24  21   9     2.061073203372   119.84133098     0.87040120
 H     25  24  21     2.066879599761   119.31279715   180.44806785
 H     27  26  25     2.065741747511   119.70103752   179.62040861
 H     28  27  26     2.064651395088   119.64324049   181.68963150
 H     29  20   9     2.062153653741   119.60166211     5.77055254
 H     30  29  20     2.066664284590   119.23252790   179.46732822
 H     32  31  30     2.066197197845   119.51731501   180.39176192
 H     33  32  31     2.062431468888   119.47266251   180.53095948
 H     34  23  14     2.061973010860   119.89707375   353.03456427
 H     35  34  23     2.061216479465   118.62909377   180.41777734
 H     37  36  35     2.067607663228   119.45218936   180.46906863
 H     38  37  36     2.061722249977   119.52708577   181.08065626
 H     39  22  14     2.063902109238   119.56326039     0.81156996
 H     40  39  22     2.067213642108   119.30868043   178.99225593
 H     42  41  40     2.067421090593   119.55869936   180.44912317
 H     43  42  41     2.060547493209   119.23840046   178.41233393
 H     44  26  25     2.088230968388   108.90166985   118.02297646
 H     44  26  25     2.082061557401   109.00996393     2.67471081
 H     45  44  26     2.082024603820   111.51334046   300.00621877
 H     45  44  26     2.082254079892   110.88762715   180.06114243
 H     45  44  26     2.081718426831   111.07948660    59.75762357
 H     46  31  30     2.082350449919   109.38589429   356.29274270
 H     46  31  30     2.087378661440   108.87265901   241.02519625
 H     47  46  31     2.082204560062   111.14535620   299.76073263
 H     47  46  31     2.081419967787   111.19393252   179.01036768
 H     47  46  31     2.080394211345   111.42966877    59.25200716
 H     48  41  40     2.084520546523   109.22600968   141.62632506
 H     48  41  40     2.082337030025   109.47272922    25.25976608
 H     49  48  41     2.082117334369   110.93589352   299.82278507
 H     49  48  41     2.082151691900   111.56114095   179.64878558
 H     49  48  41     2.081957998722   111.00160254    59.23216679
 H     50  36  35     2.090531548516   108.45846727   263.39323777
 H     50  36  35     2.084627825237   108.34757737   149.83838204
 H     51  50  36     2.080776992894   112.06519104   296.13874279
 H     51  50  36     2.079967415202   110.73650585   176.78346724
 H     51  50  36     2.082732351894   111.33358833    56.50978654
 H     53  52   1     2.055363057369   120.31509983   181.08235430
 H     56  54  53     2.073557188153   116.63753425   139.63806199
 H     58  57  55     2.075024963586   106.81337486   184.87493887
 H     58  57  55     2.081725573775   110.72734903    64.88726587
 H     58  57  55     2.082110674921   110.96567413   304.28569734
 H     65  64  61     2.059754479280   119.65845511   179.88625532
 H     66  65  64     2.056217205883   123.44419103   181.01167963
 H     75  74  73     2.053659078676   119.64486989   183.99271463
 H     78  76  75     2.073233177765   112.49356809   159.61882832
 H     80  79  77     2.082764349021   110.73954338   322.70110569
 H     80  79  77     2.074562327256   106.08594888   203.71606757
 H     80  79  77     2.079828232292   111.66543368    84.43398381
 H     87  86  83     2.059343279924   119.66856507   179.53282806
 H     88  87  86     2.055079945016   123.38015144   179.90646649

---------------------
BASIS SET INFORMATION
---------------------
There are 5 groups of distinct atoms

 Group   1 Type C   : 11s6p2d1f contracted to 5s3p2d1f pattern {62111/411/11/1}
 Group   2 Type S   : 14s9p3d1f contracted to 5s5p2d1f pattern {73211/51111/21/1}
 Group   3 Type O   : 11s6p2d1f contracted to 5s3p2d1f pattern {62111/411/11/1}
 Group   4 Type N   : 11s6p2d1f contracted to 5s3p2d1f pattern {62111/411/11/1}
 Group   5 Type H   : 5s1p contracted to 3s1p pattern {311/1}

Atom   0C    basis set group =>   1
Atom   1C    basis set group =>   1
Atom   2S    basis set group =>   2
Atom   3C    basis set group =>   1
Atom   4C    basis set group =>   1
Atom   5C    basis set group =>   1
Atom   6C    basis set group =>   1
Atom   7C    basis set group =>   1
Atom   8C    basis set group =>   1
Atom   9C    basis set group =>   1
Atom  10C    basis set group =>   1
Atom  11C    basis set group =>   1
Atom  12C    basis set group =>   1
Atom  13C    basis set group =>   1
Atom  14C    basis set group =>   1
Atom  15C    basis set group =>   1
Atom  16C    basis set group =>   1
Atom  17C    basis set group =>   1
Atom  18S    basis set group =>   2
Atom  19C    basis set group =>   1
Atom  20C    basis set group =>   1
Atom  21C    basis set group =>   1
Atom  22C    basis set group =>   1
Atom  23C    basis set group =>   1
Atom  24C    basis set group =>   1
Atom  25C    basis set group =>   1
Atom  26C    basis set group =>   1
Atom  27C    basis set group =>   1
Atom  28C    basis set group =>   1
Atom  29C    basis set group =>   1
Atom  30C    basis set group =>   1
Atom  31C    basis set group =>   1
Atom  32C    basis set group =>   1
Atom  33C    basis set group =>   1
Atom  34C    basis set group =>   1
Atom  35C    basis set group =>   1
Atom  36C    basis set group =>   1
Atom  37C    basis set group =>   1
Atom  38C    basis set group =>   1
Atom  39C    basis set group =>   1
Atom  40C    basis set group =>   1
Atom  41C    basis set group =>   1
Atom  42C    basis set group =>   1
Atom  43C    basis set group =>   1
Atom  44C    basis set group =>   1
Atom  45C    basis set group =>   1
Atom  46C    basis set group =>   1
Atom  47C    basis set group =>   1
Atom  48C    basis set group =>   1
Atom  49C    basis set group =>   1
Atom  50C    basis set group =>   1
Atom  51S    basis set group =>   2
Atom  52C    basis set group =>   1
Atom  53C    basis set group =>   1
Atom  54C    basis set group =>   1
Atom  55C    basis set group =>   1
Atom  56O    basis set group =>   3
Atom  57C    basis set group =>   1
Atom  58C    basis set group =>   1
Atom  59C    basis set group =>   1
Atom  60C    basis set group =>   1
Atom  61C    basis set group =>   1
Atom  62C    basis set group =>   1
Atom  63S    basis set group =>   2
Atom  64C    basis set group =>   1
Atom  65C    basis set group =>   1
Atom  66O    basis set group =>   3
Atom  67C    basis set group =>   1
Atom  68C    basis set group =>   1
Atom  69C    basis set group =>   1
Atom  70N    basis set group =>   4
Atom  71N    basis set group =>   4
Atom  72C    basis set group =>   1
Atom  73S    basis set group =>   2
Atom  74C    basis set group =>   1
Atom  75C    basis set group =>   1
Atom  76C    basis set group =>   1
Atom  77C    basis set group =>   1
Atom  78O    basis set group =>   3
Atom  79C    basis set group =>   1
Atom  80C    basis set group =>   1
Atom  81C    basis set group =>   1
Atom  82C    basis set group =>   1
Atom  83C    basis set group =>   1
Atom  84C    basis set group =>   1
Atom  85S    basis set group =>   2
Atom  86C    basis set group =>   1
Atom  87C    basis set group =>   1
Atom  88O    basis set group =>   3
Atom  89C    basis set group =>   1
Atom  90C    basis set group =>   1
Atom  91C    basis set group =>   1
Atom  92N    basis set group =>   4
Atom  93N    basis set group =>   4
Atom  94H    basis set group =>   5
Atom  95H    basis set group =>   5
Atom  96H    basis set group =>   5
Atom  97H    basis set group =>   5
Atom  98H    basis set group =>   5
Atom  99H    basis set group =>   5
Atom 100H    basis set group =>   5
Atom 101H    basis set group =>   5
Atom 102H    basis set group =>   5
Atom 103H    basis set group =>   5
Atom 104H    basis set group =>   5
Atom 105H    basis set group =>   5
Atom 106H    basis set group =>   5
Atom 107H    basis set group =>   5
Atom 108H    basis set group =>   5
Atom 109H    basis set group =>   5
Atom 110H    basis set group =>   5
Atom 111H    basis set group =>   5
Atom 112H    basis set group =>   5
Atom 113H    basis set group =>   5
Atom 114H    basis set group =>   5
Atom 115H    basis set group =>   5
Atom 116H    basis set group =>   5
Atom 117H    basis set group =>   5
Atom 118H    basis set group =>   5
Atom 119H    basis set group =>   5
Atom 120H    basis set group =>   5
Atom 121H    basis set group =>   5
Atom 122H    basis set group =>   5
Atom 123H    basis set group =>   5
Atom 124H    basis set group =>   5
Atom 125H    basis set group =>   5
Atom 126H    basis set group =>   5
Atom 127H    basis set group =>   5
Atom 128H    basis set group =>   5
Atom 129H    basis set group =>   5
Atom 130H    basis set group =>   5
Atom 131H    basis set group =>   5
Atom 132H    basis set group =>   5
Atom 133H    basis set group =>   5
Atom 134H    basis set group =>   5
Atom 135H    basis set group =>   5
Atom 136H    basis set group =>   5
Atom 137H    basis set group =>   5
Atom 138H    basis set group =>   5
Atom 139H    basis set group =>   5
Atom 140H    basis set group =>   5
Atom 141H    basis set group =>   5
Atom 142H    basis set group =>   5
Atom 143H    basis set group =>   5
Atom 144H    basis set group =>   5
Atom 145H    basis set group =>   5
Atom 146H    basis set group =>   5
Atom 147H    basis set group =>   5
---------------------------------
AUXILIARY/J BASIS SET INFORMATION
---------------------------------
There are 5 groups of distinct atoms

 Group   1 Type C   : 12s5p4d2f1g contracted to 6s4p3d1f1g pattern {711111/2111/211/2/1}
 Group   2 Type S   : 14s5p5d2f1g contracted to 8s4p3d1f1g pattern {71111111/2111/311/2/1}
 Group   3 Type O   : 12s5p4d2f1g contracted to 6s4p3d1f1g pattern {711111/2111/211/2/1}
 Group   4 Type N   : 12s5p4d2f1g contracted to 6s4p3d1f1g pattern {711111/2111/211/2/1}
 Group   5 Type H   : 5s2p1d contracted to 3s1p1d pattern {311/2/1}

Atom   0C    basis set group =>   1
Atom   1C    basis set group =>   1
Atom   2S    basis set group =>   2
Atom   3C    basis set group =>   1
Atom   4C    basis set group =>   1
Atom   5C    basis set group =>   1
Atom   6C    basis set group =>   1
Atom   7C    basis set group =>   1
Atom   8C    basis set group =>   1
Atom   9C    basis set group =>   1
Atom  10C    basis set group =>   1
Atom  11C    basis set group =>   1
Atom  12C    basis set group =>   1
Atom  13C    basis set group =>   1
Atom  14C    basis set group =>   1
Atom  15C    basis set group =>   1
Atom  16C    basis set group =>   1
Atom  17C    basis set group =>   1
Atom  18S    basis set group =>   2
Atom  19C    basis set group =>   1
Atom  20C    basis set group =>   1
Atom  21C    basis set group =>   1
Atom  22C    basis set group =>   1
Atom  23C    basis set group =>   1
Atom  24C    basis set group =>   1
Atom  25C    basis set group =>   1
Atom  26C    basis set group =>   1
Atom  27C    basis set group =>   1
Atom  28C    basis set group =>   1
Atom  29C    basis set group =>   1
Atom  30C    basis set group =>   1
Atom  31C    basis set group =>   1
Atom  32C    basis set group =>   1
Atom  33C    basis set group =>   1
Atom  34C    basis set group =>   1
Atom  35C    basis set group =>   1
Atom  36C    basis set group =>   1
Atom  37C    basis set group =>   1
Atom  38C    basis set group =>   1
Atom  39C    basis set group =>   1
Atom  40C    basis set group =>   1
Atom  41C    basis set group =>   1
Atom  42C    basis set group =>   1
Atom  43C    basis set group =>   1
Atom  44C    basis set group =>   1
Atom  45C    basis set group =>   1
Atom  46C    basis set group =>   1
Atom  47C    basis set group =>   1
Atom  48C    basis set group =>   1
Atom  49C    basis set group =>   1
Atom  50C    basis set group =>   1
Atom  51S    basis set group =>   2
Atom  52C    basis set group =>   1
Atom  53C    basis set group =>   1
Atom  54C    basis set group =>   1
Atom  55C    basis set group =>   1
Atom  56O    basis set group =>   3
Atom  57C    basis set group =>   1
Atom  58C    basis set group =>   1
Atom  59C    basis set group =>   1
Atom  60C    basis set group =>   1
Atom  61C    basis set group =>   1
Atom  62C    basis set group =>   1
Atom  63S    basis set group =>   2
Atom  64C    basis set group =>   1
Atom  65C    basis set group =>   1
Atom  66O    basis set group =>   3
Atom  67C    basis set group =>   1
Atom  68C    basis set group =>   1
Atom  69C    basis set group =>   1
Atom  70N    basis set group =>   4
Atom  71N    basis set group =>   4
Atom  72C    basis set group =>   1
Atom  73S    basis set group =>   2
Atom  74C    basis set group =>   1
Atom  75C    basis set group =>   1
Atom  76C    basis set group =>   1
Atom  77C    basis set group =>   1
Atom  78O    basis set group =>   3
Atom  79C    basis set group =>   1
Atom  80C    basis set group =>   1
Atom  81C    basis set group =>   1
Atom  82C    basis set group =>   1
Atom  83C    basis set group =>   1
Atom  84C    basis set group =>   1
Atom  85S    basis set group =>   2
Atom  86C    basis set group =>   1
Atom  87C    basis set group =>   1
Atom  88O    basis set group =>   3
Atom  89C    basis set group =>   1
Atom  90C    basis set group =>   1
Atom  91C    basis set group =>   1
Atom  92N    basis set group =>   4
Atom  93N    basis set group =>   4
Atom  94H    basis set group =>   5
Atom  95H    basis set group =>   5
Atom  96H    basis set group =>   5
Atom  97H    basis set group =>   5
Atom  98H    basis set group =>   5
Atom  99H    basis set group =>   5
Atom 100H    basis set group =>   5
Atom 101H    basis set group =>   5
Atom 102H    basis set group =>   5
Atom 103H    basis set group =>   5
Atom 104H    basis set group =>   5
Atom 105H    basis set group =>   5
Atom 106H    basis set group =>   5
Atom 107H    basis set group =>   5
Atom 108H    basis set group =>   5
Atom 109H    basis set group =>   5
Atom 110H    basis set group =>   5
Atom 111H    basis set group =>   5
Atom 112H    basis set group =>   5
Atom 113H    basis set group =>   5
Atom 114H    basis set group =>   5
Atom 115H    basis set group =>   5
Atom 116H    basis set group =>   5
Atom 117H    basis set group =>   5
Atom 118H    basis set group =>   5
Atom 119H    basis set group =>   5
Atom 120H    basis set group =>   5
Atom 121H    basis set group =>   5
Atom 122H    basis set group =>   5
Atom 123H    basis set group =>   5
Atom 124H    basis set group =>   5
Atom 125H    basis set group =>   5
Atom 126H    basis set group =>   5
Atom 127H    basis set group =>   5
Atom 128H    basis set group =>   5
Atom 129H    basis set group =>   5
Atom 130H    basis set group =>   5
Atom 131H    basis set group =>   5
Atom 132H    basis set group =>   5
Atom 133H    basis set group =>   5
Atom 134H    basis set group =>   5
Atom 135H    basis set group =>   5
Atom 136H    basis set group =>   5
Atom 137H    basis set group =>   5
Atom 138H    basis set group =>   5
Atom 139H    basis set group =>   5
Atom 140H    basis set group =>   5
Atom 141H    basis set group =>   5
Atom 142H    basis set group =>   5
Atom 143H    basis set group =>   5
Atom 144H    basis set group =>   5
Atom 145H    basis set group =>   5
Atom 146H    basis set group =>   5
Atom 147H    basis set group =>   5


           ************************************************************
           *        Program running with 6 parallel MPI-processes     *
           *              working on a common directory               *
           ************************************************************
------------------------------------------------------------------------------
                           ORCA GTO INTEGRAL CALCULATION
                           -- RI-GTO INTEGRALS CHOSEN --
------------------------------------------------------------------------------

                         BASIS SET STATISTICS AND STARTUP INFO

Gaussian basis set:
 # of primitive gaussian shells          ... 2246
 # of primitive gaussian functions       ... 4858
 # of contracted shells                  ... 1262
 # of contracted basis functions         ... 3274
 Highest angular momentum                ...    3
 Maximum contraction depth               ...    7
Auxiliary gaussian basis set:
 # of primitive gaussian shells          ... 2706
 # of primitive gaussian functions       ... 7486
 # of contracted shells                  ... 1692
 # of contracted aux-basis functions     ... 5212
 Highest angular momentum                ...    4
 Maximum contraction depth               ...    7
Ratio of auxiliary to basis functions    ...  1.59
Integral package used                  ... LIBINT
 One Electron integrals                  ... done
 Ordering auxiliary basis shells         ... done
 Integral threshhold             Thresh  ...  2.500e-11
 Primitive cut-off               TCut    ...  2.500e-12
 Pre-screening matrix                    ... done
 Shell pair data                         ... 
 Ordering of the shell pairs             ... done (   0.052 sec) 224838 of 796953 pairs
 Determination of significant pairs      ... done (   0.001 sec)
 Creation of shell pair data             ... done (   0.019 sec)
 Storage of shell pair data              ... done (   0.025 sec)
 Shell pair data done in (   0.097 sec)
 Computing two index integrals           ... done
 Cholesky decomposition of the V-matrix  ... done


Timings:
 Total evaluation time                   ...  11.881 sec (  0.198 min)
 One electron matrix time                ...   3.734 sec (  0.062 min) = 31.4%
 Schwartz matrix evaluation time         ...   5.565 sec (  0.093 min) = 46.8%
 Two index repulsion integral time       ...   0.516 sec (  0.009 min) =  4.3%
 Cholesky decomposition of V             ...   1.952 sec (  0.033 min) = 16.4%
 Three index repulsion integral time     ...   0.000 sec (  0.000 min) =  0.0%



           ************************************************************
           *        Program running with 6 parallel MPI-processes     *
           *              working on a common directory               *
           ************************************************************
-------------------------------------------------------------------------------
                                 ORCA SCF
-------------------------------------------------------------------------------

------------
SCF SETTINGS
------------
Hamiltonian:
 Density Functional     Method          .... DFT(GTOs)
 Exchange Functional    Exchange        .... B88
   X-Alpha parameter    XAlpha          ....  0.666667
   Becke's b parameter  XBeta           ....  0.004200
 Correlation Functional Correlation     .... LYP
 LDA part of GGA corr.  LDAOpt          .... VWN-5
 Gradients option       PostSCFGGA      .... off
 Hybrid DFT is turned on
   Fraction HF Exchange ScalHFX         ....  0.200000
   Scaling of DF-GGA-X  ScalDFX         ....  0.720000
   Scaling of DF-GGA-C  ScalDFC         ....  0.810000
   Scaling of DF-LDA-C  ScalLDAC        ....  1.000000
   Perturbative correction              ....  0.000000
   Density functional embedding theory  .... OFF
   NL short-range parameter             ....  4.800000
 RI-approximation to the Coulomb term is turned on
   Number of auxiliary basis functions  .... 5212
   RIJ-COSX (HFX calculated with COS-X)).... on


General Settings:
 Integral files         IntName         .... i-cc23
 Hartree-Fock type      HFTyp           .... RHF
 Total Charge           Charge          ....    0
 Multiplicity           Mult            ....    1
 Number of Electrons    NEL             ....  690
 Basis Dimension        Dim             .... 3274
 Nuclear Repulsion      ENuc            ....  16799.6909183051 Eh

Convergence Acceleration:
 DIIS                   CNVDIIS         .... on
   Start iteration      DIISMaxIt       ....    12
   Startup error        DIISStart       ....  0.200000
   # of expansion vecs  DIISMaxEq       ....     5
   Bias factor          DIISBfac        ....   1.050
   Max. coefficient     DIISMaxC        ....  10.000
 Newton-Raphson         CNVNR           .... off
 SOSCF                  CNVSOSCF        .... on
   Start iteration      SOSCFMaxIt      ....   150
   Startup grad/error   SOSCFStart      ....  0.003300
 Level Shifting         CNVShift        .... on
   Level shift para.    LevelShift      ....    0.2500
   Turn off err/grad.   ShiftErr        ....    0.0010
 Zerner damping         CNVZerner       .... off
 Static damping         CNVDamp         .... on
   Fraction old density DampFac         ....    0.7000
   Max. Damping (<1)    DampMax         ....    0.9800
   Min. Damping (>=0)   DampMin         ....    0.0000
   Turn off err/grad.   DampErr         ....    0.1000
 Fernandez-Rico         CNVRico         .... off

SCF Procedure:
 Maximum # iterations   MaxIter         ....   125
 SCF integral mode      SCFMode         .... Direct
   Integral package                     .... LIBINT
 Reset frequency        DirectResetFreq ....    20
 Integral Threshold     Thresh          ....  2.500e-11 Eh
 Primitive CutOff       TCut            ....  2.500e-12 Eh

Convergence Tolerance:
 Convergence Check Mode ConvCheckMode   .... Total+1el-Energy
 Convergence forced     ConvForced      .... 1
 Energy Change          TolE            ....  1.000e-08 Eh
 1-El. energy change                    ....  1.000e-05 Eh
 Orbital Gradient       TolG            ....  1.000e-05
 Orbital Rotation angle TolX            ....  1.000e-05
 DIIS Error             TolErr          ....  5.000e-07


Diagonalization of the overlap matrix:
Smallest eigenvalue                        ... 2.299e-06
Time for diagonalization                   ...    3.724 sec
Threshold for overlap eigenvalues          ... 1.000e-08
Number of eigenvalues below threshold      ... 0
Time for construction of square roots      ...    3.491 sec
Total time needed                          ...    7.224 sec

-------------------
DFT GRID GENERATION
-------------------

General Integration Accuracy     IntAcc      ...  4.670
Radial Grid Type                 RadialGrid  ... Gauss-Chebyshev
Angular Grid (max. acc.)         AngularGrid ... Lebedev-302
Angular grid pruning method      GridPruning ... 3 (G Style)
Weight generation scheme         WeightScheme... Becke
Basis function cutoff            BFCut       ...    1.0000e-11
Integration weight cutoff        WCut        ...    1.0000e-14
Grids for H and He will be reduced by one unit

# of grid points (after initial pruning)     ... 771008 (   0.0 sec)
# of grid points (after weights+screening)   ... 647993 (   8.9 sec)
nearest neighbour list constructed           ...    0.0 sec
Grid point re-assignment to atoms done       ...    0.1 sec
Grid point division into batches done        ...    2.3 sec
Reduced shell lists constructed in    5.3 sec

Total number of grid points                  ...   647993
Total number of batches                      ...    10199
Average number of points per batch           ...       63
Average number of grid points per atom       ...     4378
Average number of shells per batch           ...   280.74 (22.25%)
Average number of basis functions per batch  ...   685.01 (20.92%)
Average number of large shells per batch     ...   155.80 (55.50%)
Average number of large basis fcns per batch ...   396.51 (57.88%)
Maximum spatial batch extension              ...  14.17, 17.80, 19.33 au
Average spatial batch extension              ...   0.23,  0.25,  0.24 au

Time for grid setup =   14.432 sec

------------------------------
INITIAL GUESS: MODEL POTENTIAL
------------------------------
Loading Hartree-Fock densities                     ... done
Calculating cut-offs                               ... done
Setting up the integral package                    ... done
Initializing the effective Hamiltonian             ... done
Starting the Coulomb interaction                   ... done (  11.9 sec)
Reading the grid                                   ... done
Mapping shells                                     ... done
Starting the XC term evaluation                    ... done (   6.2 sec)
  promolecular density results
     # of electrons  =    689.975012113
     EX              =   -636.513969748
     EC              =    -24.207833413
     EX+EC           =   -660.721803161
Transforming the Hamiltonian                       ... done (   3.3 sec)
Diagonalizing the Hamiltonian                      ... done (   3.7 sec)
Back transforming the eigenvectors                 ... done (   1.7 sec)
Now organizing SCF variables                       ... done
                      ------------------
                      INITIAL GUESS DONE (  41.5 sec)
                      ------------------
--------------------
COSX GRID GENERATION
--------------------

General Integration Accuracy     IntAcc      ...  3.340
Radial Grid Type                 RadialGrid  ... Gauss-Chebyshev
Angular Grid (max. acc.)         AngularGrid ... Lebedev-50
Angular grid pruning method      GridPruning ... 3 (G Style)
Weight generation scheme         WeightScheme... Becke
Basis function cutoff            BFCut       ...    1.0000e-11
Integration weight cutoff        WCut        ...    1.0000e-14
Grids for H and He will be reduced by one unit

# of grid points (after initial pruning)     ...  72500 (   0.0 sec)
# of grid points (after weights+screening)   ...  63979 (   0.8 sec)
nearest neighbour list constructed           ...    0.0 sec
Grid point re-assignment to atoms done       ...    0.0 sec
Grid point division into batches done        ...    0.0 sec
Reduced shell lists constructed in    0.4 sec

Total number of grid points                  ...    63979
Total number of batches                      ...     1079
Average number of points per batch           ...       59
Average number of grid points per atom       ...      432
Average number of shells per batch           ...   334.66 (26.52%)
Average number of basis functions per batch  ...   823.52 (25.15%)
Average number of large shells per batch     ...   184.14 (55.02%)
Average number of large basis fcns per batch ...   474.04 (57.56%)
Maximum spatial batch extension              ...   8.52, 14.39, 16.91 au
Average spatial batch extension              ...   0.45,  0.52,  0.45 au

Overlap Fitting                  UseSFitting ... on
Constructing numerical overlap ... done (      1.1 sec)
Inverting numerical overlap    ... done (      1.1 sec)
Obtaining analytic overlap     ... done (      0.0 sec)
Final contraction and storage  ... done (      7.1 sec)


General Integration Accuracy     IntAcc      ...  3.670
Radial Grid Type                 RadialGrid  ... Gauss-Chebyshev
Angular Grid (max. acc.)         AngularGrid ... Lebedev-50
Angular grid pruning method      GridPruning ... 3 (G Style)
Weight generation scheme         WeightScheme... Becke
Basis function cutoff            BFCut       ...    1.0000e-11
Integration weight cutoff        WCut        ...    1.0000e-14
Grids for H and He will be reduced by one unit

# of grid points (after initial pruning)     ...  90988 (   0.0 sec)
# of grid points (after weights+screening)   ...  79953 (   1.0 sec)
nearest neighbour list constructed           ...    0.0 sec
Grid point re-assignment to atoms done       ...    0.0 sec
Grid point division into batches done        ...    0.0 sec
Reduced shell lists constructed in    0.5 sec

Total number of grid points                  ...    79953
Total number of batches                      ...     1311
Average number of points per batch           ...       60
Average number of grid points per atom       ...      540
Average number of shells per batch           ...   328.70 (26.05%)
Average number of basis functions per batch  ...   808.89 (24.71%)
Average number of large shells per batch     ...   180.95 (55.05%)
Average number of large basis fcns per batch ...   465.51 (57.55%)
Maximum spatial batch extension              ...   8.80, 17.77, 18.09 au
Average spatial batch extension              ...   0.43,  0.49,  0.43 au

Overlap Fitting                  UseSFitting ... on
Constructing numerical overlap ... done (      1.3 sec)
Inverting numerical overlap    ... done (      1.1 sec)
Obtaining analytic overlap     ... done (      0.0 sec)
Final contraction and storage  ... done (      7.1 sec)


General Integration Accuracy     IntAcc      ...  4.010
Radial Grid Type                 RadialGrid  ... Gauss-Chebyshev
Angular Grid (max. acc.)         AngularGrid ... Lebedev-110
Angular grid pruning method      GridPruning ... 3 (G Style)
Weight generation scheme         WeightScheme... Becke
Basis function cutoff            BFCut       ...    1.0000e-11
Integration weight cutoff        WCut        ...    1.0000e-14
Grids for H and He will be reduced by one unit

# of grid points (after initial pruning)     ... 174864 (   0.0 sec)
# of grid points (after weights+screening)   ... 151943 (   2.1 sec)
nearest neighbour list constructed           ...    0.0 sec
Grid point re-assignment to atoms done       ...    0.0 sec
Grid point division into batches done        ...    0.1 sec
Reduced shell lists constructed in    0.9 sec

Total number of grid points                  ...   151943
Total number of batches                      ...     2452
Average number of points per batch           ...       61
Average number of grid points per atom       ...     1027
Average number of shells per batch           ...   313.19 (24.82%)
Average number of basis functions per batch  ...   769.40 (23.50%)
Average number of large shells per batch     ...   174.35 (55.67%)
Average number of large basis fcns per batch ...   447.07 (58.11%)
Maximum spatial batch extension              ...  11.35, 17.60, 18.45 au
Average spatial batch extension              ...   0.37,  0.42,  0.38 au

Overlap Fitting                  UseSFitting ... on
Constructing numerical overlap ... done (      2.2 sec)
Inverting numerical overlap    ... done (      1.1 sec)
Obtaining analytic overlap     ... done (      0.0 sec)
Final contraction and storage  ... done (      7.1 sec)

Time for X-Grid setup             =   35.519 sec
--------------
SCF ITERATIONS
--------------
ITER       Energy         Delta-E        Max-DP      RMS-DP      [F,P]     Damp
               ***  Starting incremental Fock matrix formation  ***
  0  -5986.3472438585   0.000000000000 0.39113067  0.00075102  0.2998805 0.7000
  1  -5987.5209384568  -1.173694598381 0.24083918  0.00057687  0.1070168 0.7000
                               ***Turning on DIIS***
  2  -5987.9448669479  -0.423928491067 0.22414410  0.00077341  0.0425802 0.0000
  3  -5988.6180713142  -0.673204366271 0.21510737  0.00056239  0.0558523 0.0000
  4  -5988.7848191638  -0.166747849637 0.04533850  0.00015982  0.0360394 0.0000
  5  -5988.8001420614  -0.015322897603 0.01991206  0.00007049  0.0149960 0.0000
                      *** Initiating the SOSCF procedure ***
                           *** Shutting down DIIS ***
                      *** Re-Reading the Fockian *** 
                      *** Removing any level shift *** 
ITER      Energy       Delta-E        Grad      Rot      Max-DP    RMS-DP
  6  -5988.80184165  -0.0016995838  0.000449  0.000449  0.016131  0.000027
[...]
   329a -> 346a  :     0.014552 (c= -0.12063157)
   332a -> 346a  :     0.027213 (c= -0.16496254)
   333a -> 346a  :     0.917882 (c= -0.95806174)

STATE 45:  E=   0.131685 au      3.583 eV    28901.6 cm**-1
   326a -> 345a  :     0.019132 (c=  0.13831871)
   339a -> 348a  :     0.011970 (c= -0.10940837)
   339a -> 349a  :     0.014786 (c= -0.12159715)
   342a -> 349a  :     0.296335 (c=  0.54436696)
   343a -> 349a  :     0.018010 (c=  0.13420104)
   344a -> 350a  :     0.013431 (c= -0.11589173)
   344a -> 351a  :     0.189903 (c= -0.43577878)
   344a -> 352a  :     0.336862 (c= -0.58039776)

STATE 46:  E=   0.131965 au      3.591 eV    28963.1 cm**-1
   323a -> 346a  :     0.021060 (c= -0.14512022)
   325a -> 346a  :     0.065204 (c=  0.25535010)
   325a -> 348a  :     0.068037 (c=  0.26083933)
   326a -> 348a  :     0.011372 (c= -0.10664131)
   330a -> 346a  :     0.035807 (c=  0.18922815)
   330a -> 348a  :     0.099616 (c=  0.31561928)
   331a -> 348a  :     0.032552 (c=  0.18042101)
   334a -> 348a  :     0.010504 (c= -0.10249034)
   335a -> 348a  :     0.021847 (c=  0.14780777)
   336a -> 348a  :     0.053275 (c= -0.23081294)
   337a -> 348a  :     0.129378 (c=  0.35969192)
   338a -> 348a  :     0.165301 (c=  0.40657199)
   339a -> 348a  :     0.157167 (c=  0.39644346)
   340a -> 348a  :     0.019907 (c=  0.14109062)
   342a -> 349a  :     0.016633 (c=  0.12896838)
   343a -> 349a  :     0.013675 (c= -0.11694140)
   344a -> 352a  :     0.018591 (c= -0.13634865)

STATE 47:  E=   0.132340 au      3.601 eV    29045.2 cm**-1
   324a -> 345a  :     0.031701 (c=  0.17804660)
   324a -> 347a  :     0.050116 (c=  0.22386632)
   326a -> 345a  :     0.047114 (c= -0.21705649)
   327a -> 345a  :     0.059464 (c= -0.24385149)
   328a -> 345a  :     0.029983 (c= -0.17315539)
   328a -> 347a  :     0.017134 (c=  0.13089524)
   329a -> 345a  :     0.349426 (c=  0.59112237)
   330a -> 345a  :     0.041496 (c=  0.20370504)
   331a -> 345a  :     0.263235 (c=  0.51306448)
   337a -> 347a  :     0.016296 (c= -0.12765461)

STATE 48:  E=   0.132564 au      3.607 eV    29094.4 cm**-1
   322a -> 347a  :     0.016708 (c= -0.12926045)
   324a -> 345a  :     0.121177 (c=  0.34810484)
   324a -> 347a  :     0.163052 (c=  0.40379685)
   326a -> 345a  :     0.060236 (c= -0.24543042)
   326a -> 347a  :     0.017639 (c= -0.13281195)
   328a -> 347a  :     0.088930 (c=  0.29821070)
   329a -> 345a  :     0.231281 (c= -0.48091660)
   329a -> 346a  :     0.036279 (c=  0.19046974)
   330a -> 346a  :     0.026123 (c= -0.16162755)
   331a -> 345a  :     0.031174 (c= -0.17656085)
   331a -> 346a  :     0.069052 (c=  0.26277670)
   332a -> 346a  :     0.010581 (c=  0.10286426)
   333a -> 346a  :     0.012110 (c= -0.11004411)
   337a -> 347a  :     0.012483 (c= -0.11172686)
   343a -> 349a  :     0.016756 (c= -0.12944630)

STATE 49:  E=   0.132626 au      3.609 eV    29108.1 cm**-1
   324a -> 345a  :     0.035166 (c= -0.18752641)
   324a -> 347a  :     0.046472 (c= -0.21557393)
   325a -> 346a  :     0.011448 (c=  0.10699645)
   325a -> 348a  :     0.015984 (c=  0.12642717)
   328a -> 347a  :     0.026374 (c= -0.16240190)
   329a -> 345a  :     0.022692 (c=  0.15063889)
   329a -> 346a  :     0.159292 (c=  0.39911405)
   330a -> 346a  :     0.072804 (c= -0.26982256)
   330a -> 348a  :     0.010917 (c=  0.10448444)
   331a -> 346a  :     0.367105 (c=  0.60589202)
   331a -> 348a  :     0.022298 (c=  0.14932647)
   332a -> 346a  :     0.053829 (c=  0.23201035)
   333a -> 346a  :     0.041821 (c= -0.20450140)
   338a -> 348a  :     0.024836 (c= -0.15759563)

STATE 50:  E=   0.132851 au      3.615 eV    29157.4 cm**-1
   324a -> 345a  :     0.074916 (c=  0.27370782)
   324a -> 347a  :     0.080553 (c=  0.28381792)
   326a -> 345a  :     0.185803 (c=  0.43104902)
   328a -> 345a  :     0.011646 (c=  0.10791514)
   328a -> 347a  :     0.094469 (c=  0.30735755)
   329a -> 345a  :     0.111233 (c=  0.33351605)
   330a -> 345a  :     0.181835 (c= -0.42642090)
   331a -> 345a  :     0.018069 (c= -0.13442238)
   336a -> 347a  :     0.046675 (c= -0.21604494)
   337a -> 347a  :     0.056872 (c=  0.23847949)
   343a -> 349a  :     0.021509 (c=  0.14665827)


-----------------------------
TD-DFT/TDA-EXCITATION SPECTRA
-----------------------------

Center of mass = (  9.8166, -4.4936, -4.8946)
Calculating the Dipole integrals                  ... done
Transforming integrals                            ... done
Calculating the Linear Momentum integrals         ... done
Transforming integrals                            ... done
Calculating angular momentum integrals            ... done
Transforming integrals                            ... done

-----------------------------------------------------------------------------
         ABSORPTION SPECTRUM VIA TRANSITION ELECTRIC DIPOLE MOMENTS
-----------------------------------------------------------------------------
State   Energy    Wavelength  fosc         T2        TX        TY        TZ  
        (cm-1)      (nm)                 (au**2)    (au)      (au)      (au) 
-----------------------------------------------------------------------------
   1   12280.2    814.3   0.001430237   0.03834  -0.14723   0.12909  -0.00037
   2   14057.6    711.4   0.005910457   0.13842   0.33038   0.07085  -0.15571
   3   16267.5    614.7   0.010647556   0.21548  -0.40015   0.11107   0.20742
   4   17556.2    569.6   0.002362884   0.04431  -0.17507  -0.11685  -0.00271
   5   19312.1    517.8   0.007313656   0.12468  -0.32963   0.12657  -0.00113
   6   20454.7    488.9   0.002339214   0.03765   0.16714   0.00824  -0.09821
   7   21611.9    462.7   0.000436266   0.00665  -0.08117   0.00148   0.00738
   8   22219.0    450.1   1.038850851  15.39235   3.61233   0.92994  -1.21598
   9   22555.9    443.3   0.010751881   0.15693   0.37817  -0.11763  -0.00902
  10   22686.7    440.8   0.075398940   1.09413   1.01916  -0.02766  -0.23385
  11   22715.4    440.2   0.301588956   4.37089   2.04972  -0.18496  -0.36786
  12   23092.9    433.0   0.678921287   9.67870   2.85744   0.37140  -1.17295
  13   23422.2    426.9   0.056439358   0.79329   0.81382   0.17213  -0.31835
  14   23724.8    421.5   0.403768446   5.60281  -2.00595  -0.73818   1.01689
  15   24055.6    415.7   0.000089458   0.00122   0.03450   0.00098  -0.00577
  16   24109.7    414.8   0.001130775   0.01544   0.05470   0.00590  -0.11141
  17   24251.3    412.3   0.000083848   0.00114  -0.00674  -0.02431   0.02240
  18   24373.8    410.3   0.000496951   0.00671   0.07996   0.00463  -0.01722
  19   24496.0    408.2   0.001305476   0.01754  -0.11577  -0.03667   0.05290
  20   25451.0    392.9   0.002534558   0.03278   0.16431   0.03923  -0.06518
  21   25453.0    392.9   0.000093668   0.00121   0.01803   0.01590  -0.02517
  22   25480.8    392.5   0.002837369   0.03666   0.18454   0.01606  -0.04844
  23   26027.7    384.2   0.002850801   0.03606   0.16896   0.04484  -0.07415
  24   26227.6    381.3   0.001391169   0.01746  -0.10939  -0.05909   0.04476
  25   26281.7    380.5   0.000138225   0.00173   0.04072  -0.00854  -0.00079
  26   26359.7    379.4   0.000661000   0.00826   0.06652  -0.05307   0.03185
  27   26411.5    378.6   0.000441523   0.00550   0.07237  -0.01623   0.00183
  28   26606.5    375.8   0.009672572   0.11968   0.02365   0.24153  -0.24655
  29   26650.9    375.2   0.012312451   0.15209  -0.20875  -0.30962   0.11250
  30   27155.1    368.3   0.007520259   0.09117  -0.19643  -0.18218   0.13927
  31   27228.6    367.3   0.003368917   0.04073  -0.14896  -0.10690   0.08436
  32   27334.2    365.8   0.100482816   1.21021  -0.07958  -0.91334   0.60802
  33   27501.0    363.6   0.078901747   0.94452   0.96159  -0.11704  -0.07861
  34   27589.3    362.5   0.006661403   0.07949  -0.13541  -0.18593   0.16304
  35   27627.9    362.0   0.046914874   0.55903  -0.74056   0.03327   0.09744
  36   27717.4    360.8   0.007182098   0.08530   0.27915   0.02763  -0.08135
  37   27776.3    360.0   0.000821247   0.00973  -0.06818   0.05746  -0.04223
  38   27808.6    359.6   0.004642411   0.05496   0.21122  -0.02217  -0.09928
  39   28056.2    356.4   0.000131399   0.00154  -0.03558   0.01428  -0.00848
  40   28058.8    356.4   0.000078316   0.00092  -0.02360  -0.01726   0.00800
  41   28148.7    355.3   0.004131520   0.04832   0.17615   0.10635  -0.07733
  42   28325.3    353.0   0.065971850   0.76676   0.69860   0.41159  -0.33063
  43   28351.6    352.7   0.012509311   0.14525  -0.33630  -0.13164   0.12179
  44   28852.5    346.6   0.000410323   0.00468   0.03960   0.03841  -0.04047
  45   28901.6    346.0   0.014389465   0.16391  -0.40429  -0.02068   0.00569
  46   28963.1    345.3   0.008027170   0.09124  -0.09153  -0.25908   0.12546
  47   29045.2    344.3   0.002164170   0.02453   0.09846  -0.10483   0.06202
  48   29094.4    343.7   0.008472796   0.09587   0.22914  -0.18070   0.10352
  49   29108.1    343.5   0.000644936   0.00729  -0.08137   0.02142  -0.01462
  50   29157.4    343.0   0.004496631   0.05077   0.19476   0.07548  -0.08451

-----------------------------------------------------------------------------
         ABSORPTION SPECTRUM VIA TRANSITION VELOCITY DIPOLE MOMENTS
-----------------------------------------------------------------------------
State   Energy    Wavelength   fosc        P2         PX        PY        PZ  
        (cm-1)      (nm)                 (au**2)     (au)      (au)      (au) 
-----------------------------------------------------------------------------
   1   12280.2    814.3   0.009880896   0.00083   0.01606   0.02264   0.00767
   2   14057.6    711.4   0.004848924   0.00047  -0.01418  -0.01400  -0.00830
   3   16267.5    614.7   0.022852925   0.00254   0.03363   0.02619   0.02691
   4   17556.2    569.6   0.005535189   0.00066   0.00622  -0.01699  -0.01836
   5   19312.1    517.8   0.010226870   0.00135   0.03054   0.02023  -0.00275
   6   20454.7    488.9   0.004409006   0.00062  -0.01563  -0.01677  -0.00953
   7   21611.9    462.7   0.000204597   0.00003   0.00508   0.00125  -0.00168
   8   22219.0    450.1   0.442276428   0.06716  -0.24528  -0.03528   0.07585
   9   22555.9    443.3   0.004170880   0.00064  -0.02223  -0.00634   0.01043
  10   22686.7    440.8   0.032044598   0.00497  -0.06470  -0.01422   0.02410
  11   22715.4    440.2   0.120097232   0.01864  -0.12192  -0.02329   0.05689
  12   23092.9    433.0   0.249540609   0.03938  -0.18871  -0.02119   0.05765
  13   23422.2    426.9   0.015969839   0.00256  -0.04497   0.00055   0.02311
  14   23724.8    421.5   0.103048684   0.01671   0.10729  -0.01778  -0.06987
  15   24055.6    415.7   0.000031822   0.00001  -0.00087   0.00123   0.00172
  16   24109.7    414.8   0.002581098   0.00043  -0.01506  -0.00942  -0.01048
  17   24251.3    412.3   0.000011444   0.00000   0.00040  -0.00084  -0.00102
  18   24373.8    410.3   0.000171347   0.00003  -0.00108   0.00183   0.00490
  19   24496.0    408.2   0.000213910   0.00004   0.00521  -0.00074  -0.00286
  20   25451.0    392.9   0.000898487   0.00016  -0.01070  -0.00576   0.00294
  21   25453.0    392.9   0.000035654   0.00001   0.00055   0.00183   0.00159
  22   25480.8    392.5   0.000534632   0.00009  -0.00908  -0.00079   0.00317
  23   26027.7    384.2   0.001715149   0.00031  -0.01419  -0.01013   0.00108
  24   26227.6    381.3   0.000390090   0.00007   0.00670   0.00382  -0.00324
  25   26281.7    380.5   0.000056211   0.00001  -0.00280  -0.00122   0.00088
  26   26359.7    379.4   0.000403367   0.00007  -0.00801  -0.00265  -0.00120
  27   26411.5    378.6   0.000181351   0.00003  -0.00420  -0.00277   0.00273
  28   26606.5    375.8   0.001776878   0.00032   0.00098   0.01522  -0.00951
  29   26650.9    375.2   0.005095139   0.00093   0.02992   0.00529   0.00218
  30   27155.1    368.3   0.002738520   0.00051   0.01937   0.01137  -0.00200
  31   27228.6    367.3   0.000478991   0.00009   0.00509   0.00188  -0.00773
  32   27334.2    365.8   0.001212096   0.00023  -0.00234   0.00501  -0.01400
  33   27501.0    363.6   0.082753351   0.01555  -0.10881  -0.06093  -0.00127
  34   27589.3    362.5   0.001561613   0.00029   0.01503   0.00774  -0.00293
  35   27627.9    362.0   0.051638490   0.00975   0.08669   0.04727  -0.00086
  36   27717.4    360.8   0.006983679   0.00132  -0.03191  -0.01706   0.00371
  37   27776.3    360.0   0.000507835   0.00010   0.00721   0.00573   0.00341
  38   27808.6    359.6   0.005690210   0.00108  -0.02846  -0.00668   0.01505
  39   28056.2    356.4   0.000050255   0.00001   0.00285   0.00069  -0.00102
  40   28058.8    356.4   0.000015504   0.00000  -0.00018  -0.00120  -0.00122
  41   28148.7    355.3   0.004873686   0.00094  -0.02773  -0.01263  -0.00308
  42   28325.3    353.0   0.065663434   0.01271  -0.09997  -0.05168  -0.00682
  43   28351.6    352.7   0.021225696   0.00411   0.05623   0.03026   0.00591
  44   28852.5    346.6   0.000571126   0.00011  -0.00839  -0.00647  -0.00054
  45   28901.6    346.0   0.000324841   0.00006   0.00389  -0.00623  -0.00319
  46   28963.1    345.3   0.006136290   0.00121   0.03246   0.01152   0.00529
  47   29045.2    344.3   0.003831272   0.00076  -0.02606  -0.00851  -0.00297
  48   29094.4    343.7   0.006364286   0.00127  -0.03475  -0.00757  -0.00055
  49   29108.1    343.5   0.002517781   0.00050   0.02109   0.00708   0.00246
  50   29157.4    343.0   0.001005158   0.00020   0.00255   0.00684   0.01213

-------------------------------------------------------------------
                             CD SPECTRUM
-------------------------------------------------------------------
State  Energy     Wavelength     R         MX        MY        MZ   
       (cm-1)       (nm)     (1e40*cgs)   (au)      (au)      (au)  
-------------------------------------------------------------------
   1   12280.2    814.3     -6.38450   0.02032  -0.08142   0.10565
   2   14057.6    711.4     -1.57923   0.04440  -0.08274   0.07806
   3   16267.5    614.7    -19.03442   0.06357  -0.30409   0.09082
   4   17556.2    569.6      0.81098   0.05399  -0.09870   0.13289
   5   19312.1    517.8     -2.90664  -0.01367  -0.08384   0.05198
   6   20454.7    488.9      0.87672   0.07003  -0.12310   0.08991
   7   21611.9    462.7      0.12100  -0.00382   0.00045  -0.00730
   8   22219.0    450.1    155.03530   0.15838   0.14660   0.31219
   9   22555.9    443.3      2.65511   0.02336   0.02167   0.07243
  10   22686.7    440.8     12.29038   0.06624   0.02569   0.17418
  11   22715.4    440.2     19.01732   0.09292   0.12098   0.34729
  12   23092.9    433.0    -74.79822   0.08665   0.39468   0.47133
  13   23422.2    426.9    -13.73537   0.02843  -0.00234   0.16293
  14   23724.8    421.5    -135.47355  -0.10662   0.02564  -0.47429
  15   24055.6    415.7     -0.18038  -0.01060   0.01644   0.00570
  16   24109.7    414.8     -5.80662   0.08338  -0.10980   0.14567
  17   24251.3    412.3     -0.01620  -0.00123  -0.00092  -0.00290
  18   24373.8    410.3     -1.49042  -0.04144   0.05806   0.00675
  19   24496.0    408.2     -0.96885   0.00026   0.01747  -0.02617
  20   25451.0    392.9     -2.36533  -0.01524   0.00269   0.04018
  21   25453.0    392.9     -0.19704   0.00535  -0.02004   0.00778
  22   25480.8    392.5     -0.89339   0.00449  -0.03125   0.04586
  23   26027.7    384.2     -2.56000  -0.00199  -0.02993   0.05059
  24   26227.6    381.3      0.42700   0.00224  -0.01224   0.00954
  25   26281.7    380.5      0.10073   0.00426  -0.00584   0.01233
  26   26359.7    379.4     -0.30402   0.00810   0.02907   0.01128
  27   26411.5    378.6      0.56522   0.01036  -0.02462   0.02701
  28   26606.5    375.8     18.89058  -0.05341   0.08478  -0.08459
  29   26650.9    375.2     17.36129  -0.08059  -0.05327   0.03119
  30   27155.1    368.3     -8.97358  -0.02489   0.10118  -0.03941
  31   27228.6    367.3     -5.55387  -0.01546   0.10598  -0.03265
  32   27334.2    365.8    -260.70358  -0.04126   0.56648  -0.06394
  33   27501.0    363.6     33.31152   0.09247   0.08943   0.09915
  34   27589.3    362.5     -9.27516  -0.01558   0.11422  -0.00335
  35   27627.9    362.0     27.51778  -0.09025  -0.01949  -0.08026
  36   27717.4    360.8      3.69351   0.03224  -0.02749   0.00499
  37   27776.3    360.0     -0.11058  -0.01109  -0.04426  -0.03676
  38   27808.6    359.6      7.11081   0.02018  -0.01533  -0.10556
  39   28056.2    356.4      0.10044  -0.00580  -0.00447  -0.00831
  40   28058.8    356.4     -0.16141  -0.00285   0.01783  -0.01274
  41   28148.7    355.3     -1.40968   0.04051  -0.06102   0.04703
  42   28325.3    353.0    -29.35348   0.15650  -0.29200   0.15550
  43   28351.6    352.7      3.51910  -0.07749   0.08303  -0.06296
  44   28852.5    346.6     -0.56821   0.01569  -0.04445   0.00295
  45   28901.6    346.0     -0.69891   0.00582  -0.07224  -0.10978
  46   28963.1    345.3    -24.49541  -0.07046   0.25128   0.05336
  47   29045.2    344.3     -0.11964   0.04008   0.09638   0.09519
  48   29094.4    343.7      1.60589   0.05934   0.17638   0.20942
  49   29108.1    343.5      2.38369  -0.04826  -0.00107  -0.07874
  50   29157.4    343.0     -7.00257   0.00313  -0.06456   0.12531

Total run time:    61957.577 sec

           *** ORCA-CIS/TD-DFT FINISHED WITHOUT ERROR ***

-----------------------
CIS/TD-DFT TOTAL ENERGY
-----------------------

    E(SCF)  =  -5988.803630538 Eh
    DE(CIS) =      0.055952679 Eh (Root  1)
    ----------------------------- ---------
    E(tot)  =  -5988.747677859 Eh


-------------------------   --------------------
FINAL SINGLE POINT ENERGY     -5988.747677858771
-------------------------   --------------------


                            ***************************************
                            *     ORCA property calculations      *
                            ***************************************

                                    ---------------------
                                    Active property flags
                                    ---------------------
   (+) Dipole Moment


------------------------------------------------------------------------------
                       ORCA ELECTRIC PROPERTIES CALCULATION
------------------------------------------------------------------------------

Dipole Moment Calculation                       ... on
Quadrupole Moment Calculation                   ... off
Polarizability Calculation                      ... off
GBWName                                         ... i-cc23.gbw
Electron density file                           ... i-cc23.scfp
The origin for moment calculation is the CENTER OF MASS  = ( 9.816631, -4.493646 -4.894646)

-------------
DIPOLE MOMENT
-------------
                                X             Y             Z
Electronic contribution:     11.06052      15.04460     -13.03047
Nuclear contribution   :    -11.78054     -17.00201      14.25288
                        -----------------------------------------
Total Dipole Moment    :     -0.72002      -1.95741       1.22241
                        -----------------------------------------
Magnitude (a.u.)       :      2.41747
Magnitude (Debye)      :      6.14472



--------------------
Rotational spectrum 
--------------------
 
Rotational constants in cm-1:     0.000976     0.000181     0.000175 
Rotational constants in MHz :    29.253779     5.434151     5.232340 

 Dipole components along the rotational axes: 
x,y,z [a.u.] :     1.357653     1.171171     1.621512 
x,y,z [Debye]:     3.450879     2.976881     4.121557 

 

Timings for individual modules:

Sum of individual times         ...    66639.918 sec (=1110.665 min)
GTO integral calculation        ...       13.543 sec (=   0.226 min)   0.0 %
SCF iterations                  ...     4667.948 sec (=  77.799 min)   7.0 %
CIS module                      ...    61958.427 sec (=1032.640 min)  93.0 %
                             ****ORCA TERMINATED NORMALLY****
TOTAL RUN TIME: 0 days 18 hours 30 minutes 44 seconds 387 msec
