
                                 *****************
                                 * O   R   C   A *
                                 *****************

           --- An Ab Initio, DFT and Semiempirical electronic structure package ---

                  #######################################################
                  #                        -***-                        #
                  #          Department of theory and spectroscopy      #
                  #               Directorship: Frank Neese             #
                  #        Max Planck Institute fuer Kohlenforschung    #
                  #                Kaiser Wilhelm Platz 1               #
                  #                 D-45470 Muelheim/Ruhr               #
                  #                      Germany                        #
                  #                                                     #
                  #                  All rights reserved                #
                  #                        -***-                        #
                  #######################################################


                         Program Version 4.2.0 -  RELEASE  -


 With contributions from (in alphabetic order):
   Daniel Aravena         : Magnetic Suceptibility
   Michael Atanasov       : Ab Initio Ligand Field Theory (pilot matlab implementation)
   Alexander A. Auer      : GIAO ZORA, VPT2
   Ute Becker             : Parallelization
   Giovanni Bistoni       : ED, misc. LED, open-shell LED, HFLED
   Martin Brehm           : Molecular dynamics
   Dmytro Bykov           : SCF Hessian
   Vijay G. Chilkuri      : MRCI spin determinant printing, contributions to CSF-ICE
   Dipayan Datta          : RHF DLPNO-CCSD density
   Achintya Kumar Dutta   : EOM-CC, STEOM-CC
   Dmitry Ganyushin       : Spin-Orbit,Spin-Spin,Magnetic field MRCI
   Miquel Garcia          : C-PCM Hessian, Gaussian charge scheme
   Yang Guo               : DLPNO-NEVPT2, CIM, IAO-localization
   Andreas Hansen         : Spin unrestricted coupled pair/coupled cluster methods
   Benjamin Helmich-Paris : CASSCF linear response (MC-RPA)
   Lee Huntington         : MR-EOM, pCC
   Robert Izsak           : Overlap fitted RIJCOSX, COSX-SCS-MP3, EOM
   Christian Kollmar      : KDIIS, OOCD, Brueckner-CCSD(T), CCSD density
   Simone Kossmann        : Meta GGA functionals, TD-DFT gradient, OOMP2, MP2 Hessian
   Martin Krupicka        : AUTO-CI
   Lucas Lang             : DCDCAS
   Dagmar Lenk            : GEPOL surface, SMD
   Dimitrios Liakos       : Extrapolation schemes; Compound Job, initial MDCI parallelization
   Dimitrios Manganas     : Further ROCIS development; embedding schemes
   Dimitrios Pantazis     : SARC Basis sets
   Taras Petrenko         : DFT Hessian,TD-DFT gradient, ASA, ECA, R-Raman, ABS, FL, XAS/XES, NRVS
   Peter Pinski           : DLPNO-MP2, DLPNO-MP2 Gradient
   Christoph Reimann      : Effective Core Potentials
   Marius Retegan         : Local ZFS, SOC
   Christoph Riplinger    : Optimizer, TS searches, QM/MM, DLPNO-CCSD(T), (RO)-DLPNO pert. Triples
   Tobias Risthaus        : Range-separated hybrids, TD-DFT gradient, RPA, STAB
   Michael Roemelt        : Original ROCIS implementation
   Masaaki Saitow         : Open-shell DLPNO-CCSD energy and density
   Barbara Sandhoefer     : DKH picture change effects
   Avijit Sen             : IP-ROCIS
   Kantharuban Sivalingam : CASSCF convergence, NEVPT2, FIC-MRCI
   Bernardo de Souza      : ESD, SOC TD-DFT
   Georgi Stoychev        : AutoAux, RI-MP2 NMR
   Willem Van den Heuvel  : Paramagnetic NMR
   Boris Wezisla          : Elementary symmetry handling
   Frank Wennmohs         : Technical directorship


 We gratefully acknowledge several colleagues who have allowed us to
 interface, adapt or use parts of their codes:
   Stefan Grimme, W. Hujo, H. Kruse,             : VdW corrections, initial TS optimization,
                  C. Bannwarth                     DFT functionals, gCP, sTDA/sTD-DF
   Ed Valeev, F. Pavosevic, A. Kumar             : LibInt (2-el integral package), F12 methods
   Garnet Chan, S. Sharma, J. Yang, R. Olivares  : DMRG
   Ulf Ekstrom                                   : XCFun DFT Library
   Mihaly Kallay                                 : mrcc  (arbitrary order and MRCC methods)
   Andreas Klamt, Michael Diedenhofen            : otool_cosmo (COSMO solvation model)
   Jiri Pittner, Ondrej Demel                    : Mk-CCSD
   Frank Weinhold                                : gennbo (NPA and NBO analysis)
   Christopher J. Cramer and Donald G. Truhlar   : smd solvation model
   Lars Goerigk                                  : TD-DFT with DH, B97 family of functionals
   V. Asgeirsson, H. Jonsson                     : NEB implementation
   FAccTs GmbH                                   : IRC, NEB, NEB-TS, Multilevel, MM, QM/MM, CI optimization
   S Lehtola, MJT Oliveira, MAL Marques          : LibXC Library


 Your calculation uses the libint2 library for the computation of 2-el integrals
 For citations please refer to: http://libint.valeyev.net

 Your ORCA version has been built with support for libXC version: 4.2.3
 For citations please refer to: https://tddft.org/programs/libxc/

 This ORCA versions uses:
   CBLAS   interface :  Fast vector & matrix operations
   LAPACKE interface :  Fast linear algebra routines
   SCALAPACK package :  Parallel linear algebra routines


----- Orbital basis set information -----
Your calculation utilizes the basis: def2-TZVP
   F. Weigend and R. Ahlrichs, Phys. Chem. Chem. Phys. 7, 3297 (2005).

----- AuxJ basis set information -----
Your calculation utilizes the auxiliary basis: def2/J
   F. Weigend, Phys. Chem. Chem. Phys. 8, 1057 (2006).

================================================================================
                                        WARNINGS
                       Please study these warnings very carefully!
================================================================================

INFO   : Checking CIS options ...

WARNING: CIS/ROCIS methods need fully converged wavefunctions
  ===> : Setting SCFConvForced true
         You can overwrite this default with %scf ConvForced false 


INFO   : the flag for use of LIBINT has been found!

================================================================================
                                       INPUT FILE
================================================================================
NAME = IDIC.inp
|  1> # ORCA input file
|  2> # IDIC.out: Geometry 18
|  3> ! B3LYP def2-TZVP def2/J RIJCOSX Grid4 TightSCF
|  4> 
|  5> %maxcore 6000
|  6> %tddft
|  7>   maxdim 5
|  8>   nroots 50
|  9>   end
| 10> %pal
| 11>   nprocs 6
| 12>   end
| 13> 
| 14> 
| 15> * xyz 0 1
| 16>    C        2.88191         1.08454        -0.59991
| 17>    C        2.82037        -0.33452        -0.73666
| 18>    C        1.58461        -0.96482        -0.75979
| 19>    C        0.43270        -0.16393        -0.69310
| 20>    C        0.49260         1.25982        -0.62596
| 21>    C        1.72839         1.88762        -0.55896
| 22>    C       -0.95897        -0.52598        -0.59248
| 23>    C       -1.76645         0.61186        -0.50140
| 24>    C       -0.91650         1.87205        -0.56645
| 25>    C        4.27625         1.42571        -0.46215
| 26>    C        5.07977         0.28107        -0.53139
| 27>    C        4.22450        -0.95861        -0.74531
| 28>    S       -1.83943        -1.98113        -0.42668
| 29>    C       -3.35239        -1.06830        -0.21208
| 30>    C       -3.11838         0.31614        -0.30161
| 31>    S        5.17547         2.85547        -0.18956
| 32>    C        6.69201         1.92493        -0.17157
| 33>    C        6.44226         0.55933        -0.38921
| 34>    C       -1.12412         2.75594         0.68761
| 35>    C       -1.26252         2.64808        -1.87311
| 36>    C       -0.54483         3.97696        -2.10097
| 37>    C       -0.98824         2.02354         2.02149
| 38>    C        4.57353        -1.58398        -2.12967
| 39>    C        4.35770        -1.96544         0.42906
| 40>    C        3.86962        -2.89059        -2.48912
| 41>    C        5.74614        -2.57111         0.63588
| 42>    C        7.86784         2.67212         0.09247
| 43>    C       -4.49036        -1.86273         0.08392
| 44>    C       -5.81356        -1.56233         0.33093
| 45>    C        9.19973         2.32301         0.19877
| 46>    C        9.80986         0.97762        -0.01182
| 47>    C       11.27586         1.16572         0.11652
| 48>    C       11.56406         2.51317         0.40747
| 49>    C       10.28659         3.25958         0.51772
| 50>    C       -6.47688        -0.22970         0.23396
| 51>    C       -7.92580        -0.47762         0.44094
| 52>    C       -8.15023        -1.84824         0.67663
| 53>    C       -6.84425        -2.55025         0.67937
| 54>    C       12.26784         0.20281        -0.01995
| 55>    C       13.59885         0.60562         0.12575
| 56>    C       13.90312         1.94644         0.39869
| 57>    C       12.90010         2.91163         0.54432
| 58>    C       -8.95831         0.45137         0.40953
| 59>    C      -10.26474        -0.00943         0.60122
| 60>    C      -10.50589        -1.37321         0.81736
| 61>    C       -9.46188        -2.30429         0.86220
| 62>    O        9.26441        -0.08904        -0.24697
| 63>    O       -5.97747         0.86257         0.01765
| 64>    C       -6.66776        -3.88054         1.01897
| 65>    C       10.18437         4.58481         0.90544
| 66>    C        8.94856         5.28437         1.08274
| 67>    C       11.31625         5.40396         1.21293
| 68>    C       -5.39588        -4.52981         1.11275
| 69>    C       -7.74803        -4.75323         1.36323
| 70>    N        7.96937         5.89277         1.23590
| 71>    N       12.19627         6.11499         1.47883
| 72>    N       -8.58788        -5.50338         1.65077
| 73>    N       -4.38661        -5.09971         1.20653
| 74>    H        1.49589        -2.05208        -0.79544
| 75>    H        1.81565         2.96911        -0.43756
| 76>    H       -3.93759         1.02367        -0.18835
| 77>    H        7.26807        -0.14615        -0.42518
| 78>    H       -2.12524         3.21484         0.61425
| 79>    H       -0.40681         3.59177         0.65049
| 80>    H       -2.35154         2.82479        -1.86345
| 81>    H       -1.06746         1.97244        -2.72209
| 82>    H       -0.74087         4.69857        -1.29320
| 83>    H       -0.90077         4.43681        -3.03624
| 84>    H        0.54490         3.85141        -2.19162
| 85>    H       -1.75217         1.23980         2.13577
| 86>    H       -1.10509         2.72647         2.86044
| 87>    H       -0.00289         1.54051         2.11895
| 88>    H        5.66406        -1.74222        -2.15933
| 89>    H        4.35756        -0.82316        -2.89747
| 90>    H        3.62617        -2.77384         0.26819
| 91>    H        4.03905        -1.44838         1.34936
| 92>    H        4.09244        -3.69209        -1.76831
| 93>    H        4.21022        -3.24041        -3.47612
| 94>    H        2.77653        -2.77439        -2.54306
| 95>    H        5.71969        -3.32475         1.43830
| 96>    H        6.48468        -1.81125         0.92699
| 97>    H        6.12098        -3.07291        -0.26949
| 98>    H        7.65360         3.72813         0.25624
| 99>    H       -4.24181        -2.92295         0.14218
|100>    H       11.99112        -0.83000        -0.24189
|101>    H       14.40655        -0.12211         0.02120
|102>    H       14.94681         2.25196         0.50462
|103>    H       13.17608         3.93997         0.76460
|104>    H       -8.73147         1.50463         0.23064
|105>    H      -11.10260         0.69076         0.57930
|106>    H      -11.53039        -1.72452         0.96065
|107>    H       -9.68810        -3.35294         1.04108
|108> *
|109> 
|110>                          ****END OF INPUT****
================================================================================

                       ****************************
                       * Single Point Calculation *
                       ****************************

---------------------------------
CARTESIAN COORDINATES (ANGSTROEM)
---------------------------------
  C      2.881910    1.084540   -0.599910
  C      2.820370   -0.334520   -0.736660
  C      1.584610   -0.964820   -0.759790
  C      0.432700   -0.163930   -0.693100
  C      0.492600    1.259820   -0.625960
  C      1.728390    1.887620   -0.558960
  C     -0.958970   -0.525980   -0.592480
  C     -1.766450    0.611860   -0.501400
  C     -0.916500    1.872050   -0.566450
  C      4.276250    1.425710   -0.462150
  C      5.079770    0.281070   -0.531390
  C      4.224500   -0.958610   -0.745310
  S     -1.839430   -1.981130   -0.426680
  C     -3.352390   -1.068300   -0.212080
  C     -3.118380    0.316140   -0.301610
  S      5.175470    2.855470   -0.189560
  C      6.692010    1.924930   -0.171570
  C      6.442260    0.559330   -0.389210
  C     -1.124120    2.755940    0.687610
  C     -1.262520    2.648080   -1.873110
  C     -0.544830    3.976960   -2.100970
  C     -0.988240    2.023540    2.021490
  C      4.573530   -1.583980   -2.129670
  C      4.357700   -1.965440    0.429060
  C      3.869620   -2.890590   -2.489120
  C      5.746140   -2.571110    0.635880
  C      7.867840    2.672120    0.092470
  C     -4.490360   -1.862730    0.083920
  C     -5.813560   -1.562330    0.330930
  C      9.199730    2.323010    0.198770
  C      9.809860    0.977620   -0.011820
  C     11.275860    1.165720    0.116520
  C     11.564060    2.513170    0.407470
  C     10.286590    3.259580    0.517720
  C     -6.476880   -0.229700    0.233960
  C     -7.925800   -0.477620    0.440940
  C     -8.150230   -1.848240    0.676630
  C     -6.844250   -2.550250    0.679370
  C     12.267840    0.202810   -0.019950
  C     13.598850    0.605620    0.125750
  C     13.903120    1.946440    0.398690
  C     12.900100    2.911630    0.544320
  C     -8.958310    0.451370    0.409530
  C    -10.264740   -0.009430    0.601220
  C    -10.505890   -1.373210    0.817360
  C     -9.461880   -2.304290    0.862200
  O      9.264410   -0.089040   -0.246970
  O     -5.977470    0.862570    0.017650
  C     -6.667760   -3.880540    1.018970
  C     10.184370    4.584810    0.905440
  C      8.948560    5.284370    1.082740
  C     11.316250    5.403960    1.212930
  C     -5.395880   -4.529810    1.112750
  C     -7.748030   -4.753230    1.363230
  N      7.969370    5.892770    1.235900
  N     12.196270    6.114990    1.478830
  N     -8.587880   -5.503380    1.650770
  N     -4.386610   -5.099710    1.206530
  H      1.495890   -2.052080   -0.795440
  H      1.815650    2.969110   -0.437560
  H     -3.937590    1.023670   -0.188350
  H      7.268070   -0.146150   -0.425180
  H     -2.125240    3.214840    0.614250
  H     -0.406810    3.591770    0.650490
  H     -2.351540    2.824790   -1.863450
  H     -1.067460    1.972440   -2.722090
  H     -0.740870    4.698570   -1.293200
  H     -0.900770    4.436810   -3.036240
  H      0.544900    3.851410   -2.191620
  H     -1.752170    1.239800    2.135770
  H     -1.105090    2.726470    2.860440
  H     -0.002890    1.540510    2.118950
  H      5.664060   -1.742220   -2.159330
  H      4.357560   -0.823160   -2.897470
  H      3.626170   -2.773840    0.268190
  H      4.039050   -1.448380    1.349360
  H      4.092440   -3.692090   -1.768310
  H      4.210220   -3.240410   -3.476120
  H      2.776530   -2.774390   -2.543060
  H      5.719690   -3.324750    1.438300
  H      6.484680   -1.811250    0.926990
  H      6.120980   -3.072910   -0.269490
  H      7.653600    3.728130    0.256240
  H     -4.241810   -2.922950    0.142180
  H     11.991120   -0.830000   -0.241890
  H     14.406550   -0.122110    0.021200
  H     14.946810    2.251960    0.504620
  H     13.176080    3.939970    0.764600
  H     -8.731470    1.504630    0.230640
  H    -11.102600    0.690760    0.579300
  H    -11.530390   -1.724520    0.960650
  H     -9.688100   -3.352940    1.041080

----------------------------
CARTESIAN COORDINATES (A.U.)
----------------------------
  NO LB      ZA    FRAG     MASS         X           Y           Z
   0 C     6.0000    0    12.011    5.446021    2.049484   -1.133666
   1 C     6.0000    0    12.011    5.329727   -0.632151   -1.392086
   2 C     6.0000    0    12.011    2.994479   -1.823246   -1.435795
   3 C     6.0000    0    12.011    0.817684   -0.309783   -1.309769
   4 C     6.0000    0    12.011    0.930879    2.380715   -1.182893
   5 C     6.0000    0    12.011    3.266184    3.567085   -1.056281
   6 C     6.0000    0    12.011   -1.812191   -0.993958   -1.119625
   7 C     6.0000    0    12.011   -3.338107    1.156248   -0.947509
   8 C     6.0000    0    12.011   -1.731934    3.537662   -1.070435
   9 C     6.0000    0    12.011    8.080941    2.694201   -0.873337
  10 C     6.0000    0    12.011    9.599374    0.531145   -1.004182
  11 C     6.0000    0    12.011    7.983148   -1.811510   -1.408432
  12 S    16.0000    0    32.060   -3.476019   -3.743793   -0.806308
  13 C     6.0000    0    12.011   -6.335099   -2.018794   -0.400773
  14 C     6.0000    0    12.011   -5.892884    0.597418   -0.569960
  15 S    16.0000    0    32.060    9.780221    5.396056   -0.358216
  16 C     6.0000    0    12.011   12.646066    3.637591   -0.324220
  17 C     6.0000    0    12.011   12.174107    1.056981   -0.735500
  18 C     6.0000    0    12.011   -2.124279    5.207972    1.299395
  19 C     6.0000    0    12.011   -2.385817    5.004146   -3.539665
  20 C     6.0000    0    12.011   -1.029579    7.515365   -3.970258
  21 C     6.0000    0    12.011   -1.867503    3.823936    3.820062
  22 C     6.0000    0    12.011    8.642719   -2.993288   -4.024493
  23 C     6.0000    0    12.011    8.234860   -3.714143    0.810806
  24 C     6.0000    0    12.011    7.312522   -5.462423   -4.703755
  25 C     6.0000    0    12.011   10.858631   -4.858694    1.201639
  26 C     6.0000    0    12.011   14.868063    5.049575    0.174743
  27 C     6.0000    0    12.011   -8.485551   -3.520050    0.158586
  28 C     6.0000    0    12.011  -10.986036   -2.952376    0.625367
  29 C     6.0000    0    12.011   17.384970    4.389853    0.375621
  30 C     6.0000    0    12.011   18.537949    1.847434   -0.022337
  31 C     6.0000    0    12.011   21.308287    2.202892    0.220191
  32 C     6.0000    0    12.011   21.852906    4.749203    0.770007
  33 C     6.0000    0    12.011   19.438838    6.159714    0.978349
  34 C     6.0000    0    12.011  -12.239529   -0.434070    0.442120
  35 C     6.0000    0    12.011  -14.977591   -0.902571    0.833256
  36 C     6.0000    0    12.011  -15.401703   -3.492667    1.278645
  37 C     6.0000    0    12.011  -12.933758   -4.819274    1.283823
  38 C     6.0000    0    12.011   23.182858    0.383255   -0.037700
  39 C     6.0000    0    12.011   25.698102    1.144456    0.237633
  40 C     6.0000    0    12.011   26.273089    3.678239    0.753415
  41 C     6.0000    0    12.011   24.377656    5.502183    1.028616
  42 C     6.0000    0    12.011  -16.928753    0.852966    0.773900
  43 C     6.0000    0    12.011  -19.397547   -0.017820    1.136141
  44 C     6.0000    0    12.011  -19.853255   -2.594991    1.544587
  45 C     6.0000    0    12.011  -17.880362   -4.354477    1.629322
  46 O     8.0000    0    15.999   17.507198   -0.168261   -0.466706
  47 O     8.0000    0    15.999  -11.295781    1.630021    0.033354
  48 C     6.0000    0    12.011  -12.600240   -7.333158    1.925574
  49 C     6.0000    0    12.011   19.245670    8.664035    1.711034
  50 C     6.0000    0    12.011   16.910328    9.986012    2.046082
  51 C     6.0000    0    12.011   21.384613   10.212004    2.292106
  52 C     6.0000    0    12.011  -10.196735   -8.560100    2.102793
  53 C     6.0000    0    12.011  -14.641655   -8.982303    2.576131
  54 N     7.0000    0    14.007   15.059927   11.135721    2.335513
  55 N     7.0000    0    14.007   23.047610   11.555656    2.794584
  56 N     7.0000    0    14.007  -16.228741  -10.399881    3.119503
  57 N     7.0000    0    14.007   -8.289492   -9.637055    2.280011
  58 H     1.0000    0     1.008    2.826822   -3.877869   -1.503164
  59 H     1.0000    0     1.008    3.431081    5.610805   -0.826869
  60 H     1.0000    0     1.008   -7.440967    1.934456   -0.355930
  61 H     1.0000    0     1.008   13.734662   -0.276183   -0.803474
  62 H     1.0000    0     1.008   -4.016122    6.075167    1.160764
  63 H     1.0000    0     1.008   -0.768759    6.787462    1.229248
  64 H     1.0000    0     1.008   -4.443767    5.338079   -3.521410
  65 H     1.0000    0     1.008   -2.017207    3.727371   -5.144005
  66 H     1.0000    0     1.008   -1.400041    8.879011   -2.443794
  67 H     1.0000    0     1.008   -1.702209    8.384356   -5.737662
  68 H     1.0000    0     1.008    1.029712    7.278110   -4.141562
  69 H     1.0000    0     1.008   -3.311121    2.342882    4.036020
  70 H     1.0000    0     1.008   -2.088317    5.152282    5.405448
  71 H     1.0000    0     1.008   -0.005461    2.911142    4.004235
  72 H     1.0000    0     1.008   10.703522   -3.292319   -4.080542
  73 H     1.0000    0     1.008    8.234595   -1.555547   -5.475425
  74 H     1.0000    0     1.008    6.852468   -5.241798    0.506806
  75 H     1.0000    0     1.008    7.632698   -2.737042    2.549921
  76 H     1.0000    0     1.008    7.733591   -6.977039   -3.341622
  77 H     1.0000    0     1.008    7.956163   -6.123487   -6.568915
  78 H     1.0000    0     1.008    5.246881   -5.242837   -4.805687
  79 H     1.0000    0     1.008   10.808648   -6.282867    2.717993
  80 H     1.0000    0     1.008   12.254269   -3.422766    1.751757
  81 H     1.0000    0     1.008   11.566976   -5.806958   -0.509262
  82 H     1.0000    0     1.008   14.463208    7.045145    0.484223
  83 H     1.0000    0     1.008   -8.015859   -5.523575    0.268681
  84 H     1.0000    0     1.008   22.659933   -1.568473   -0.457106
  85 H     1.0000    0     1.008   27.224434   -0.230754    0.040062
  86 H     1.0000    0     1.008   28.245377    4.255588    0.953594
  87 H     1.0000    0     1.008   24.899183    7.445464    1.444885
  88 H     1.0000    0     1.008  -16.500087    2.843339    0.435846
  89 H     1.0000    0     1.008  -20.980873    1.305347    1.094718
  90 H     1.0000    0     1.008  -21.789279   -3.258871    1.815365
  91 H     1.0000    0     1.008  -18.307856   -6.336138    1.967356

--------------------------------
INTERNAL COORDINATES (ANGSTROEM)
--------------------------------
 C      0   0   0     0.000000000000     0.00000000     0.00000000
 C      1   0   0     1.426961463285     0.00000000     0.00000000
 C      2   1   0     1.387413371890   119.45851872     0.00000000
 C      3   2   1     1.404552952473   118.07607235     2.18152387
 C      4   3   2     1.426590288801   122.47106600     1.07059827
 C      5   4   3     1.387731517297   119.41655656   356.83219559
 C      4   3   2     1.441509616964   130.68276999   185.47735736
 C      7   4   3     1.398212924558   110.95893513   177.67836017
 C      8   7   4     1.521422144278   110.40415578     1.15350716
 C      1   2   3     1.442067551157   106.62628838   173.89108606
 C     10   1   2     1.400228301957   110.89972322     1.03498097
 C     11  10   1     1.521201841210   110.51781755     0.60751890
 S      7   4   3     1.708847849898   135.89513087     4.02351535
 C     13   7   4     1.779988688307    90.74174612   173.12559860
 C      8   7   4     1.398242141905   113.30203877   184.48163092
 S     10   1   2     1.710881519597   136.14734641   183.41710091
 C     16  10   1     1.779359970130    90.71818652   177.90662660
 C     11  10   1     1.397863648608   113.05237980   180.60390353
 C      9   8   7     1.548235796027   111.30471239   237.58142247
 C      9   8   7     1.558625277897   108.91863560   114.36232082
 C     20   9   8     1.527390313607   116.99643944   177.92461696
 C     19   9   8     1.527779103405   114.93447790    50.45435355
 C     12  11  10     1.558641134899   109.02457447   115.85776568
 C     12  11  10     1.552608703376   111.95412251   241.76872697
 C     23  12  11     1.527063614490   116.68903900   176.57047964
 C     24  12  11     1.528848028713   115.92126775   296.34651399
 C     17  16  10     1.417951411932   115.66248800   182.47720474
 C     14  13   7     1.419052763572   114.81379486   184.57973735
 C     28  14  13     1.379170888650   133.21975483   179.21578991
 C     27  17  16     1.380980975322   132.91314752   179.40160251
 C     30  27  17     1.492206760841   127.69121773     3.24121082
 C     31  30  27     1.483579713261   106.11169913   175.56418303
 C     32  31  30     1.408308433902   109.96210903     0.96460605
 C     30  27  17     1.469747300389   124.66751460   181.63699552
 C     29  28  14     1.491743718003   127.55714540     6.01954475
 C     35  29  28     1.484477757732   106.00681349   173.39103603
 C     36  35  29     1.408729138408   109.95704545     1.15036351
 C     29  28  14     1.469597984518   124.67507640   182.73489860
 C     32  31  30     1.389188269962   127.53381483   181.07951397
 C     39  32  31     1.398238894538   118.02246113   179.16695849
 C     40  39  32     1.401739900588   120.16438507   359.87785679
 C     41  40  39     1.399588851556   121.62464555     0.56376054
 C     36  35  29     1.389275317675   127.63072699   181.65689402
 C     43  36  35     1.398513868719   118.08875753   178.48185628
 C     44  43  36     1.401701006099   120.16071634     0.00000000
 C     45  44  43     1.399599039761   121.59147194     0.68011425
 O     31  30  27     1.220890978179   129.21435912   355.71739570
 O     35  29  28     1.220349997788   128.98593839   354.07397631
 C     38  29  28     1.384250108976   127.93601918    10.63870190
 C     34  30  27     1.384561403369   128.03186010     7.65333423
 C     50  34  30     1.431099521242   124.49446539     0.85904949
 C     50  34  30     1.430632432528   123.35462356   179.01209482
 C     49  38  29     1.431092224736   124.42964048     1.22792152
 C     49  38  29     1.430764151284   123.29395961   178.96643212
 N     51  50  34     1.162936628411   177.63492136   183.72325936
 N     52  50  34     1.162196915888   176.92257350   184.23332125
 N     54  49  38     1.162218695685   177.21844573   180.61698046
 N     53  49  38     1.162844199065   177.44579809   174.69619528
 H      3   2   1     1.091456123030   121.70173606   184.16711799
 H      6   5   4     1.091775108573   121.64627947   184.25769771
 H     15   8   7     1.088361866568   127.23957630   179.26349660
 H     18  11  10     1.086718927506   127.45135710   181.30823500
 H     19   9   8     1.103726485140   107.76798735   287.74232676
 H     19   9   8     1.102054136329   108.56748281   173.54772687
 H     20   9   8     1.103306077251   106.94977777    55.41384555
 H     20   9   8     1.102408659980   107.52906777   301.66406300
 H     21  20   9     1.100747494478   112.16047065   300.63419353
 H     21  20   9     1.101310709564   109.76162547   181.86766772
 H     21  20   9     1.100677835654   112.22541457    62.62683107
 H     22  19   9     1.100407811177   111.73790651   297.23949655
 H     22  19   9     1.100727763755   110.47898666   177.50786408
 H     22  19   9     1.101694628742   111.52873762    57.49420134
 H     23  12  11     1.102349896403   107.63933100    53.63256008
 H     23  12  11     1.102273538329   107.32909951   300.01743534
 H     24  12  11     1.102055287996   107.95824242   173.28493307
 H     24  12  11     1.102651783701   107.60294101    59.39409978
 H     25  23  12     1.100735235422   112.06008561   299.90453194
 H     25  23  12     1.101159113117   109.89064674   181.03296719
 H     25  23  12     1.100571538656   112.27300778    61.73903452
 H     26  24  12     1.101158802580   110.35885814   184.27774273
 H     26  24  12     1.098896529843   111.85460919    64.97622985
 H     26  24  12     1.100910124624   112.24289257   303.76862358
 H     27  17  16     1.089897477105   112.05787091     0.49301047
 H     28  14  13     1.090521791850   111.87891330     0.59726324
 H     39  32  31     1.092029220351   119.64187449   359.61208039
 H     40  39  32     1.092200048251   120.13476353   180.25899712
 H     41  40  39     1.092635552872   119.58307454   180.37465116
 H     42  41  40     1.087277055032   119.43376298   179.45542837
 H     43  36  35     1.092160540076   119.61774712   358.95462032
 H     44  43  36     1.092133646629   120.17662804   180.24057292
 H     45  44  43     1.092497592766   119.63176574   180.33376995
 H     46  45  44     1.087584647418   119.44222027   179.45002555

---------------------------
INTERNAL COORDINATES (A.U.)
---------------------------
 C      0   0   0     0.000000000000     0.00000000     0.00000000
 C      1   0   0     2.696566369268     0.00000000     0.00000000
 C      2   1   0     2.621831307413   119.45851872     0.00000000
 C      3   2   1     2.654220420764   118.07607235     2.18152387
 C      4   3   2     2.695864951145   122.47106600     1.07059827
 C      5   4   3     2.622432515103   119.41655656   356.83219559
 C      4   3   2     2.724058395476   130.68276999   185.47735736
 C      7   4   3     2.642239504323   110.95893513   177.67836017
 C      8   7   4     2.875071186769   110.40415578     1.15350716
 C      1   2   3     2.725112738301   106.62628838   173.89108606
 C     10   1   2     2.646048015663   110.89972322     1.03498097
 C     11  10   1     2.874654874303   110.51781755     0.60751890
 S      7   4   3     3.229254440847   135.89513087     4.02351535
 C     13   7   4     3.363691142377    90.74174612   173.12559860
 C      8   7   4     2.642294717109   113.30203877   184.48163092
 S     10   1   2     3.233097519626   136.14734641   183.41710091
 C     16  10   1     3.362503037207    90.71818652   177.90662660
 C     11  10   1     2.641579468433   113.05237980   180.60390353
 C      9   8   7     2.925741645225   111.30471239   237.58142247
 C      9   8   7     2.945374920633   108.91863560   114.36232082
 C     20   9   8     2.886349392321   116.99643944   177.92461696
 C     19   9   8     2.887084098563   114.93447790    50.45435355
 C     12  11  10     2.945404886024   109.02457447   115.85776568
 C     12  11  10     2.934005242524   111.95412251   241.76872697
 C     23  12  11     2.885732020462   116.68903900   176.57047964
 C     24  12  11     2.889104074653   115.92126775   296.34651399
 C     17  16  10     2.679539839758   115.66248800   182.47720474
 C     14  13   7     2.681621092734   114.81379486   184.57973735
 C     28  14  13     2.606255271426   133.21975483   179.21578991
 C     27  17  16     2.609675839513   132.91314752   179.40160251
 C     30  27  17     2.819862113175   127.69121773     3.24121082
 C     31  30  27     2.803559355905   106.11169913   175.56418303
 C     32  31  30     2.661317252167   109.96210903     0.96460605
 C     30  27  17     2.777419883805   124.66751460   181.63699552
 C     29  28  14     2.818987089022   127.55714540     6.01954475
 C     35  29  28     2.805256414010   106.00681349   173.39103603
 C     36  35  29     2.662112268466   109.95704545     1.15036351
 C     29  28  14     2.777137717702   124.67507640   182.73489860
 C     32  31  30     2.625185378684   127.53381483   181.07951397
 C     39  32  31     2.642288580474   118.02246113   179.16695849
 C     40  39  32     2.648904523101   120.16438507   359.87785679
 C     41  40  39     2.644839629530   121.62464555     0.56376054
 C     36  35  29     2.625349875022   127.63072699   181.65689402
 C     43  36  35     2.642808206370   118.08875753   178.48185628
 C     44  43  36     2.648831023170   120.16071634     0.00000000
 C     45  44  43     2.644858882448   121.59147194     0.68011425
 O     31  30  27     2.307149588134   129.21435912   355.71739570
 O     35  29  28     2.306127283350   128.98593839   354.07397631
 C     38  29  28     2.615853606815   127.93601918    10.63870190
 C     34  30  27     2.616441867966   128.03186010     7.65333423
 C     50  34  30     2.704386165534   124.49446539     0.85904949
 C     50  34  30     2.703503495783   123.35462356   179.01209482
 C     49  38  29     2.704372377135   124.42964048     1.22792152
 C     49  38  29     2.703752408159   123.29395961   178.96643212
 N     51  50  34     2.197631738803   177.63492136   183.72325936
 N     52  50  34     2.196233884717   176.92257350   184.23332125
 N     54  49  38     2.196275042568   177.21844573   180.61698046
 N     53  49  38     2.197457072653   177.44579809   174.69619528
 H      3   2   1     2.062553159718   121.70173606   184.16711799
 H      6   5   4     2.063155955035   121.64627947   184.25769771
 H     15   8   7     2.056705862417   127.23957630   179.26349660
 H     18  11  10     2.053601157535   127.45135710   181.30823500
 H     19   9   8     2.085740783671   107.76798735   287.74232676
 H     19   9   8     2.082580502417   108.56748281   173.54772687
 H     20   9   8     2.084946327896   106.94977777    55.41384555
 H     20   9   8     2.083250455026   107.52906777   301.66406300
 H     21  20   9     2.080111307164   112.16047065   300.63419353
 H     21  20   9     2.081175629430   109.76162547   181.86766772
 H     21  20   9     2.079979671063   112.22541457    62.62683107
 H     22  19   9     2.079469398753   111.73790651   297.23949655
 H     22  19   9     2.080074021500   110.47898666   177.50786408
 H     22  19   9     2.081901131535   111.52873762    57.49420134
 H     23  12  11     2.083139407958   107.63933100    53.63256008
 H     23  12  11     2.082995112110   107.32909951   300.01743534
 H     24  12  11     2.082582678752   107.95824242   173.28493307
 H     24  12  11     2.083709892276   107.60294101    59.39409978
 H     25  23  12     2.080088140905   112.06008561   299.90453194
 H     25  23  12     2.080889153662   109.89064674   181.03296719
 H     25  23  12     2.079778798848   112.27300778    61.73903452
 H     26  24  12     2.080888566833   110.35885814   184.27774273
 H     26  24  12     2.076613490919   111.85460919    64.97622985
 H     26  24  12     2.080418633601   112.24289257   303.76862358
 H     27  17  16     2.059607745780   112.05787091     0.49301047
 H     28  14  13     2.060787529670   111.87891330     0.59726324
 H     39  32  31     2.063636156703   119.64187449   359.61208039
 H     40  39  32     2.063958974650   120.13476353   180.25899712
 H     41  40  39     2.064781959114   119.58307454   180.37465116
 H     42  41  40     2.054655865708   119.43376298   179.45542837
 H     43  36  35     2.063884315020   119.61774712   358.95462032
 H     44  43  36     2.063833493770   120.17662804   180.24057292
 H     45  44  43     2.064521252296   119.63176574   180.33376995
 H     46  45  44     2.055237131078   119.44222027   179.45002555

---------------------
BASIS SET INFORMATION
---------------------
There are 5 groups of distinct atoms

 Group   1 Type C   : 11s6p2d1f contracted to 5s3p2d1f pattern {62111/411/11/1}
 Group   2 Type S   : 14s9p3d1f contracted to 5s5p2d1f pattern {73211/51111/21/1}
 Group   3 Type O   : 11s6p2d1f contracted to 5s3p2d1f pattern {62111/411/11/1}
 Group   4 Type N   : 11s6p2d1f contracted to 5s3p2d1f pattern {62111/411/11/1}
 Group   5 Type H   : 5s1p contracted to 3s1p pattern {311/1}

Atom   0C    basis set group =>   1
Atom   1C    basis set group =>   1
Atom   2C    basis set group =>   1
Atom   3C    basis set group =>   1
Atom   4C    basis set group =>   1
Atom   5C    basis set group =>   1
Atom   6C    basis set group =>   1
Atom   7C    basis set group =>   1
Atom   8C    basis set group =>   1
Atom   9C    basis set group =>   1
Atom  10C    basis set group =>   1
Atom  11C    basis set group =>   1
Atom  12S    basis set group =>   2
Atom  13C    basis set group =>   1
Atom  14C    basis set group =>   1
Atom  15S    basis set group =>   2
Atom  16C    basis set group =>   1
Atom  17C    basis set group =>   1
Atom  18C    basis set group =>   1
Atom  19C    basis set group =>   1
Atom  20C    basis set group =>   1
Atom  21C    basis set group =>   1
Atom  22C    basis set group =>   1
Atom  23C    basis set group =>   1
Atom  24C    basis set group =>   1
Atom  25C    basis set group =>   1
Atom  26C    basis set group =>   1
Atom  27C    basis set group =>   1
Atom  28C    basis set group =>   1
Atom  29C    basis set group =>   1
Atom  30C    basis set group =>   1
Atom  31C    basis set group =>   1
Atom  32C    basis set group =>   1
Atom  33C    basis set group =>   1
Atom  34C    basis set group =>   1
Atom  35C    basis set group =>   1
Atom  36C    basis set group =>   1
Atom  37C    basis set group =>   1
Atom  38C    basis set group =>   1
Atom  39C    basis set group =>   1
Atom  40C    basis set group =>   1
Atom  41C    basis set group =>   1
Atom  42C    basis set group =>   1
Atom  43C    basis set group =>   1
Atom  44C    basis set group =>   1
Atom  45C    basis set group =>   1
Atom  46O    basis set group =>   3
Atom  47O    basis set group =>   3
Atom  48C    basis set group =>   1
Atom  49C    basis set group =>   1
Atom  50C    basis set group =>   1
Atom  51C    basis set group =>   1
Atom  52C    basis set group =>   1
Atom  53C    basis set group =>   1
Atom  54N    basis set group =>   4
Atom  55N    basis set group =>   4
Atom  56N    basis set group =>   4
Atom  57N    basis set group =>   4
Atom  58H    basis set group =>   5
Atom  59H    basis set group =>   5
Atom  60H    basis set group =>   5
Atom  61H    basis set group =>   5
Atom  62H    basis set group =>   5
Atom  63H    basis set group =>   5
Atom  64H    basis set group =>   5
Atom  65H    basis set group =>   5
Atom  66H    basis set group =>   5
Atom  67H    basis set group =>   5
Atom  68H    basis set group =>   5
Atom  69H    basis set group =>   5
Atom  70H    basis set group =>   5
Atom  71H    basis set group =>   5
Atom  72H    basis set group =>   5
Atom  73H    basis set group =>   5
Atom  74H    basis set group =>   5
Atom  75H    basis set group =>   5
Atom  76H    basis set group =>   5
Atom  77H    basis set group =>   5
Atom  78H    basis set group =>   5
Atom  79H    basis set group =>   5
Atom  80H    basis set group =>   5
Atom  81H    basis set group =>   5
Atom  82H    basis set group =>   5
Atom  83H    basis set group =>   5
Atom  84H    basis set group =>   5
Atom  85H    basis set group =>   5
Atom  86H    basis set group =>   5
Atom  87H    basis set group =>   5
Atom  88H    basis set group =>   5
Atom  89H    basis set group =>   5
Atom  90H    basis set group =>   5
Atom  91H    basis set group =>   5
---------------------------------
AUXILIARY/J BASIS SET INFORMATION
---------------------------------
There are 5 groups of distinct atoms

 Group   1 Type C   : 12s5p4d2f1g contracted to 6s4p3d1f1g pattern {711111/2111/211/2/1}
 Group   2 Type S   : 14s5p5d2f1g contracted to 8s4p3d1f1g pattern {71111111/2111/311/2/1}
 Group   3 Type O   : 12s5p4d2f1g contracted to 6s4p3d1f1g pattern {711111/2111/211/2/1}
 Group   4 Type N   : 12s5p4d2f1g contracted to 6s4p3d1f1g pattern {711111/2111/211/2/1}
 Group   5 Type H   : 5s2p1d contracted to 3s1p1d pattern {311/2/1}

Atom   0C    basis set group =>   1
Atom   1C    basis set group =>   1
Atom   2C    basis set group =>   1
Atom   3C    basis set group =>   1
Atom   4C    basis set group =>   1
Atom   5C    basis set group =>   1
Atom   6C    basis set group =>   1
Atom   7C    basis set group =>   1
Atom   8C    basis set group =>   1
Atom   9C    basis set group =>   1
Atom  10C    basis set group =>   1
Atom  11C    basis set group =>   1
Atom  12S    basis set group =>   2
Atom  13C    basis set group =>   1
Atom  14C    basis set group =>   1
Atom  15S    basis set group =>   2
Atom  16C    basis set group =>   1
Atom  17C    basis set group =>   1
Atom  18C    basis set group =>   1
Atom  19C    basis set group =>   1
Atom  20C    basis set group =>   1
Atom  21C    basis set group =>   1
Atom  22C    basis set group =>   1
Atom  23C    basis set group =>   1
Atom  24C    basis set group =>   1
Atom  25C    basis set group =>   1
Atom  26C    basis set group =>   1
Atom  27C    basis set group =>   1
Atom  28C    basis set group =>   1
Atom  29C    basis set group =>   1
Atom  30C    basis set group =>   1
Atom  31C    basis set group =>   1
Atom  32C    basis set group =>   1
Atom  33C    basis set group =>   1
Atom  34C    basis set group =>   1
Atom  35C    basis set group =>   1
Atom  36C    basis set group =>   1
Atom  37C    basis set group =>   1
Atom  38C    basis set group =>   1
Atom  39C    basis set group =>   1
Atom  40C    basis set group =>   1
Atom  41C    basis set group =>   1
Atom  42C    basis set group =>   1
Atom  43C    basis set group =>   1
Atom  44C    basis set group =>   1
Atom  45C    basis set group =>   1
Atom  46O    basis set group =>   3
Atom  47O    basis set group =>   3
Atom  48C    basis set group =>   1
Atom  49C    basis set group =>   1
Atom  50C    basis set group =>   1
Atom  51C    basis set group =>   1
Atom  52C    basis set group =>   1
Atom  53C    basis set group =>   1
Atom  54N    basis set group =>   4
Atom  55N    basis set group =>   4
Atom  56N    basis set group =>   4
Atom  57N    basis set group =>   4
Atom  58H    basis set group =>   5
Atom  59H    basis set group =>   5
Atom  60H    basis set group =>   5
Atom  61H    basis set group =>   5
Atom  62H    basis set group =>   5
Atom  63H    basis set group =>   5
Atom  64H    basis set group =>   5
Atom  65H    basis set group =>   5
Atom  66H    basis set group =>   5
Atom  67H    basis set group =>   5
Atom  68H    basis set group =>   5
Atom  69H    basis set group =>   5
Atom  70H    basis set group =>   5
Atom  71H    basis set group =>   5
Atom  72H    basis set group =>   5
Atom  73H    basis set group =>   5
Atom  74H    basis set group =>   5
Atom  75H    basis set group =>   5
Atom  76H    basis set group =>   5
Atom  77H    basis set group =>   5
Atom  78H    basis set group =>   5
Atom  79H    basis set group =>   5
Atom  80H    basis set group =>   5
Atom  81H    basis set group =>   5
Atom  82H    basis set group =>   5
Atom  83H    basis set group =>   5
Atom  84H    basis set group =>   5
Atom  85H    basis set group =>   5
Atom  86H    basis set group =>   5
Atom  87H    basis set group =>   5
Atom  88H    basis set group =>   5
Atom  89H    basis set group =>   5
Atom  90H    basis set group =>   5
Atom  91H    basis set group =>   5


           ************************************************************
           *        Program running with 6 parallel MPI-processes     *
           *              working on a common directory               *
           ************************************************************
------------------------------------------------------------------------------
                           ORCA GTO INTEGRAL CALCULATION
                           -- RI-GTO INTEGRALS CHOSEN --
------------------------------------------------------------------------------

                         BASIS SET STATISTICS AND STARTUP INFO

Gaussian basis set:
 # of primitive gaussian shells          ... 1378
 # of primitive gaussian functions       ... 2974
 # of contracted shells                  ...  778
 # of contracted basis functions         ... 2014
 Highest angular momentum                ...    3
 Maximum contraction depth               ...    7
Auxiliary gaussian basis set:
 # of primitive gaussian shells          ... 1670
 # of primitive gaussian functions       ... 4618
 # of contracted shells                  ... 1044
 # of contracted aux-basis functions     ... 3220
 Highest angular momentum                ...    4
 Maximum contraction depth               ...    7
Ratio of auxiliary to basis functions    ...  1.60
Integral package used                  ... LIBINT
 One Electron integrals                  ... done
 Ordering auxiliary basis shells         ... done
 Integral threshhold             Thresh  ...  2.500e-11
 Primitive cut-off               TCut    ...  2.500e-12
 Pre-screening matrix                    ... done
 Shell pair data                         ... 
 Ordering of the shell pairs             ... done (   0.026 sec) 115934 of 303031 pairs
 Determination of significant pairs      ... done (   0.001 sec)
 Creation of shell pair data             ... done (   0.013 sec)
 Storage of shell pair data              ... done (   0.020 sec)
 Shell pair data done in (   0.059 sec)
 Computing two index integrals           ... done
 Cholesky decomposition of the V-matrix  ... done


Timings:
 Total evaluation time                   ...   4.692 sec (  0.078 min)
 One electron matrix time                ...   1.674 sec (  0.028 min) = 35.7%
 Schwartz matrix evaluation time         ...   2.320 sec (  0.039 min) = 49.4%
 Two index repulsion integral time       ...   0.250 sec (  0.004 min) =  5.3%
 Cholesky decomposition of V             ...   0.371 sec (  0.006 min) =  7.9%
 Three index repulsion integral time     ...   0.000 sec (  0.000 min) =  0.0%



           ************************************************************
           *        Program running with 6 parallel MPI-processes     *
           *              working on a common directory               *
           ************************************************************
-------------------------------------------------------------------------------
                                 ORCA SCF
-------------------------------------------------------------------------------

------------
SCF SETTINGS
------------
Hamiltonian:
 Density Functional     Method          .... DFT(GTOs)
 Exchange Functional    Exchange        .... B88
   X-Alpha parameter    XAlpha          ....  0.666667
   Becke's b parameter  XBeta           ....  0.004200
 Correlation Functional Correlation     .... LYP
 LDA part of GGA corr.  LDAOpt          .... VWN-5
 Gradients option       PostSCFGGA      .... off
 Hybrid DFT is turned on
   Fraction HF Exchange ScalHFX         ....  0.200000
   Scaling of DF-GGA-X  ScalDFX         ....  0.720000
   Scaling of DF-GGA-C  ScalDFC         ....  0.810000
   Scaling of DF-LDA-C  ScalLDAC        ....  1.000000
   Perturbative correction              ....  0.000000
   Density functional embedding theory  .... OFF
   NL short-range parameter             ....  4.800000
 RI-approximation to the Coulomb term is turned on
   Number of auxiliary basis functions  .... 3220
   RIJ-COSX (HFX calculated with COS-X)).... on


General Settings:
 Integral files         IntName         .... IDIC
 Hartree-Fock type      HFTyp           .... RHF
 Total Charge           Charge          ....    0
 Multiplicity           Mult            ....    1
 Number of Electrons    NEL             ....  410
 Basis Dimension        Dim             .... 2014
 Nuclear Repulsion      ENuc            ....   7275.2121858476 Eh

Convergence Acceleration:
 DIIS                   CNVDIIS         .... on
   Start iteration      DIISMaxIt       ....    12
   Startup error        DIISStart       ....  0.200000
   # of expansion vecs  DIISMaxEq       ....     5
   Bias factor          DIISBfac        ....   1.050
   Max. coefficient     DIISMaxC        ....  10.000
 Newton-Raphson         CNVNR           .... off
 SOSCF                  CNVSOSCF        .... on
   Start iteration      SOSCFMaxIt      ....   150
   Startup grad/error   SOSCFStart      ....  0.003300
 Level Shifting         CNVShift        .... on
   Level shift para.    LevelShift      ....    0.2500
   Turn off err/grad.   ShiftErr        ....    0.0010
 Zerner damping         CNVZerner       .... off
 Static damping         CNVDamp         .... on
   Fraction old density DampFac         ....    0.7000
   Max. Damping (<1)    DampMax         ....    0.9800
   Min. Damping (>=0)   DampMin         ....    0.0000
   Turn off err/grad.   DampErr         ....    0.1000
 Fernandez-Rico         CNVRico         .... off

SCF Procedure:
 Maximum # iterations   MaxIter         ....   125
 SCF integral mode      SCFMode         .... Direct
   Integral package                     .... LIBINT
 Reset frequency        DirectResetFreq ....    20
 Integral Threshold     Thresh          ....  2.500e-11 Eh
 Primitive CutOff       TCut            ....  2.500e-12 Eh

Convergence Tolerance:
 Convergence Check Mode ConvCheckMode   .... Total+1el-Energy
 Convergence forced     ConvForced      .... 1
 Energy Change          TolE            ....  1.000e-08 Eh
 1-El. energy change                    ....  1.000e-05 Eh
 Orbital Gradient       TolG            ....  1.000e-05
 Orbital Rotation angle TolX            ....  1.000e-05
 DIIS Error             TolErr          ....  5.000e-07


Diagonalization of the overlap matrix:
Smallest eigenvalue                        ... 2.831e-06
Time for diagonalization                   ...    0.659 sec
Threshold for overlap eigenvalues          ... 1.000e-08
Number of eigenvalues below threshold      ... 0
Time for construction of square roots      ...    0.477 sec
Total time needed                          ...    1.145 sec

-------------------
DFT GRID GENERATION
-------------------

General Integration Accuracy     IntAcc      ...  4.670
Radial Grid Type                 RadialGrid  ... Gauss-Chebyshev
Angular Grid (max. acc.)         AngularGrid ... Lebedev-302
Angular grid pruning method      GridPruning ... 3 (G Style)
Weight generation scheme         WeightScheme... Becke
Basis function cutoff            BFCut       ...    1.0000e-11
Integration weight cutoff        WCut        ...    1.0000e-14
Grids for H and He will be reduced by one unit

# of grid points (after initial pruning)     ... 476960 (   0.0 sec)
# of grid points (after weights+screening)   ... 405825 (   2.9 sec)
nearest neighbour list constructed           ...    0.0 sec
Grid point re-assignment to atoms done       ...    0.1 sec
Grid point division into batches done        ...    1.4 sec
Reduced shell lists constructed in    3.3 sec

Total number of grid points                  ...   405825
Total number of batches                      ...     6389
Average number of points per batch           ...       63
Average number of grid points per atom       ...     4411
Average number of shells per batch           ...   226.97 (29.17%)
Average number of basis functions per batch  ...   559.64 (27.79%)
Average number of large shells per batch     ...   140.89 (62.07%)
Average number of large basis fcns per batch ...   355.54 (63.53%)
Maximum spatial batch extension              ...   9.62, 16.06, 21.90 au
Average spatial batch extension              ...   0.23,  0.24,  0.28 au

Time for grid setup =    6.337 sec

------------------------------
INITIAL GUESS: MODEL POTENTIAL
------------------------------
Loading Hartree-Fock densities                     ... done
Calculating cut-offs                               ... done
Setting up the integral package                    ... done
Initializing the effective Hamiltonian             ... done
Starting the Coulomb interaction                   ... done (   3.2 sec)
Reading the grid                                   ... done
Mapping shells                                     ... done
Starting the XC term evaluation                    ... done (   3.6 sec)
  promolecular density results
     # of electrons  =    409.981228418
     EX              =   -359.745402016
     EC              =    -14.185218463
     EX+EC           =   -373.930620479
Transforming the Hamiltonian                       ... done (   0.3 sec)
Diagonalizing the Hamiltonian                      ... done (   0.7 sec)
Back transforming the eigenvectors                 ... done (   0.2 sec)
Now organizing SCF variables                       ... done
                      ------------------
                      INITIAL GUESS DONE (  14.5 sec)
                      ------------------
--------------------
COSX GRID GENERATION
--------------------

General Integration Accuracy     IntAcc      ...  3.340
Radial Grid Type                 RadialGrid  ... Gauss-Chebyshev
Angular Grid (max. acc.)         AngularGrid ... Lebedev-50
Angular grid pruning method      GridPruning ... 3 (G Style)
Weight generation scheme         WeightScheme... Becke
Basis function cutoff            BFCut       ...    1.0000e-11
Integration weight cutoff        WCut        ...    1.0000e-14
Grids for H and He will be reduced by one unit

# of grid points (after initial pruning)     ...  44716 (   0.0 sec)
# of grid points (after weights+screening)   ...  39770 (   0.3 sec)
nearest neighbour list constructed           ...    0.0 sec
Grid point re-assignment to atoms done       ...    0.0 sec
Grid point division into batches done        ...    0.0 sec
Reduced shell lists constructed in    0.2 sec

Total number of grid points                  ...    39770
Total number of batches                      ...      666
Average number of points per batch           ...       59
Average number of grid points per atom       ...      432
Average number of shells per batch           ...   261.44 (33.60%)
Average number of basis functions per batch  ...   651.01 (32.32%)
Average number of large shells per batch     ...   163.82 (62.66%)
Average number of large basis fcns per batch ...   417.79 (64.18%)
Maximum spatial batch extension              ...   5.64,  9.84, 16.16 au
Average spatial batch extension              ...   0.43,  0.43,  0.52 au

Overlap Fitting                  UseSFitting ... on
Constructing numerical overlap ... done (      0.3 sec)
Inverting numerical overlap    ... done (      0.2 sec)
Obtaining analytic overlap     ... done (      0.0 sec)
Final contraction and storage  ... done (      0.3 sec)


General Integration Accuracy     IntAcc      ...  3.670
Radial Grid Type                 RadialGrid  ... Gauss-Chebyshev
Angular Grid (max. acc.)         AngularGrid ... Lebedev-50
Angular grid pruning method      GridPruning ... 3 (G Style)
Weight generation scheme         WeightScheme... Becke
Basis function cutoff            BFCut       ...    1.0000e-11
Integration weight cutoff        WCut        ...    1.0000e-14
Grids for H and He will be reduced by one unit

# of grid points (after initial pruning)     ...  56148 (   0.0 sec)
# of grid points (after weights+screening)   ...  49689 (   0.3 sec)
nearest neighbour list constructed           ...    0.0 sec
Grid point re-assignment to atoms done       ...    0.0 sec
Grid point division into batches done        ...    0.0 sec
Reduced shell lists constructed in    0.3 sec

Total number of grid points                  ...    49689
Total number of batches                      ...      823
Average number of points per batch           ...       60
Average number of grid points per atom       ...      540
Average number of shells per batch           ...   257.10 (33.05%)
Average number of basis functions per batch  ...   639.59 (31.76%)
Average number of large shells per batch     ...   160.75 (62.52%)
Average number of large basis fcns per batch ...   409.27 (63.99%)
Maximum spatial batch extension              ...   8.01, 11.12, 17.47 au
Average spatial batch extension              ...   0.41,  0.42,  0.51 au

Overlap Fitting                  UseSFitting ... on
Constructing numerical overlap ... done (      0.3 sec)
Inverting numerical overlap    ... done (      0.2 sec)
Obtaining analytic overlap     ... done (      0.0 sec)
Final contraction and storage  ... done (      0.3 sec)


General Integration Accuracy     IntAcc      ...  4.010
Radial Grid Type                 RadialGrid  ... Gauss-Chebyshev
Angular Grid (max. acc.)         AngularGrid ... Lebedev-110
Angular grid pruning method      GridPruning ... 3 (G Style)
Weight generation scheme         WeightScheme... Becke
Basis function cutoff            BFCut       ...    1.0000e-11
Integration weight cutoff        WCut        ...    1.0000e-14
Grids for H and He will be reduced by one unit

# of grid points (after initial pruning)     ... 108092 (   0.0 sec)
# of grid points (after weights+screening)   ...  94777 (   0.7 sec)
nearest neighbour list constructed           ...    0.0 sec
Grid point re-assignment to atoms done       ...    0.0 sec
Grid point division into batches done        ...    0.1 sec
Reduced shell lists constructed in    0.6 sec

Total number of grid points                  ...    94777
Total number of batches                      ...     1533
Average number of points per batch           ...       61
Average number of grid points per atom       ...     1030
Average number of shells per batch           ...   246.82 (31.73%)
Average number of basis functions per batch  ...   613.10 (30.44%)
Average number of large shells per batch     ...   155.82 (63.13%)
Average number of large basis fcns per batch ...   396.57 (64.68%)
Maximum spatial batch extension              ...   8.23, 11.28, 17.54 au
Average spatial batch extension              ...   0.34,  0.35,  0.43 au

Overlap Fitting                  UseSFitting ... on
Constructing numerical overlap ... done (      0.5 sec)
Inverting numerical overlap    ... done (      0.2 sec)
Obtaining analytic overlap     ... done (      0.0 sec)
Final contraction and storage  ... done (      0.3 sec)

Time for X-Grid setup             =    5.124 sec
--------------
SCF ITERATIONS
--------------
ITER       Energy         Delta-E        Max-DP      RMS-DP      [F,P]     Damp
               ***  Starting incremental Fock matrix formation  ***
  0  -3089.3661165858   0.000000000000 0.12751199  0.00092970  0.2858232 0.7000
  1  -3090.1120354472  -0.745918861323 0.11726851  0.00074005  0.1052927 0.7000
                               ***Turning on DIIS***
  2  -3090.3656146415  -0.253579194297 0.20966730  0.00106738  0.0451247 0.0000
  3  -3090.8198504151  -0.454235773675 0.12289091  0.00065840  0.0552266 0.0000
  4  -3090.9002947235  -0.080444308365 0.02920769  0.00019020  0.0349701 0.0000
  5  -3090.9137704835  -0.013475760041 0.01861832  0.00009981  0.0070287 0.0000
                      *** Initiating the SOSCF procedure ***
                           *** Shutting down DIIS ***
                      *** Re-Reading the Fockian *** 
                      *** Removing any level shift *** 
ITER      Energy       Delta-E        Grad      Rot      Max-DP    RMS-DP
  6  -3090.91450418  -0.0007336991  0.000624  0.000624  0.005170  0.000032
               *** Restarting incremental Fock matrix formation ***
  7  -3090.91459117  -0.0000869867  0.000386  0.003126  0.008459  0.000057
  8  -3090.91458381   0.0000073598  0.000506  0.002523  0.002523  0.000019
  9  -3090.91460889  -0.0000250812  0.000240  0.002083  0.002756  0.000019
 10  -3090.91460526   0.0000036301  0.000240  0.000722  0.000553  0.000003
 11  -3090.91461163  -0.0000063702  0.000094  0.000486  0.000771  0.000006
 12  -3090.91461044   0.0000011866  0.000164  0.000290  0.000834  0.000002
 13  -3090.91461206  -0.0000016173  0.000022  0.000071  0.001114  0.000002
 14  -3090.91461199   0.0000000748  0.000035  0.000051  0.000422  0.000001
 15  -3090.91461211  -0.0000001190  0.000005  0.000031  0.000373  0.000001
 16  -3090.91461209   0.0000000125  0.000008  0.000016  0.000293  0.000001
                  ***Gradient check signals convergence***
              ***Rediagonalizing the Fockian in SOSCF/NRSCF***

               *****************************************************
               *                     SUCCESS                       *
               *           SCF CONVERGED AFTER  17 CYCLES          *
               *****************************************************

Setting up the final grid:

General Integration Accuracy     IntAcc      ...  5.010
Radial Grid Type                 RadialGrid  ... Gauss-Chebyshev
Angular Grid (max. acc.)         AngularGrid ... Lebedev-434
Angular grid pruning method      GridPruning ... 3 (G Style)
Weight generation scheme         WeightScheme... Becke
Basis function cutoff            BFCut       ...    1.0000e-11
Integration weight cutoff        WCut        ...    1.0000e-14
Grids for H and He will be reduced by one unit

# of grid points (after initial pruning)     ... 849952 (   0.0 sec)
# of grid points (after weights+screening)   ... 721019 (   4.9 sec)
nearest neighbour list constructed           ...    0.0 sec
Grid point re-assignment to atoms done       ...    0.1 sec
Grid point division into batches done        ...    4.6 sec
Reduced shell lists constructed in    7.9 sec

Total number of grid points                  ...   721019
Total number of batches                      ...    11313
Average number of points per batch           ...       63
Average number of grid points per atom       ...     7837
Average number of shells per batch           ...   221.01 (28.41%)
Average number of basis functions per batch  ...   542.79 (26.95%)
Average number of large shells per batch     ...   136.18 (61.62%)
Average number of large basis fcns per batch ...   343.21 (63.23%)
Maximum spatial batch extension              ...  10.60, 15.41, 20.86 au
Average spatial batch extension              ...   0.19,  0.19,  0.22 au

Final grid set up in   13.1 sec
Final integration                            ... done (   8.4 sec)
Change in XC energy                          ...    -0.000093382
Integrated number of electrons               ...   410.000061923
Previous integrated no of electrons          ...   409.999052716
Old exchange energy                            =    -72.819698914 Eh
New exchange energy                            =    -72.820236234 Eh
Exchange energy change after final integration =     -0.000537320 Eh
Total energy after final integration           =  -3090.915242788 Eh
Final COS-X integration done in                =   188.645 sec

----------------
TOTAL SCF ENERGY
----------------

Total Energy       :        -3090.91524279 Eh          -84108.07973 eV

Components:
Nuclear Repulsion  :         7275.21218585 Eh          197968.58811 eV
Electronic Energy  :       -10366.12742864 Eh         -282076.66783 eV
One Electron Energy:       -18693.92542709 Eh         -508687.57205 eV
Two Electron Energy:         8327.79799846 Eh          226610.90421 eV

Virial components:
Potential Energy   :        -6169.08985487 Eh         -167869.46927 eV
Kinetic Energy     :         3078.17461208 Eh           83761.38954 eV
Virial Ratio       :            2.00413902


DFT components:
N(Alpha)           :      205.000030961373 electrons
N(Beta)            :      205.000030961373 electrons
N(Total)           :      410.000061922746 electrons
E(X)               :     -289.422733759125 Eh       
E(C)               :      -16.693270788941 Eh       
E(XC)              :     -306.116004548066 Eh       
DFET-embed. en.    :        0.000000000000 Eh       

---------------
SCF CONVERGENCE
---------------

  Last Energy change         ...    7.7380e-09  Tolerance :   1.0000e-08
  Last MAX-Density change    ...    4.6629e-15  Tolerance :   1.0000e-07
  Last RMS-Density change    ...    1.1591e-17  Tolerance :   5.0000e-09
  Last Orbital Gradient      ...    1.0708e-06  Tolerance :   1.0000e-05
  Last Orbital Rotation      ...    9.4461e-06  Tolerance :   1.0000e-05

             **** THE GBW FILE WAS UPDATED (IDIC.gbw) ****
             **** DENSITY FILE WAS UPDATED (IDIC.scfp) ****
             **** ENERGY FILE WAS UPDATED (IDIC.en.tmp) ****
             **** THE GBW FILE WAS UPDATED (IDIC.gbw) ****
             **** DENSITY FILE WAS UPDATED (IDIC.scfp) ****
----------------
ORBITAL ENERGIES
----------------

  NO   OCC          E(Eh)            E(eV) 
   0   2.0000     -88.911876     -2419.4152 
   1   2.0000     -88.911851     -2419.4145 
   2   2.0000     -19.132115      -520.6113 
   3   2.0000     -19.131910      -520.6057 
   4   2.0000     -14.332150      -389.9976 
   5   2.0000     -14.331982      -389.9931 
   6   2.0000     -14.328331      -389.8937 
   7   2.0000     -14.328122      -389.8880 
   8   2.0000     -10.278409      -279.6897 
   9   2.0000     -10.278174      -279.6833 
  10   2.0000     -10.259370      -279.1716 
  11   2.0000     -10.259159      -279.1659 
  12   2.0000     -10.256274      -279.0874 
  13   2.0000     -10.256233      -279.0863 
  14   2.0000     -10.239879      -278.6413 
  15   2.0000     -10.238697      -278.6091 
  16   2.0000     -10.236829      -278.5583 
  17   2.0000     -10.235908      -278.5332 
  18   2.0000     -10.232456      -278.4393 
  19   2.0000     -10.232213      -278.4327 
  20   2.0000     -10.232015      -278.4273 
  21   2.0000     -10.231677      -278.4181 
  22   2.0000     -10.228607      -278.3346 
  23   2.0000     -10.228435      -278.3299 
  24   2.0000     -10.222023      -278.1554 
  25   2.0000     -10.221912      -278.1524 
  26   2.0000     -10.220838      -278.1232 
  27   2.0000     -10.220814      -278.1225 
  28   2.0000     -10.220487      -278.1136 
  29   2.0000     -10.220225      -278.1065 
  30   2.0000     -10.217008      -278.0189 
  31   2.0000     -10.216760      -278.0122 
  32   2.0000     -10.213452      -277.9221 
  33   2.0000     -10.213413      -277.9211 
  34   2.0000     -10.209311      -277.8095 
  35   2.0000     -10.208883      -277.7978 
  36   2.0000     -10.208770      -277.7947 
  37   2.0000     -10.208645      -277.7913 
  38   2.0000     -10.207943      -277.7722 
  39   2.0000     -10.207850      -277.7697 
  40   2.0000     -10.207520      -277.7607 
  41   2.0000     -10.207355      -277.7562 
  42   2.0000     -10.207201      -277.7521 
  43   2.0000     -10.207069      -277.7485 
  44   2.0000     -10.206914      -277.7442 
  45   2.0000     -10.206399      -277.7302 
  46   2.0000     -10.206143      -277.7233 
  47   2.0000     -10.205948      -277.7180 
  48   2.0000     -10.205854      -277.7154 
  49   2.0000     -10.205003      -277.6923 
  50   2.0000     -10.192470      -277.3512 
  51   2.0000     -10.192135      -277.3421 
  52   2.0000     -10.191011      -277.3115 
  53   2.0000     -10.190869      -277.3076 
  54   2.0000     -10.177961      -276.9564 
  55   2.0000     -10.177409      -276.9414 
  56   2.0000     -10.173641      -276.8389 
  57   2.0000     -10.172259      -276.8012 
  58   2.0000      -7.987806      -217.3593 
  59   2.0000      -7.987731      -217.3572 
  60   2.0000      -5.950098      -161.9104 
  61   2.0000      -5.950045      -161.9090 
  62   2.0000      -5.946506      -161.8127 
  63   2.0000      -5.946466      -161.8116 
  64   2.0000      -5.944718      -161.7640 
  65   2.0000      -5.944597      -161.7607 
  66   2.0000      -1.058355       -28.7993 
  67   2.0000      -1.057997       -28.7895 
  68   2.0000      -0.936975       -25.4964 
  69   2.0000      -0.934861       -25.4389 
  70   2.0000      -0.934492       -25.4288 
  71   2.0000      -0.926791       -25.2193 
  72   2.0000      -0.917232       -24.9591 
  73   2.0000      -0.917188       -24.9579 
  74   2.0000      -0.910471       -24.7752 
  75   2.0000      -0.910205       -24.7679 
  76   2.0000      -0.889656       -24.2088 
  77   2.0000      -0.870968       -23.7002 
  78   2.0000      -0.862986       -23.4830 
  79   2.0000      -0.859897       -23.3990 
  80   2.0000      -0.836394       -22.7594 
  81   2.0000      -0.824715       -22.4416 
  82   2.0000      -0.820306       -22.3217 
  83   2.0000      -0.814149       -22.1541 
  84   2.0000      -0.805287       -21.9130 
  85   2.0000      -0.791201       -21.5297 
  86   2.0000      -0.779008       -21.1979 
  87   2.0000      -0.778841       -21.1933 
  88   2.0000      -0.774739       -21.0817 
  89   2.0000      -0.769643       -20.9431 
  90   2.0000      -0.767588       -20.8871 
  91   2.0000      -0.765100       -20.8194 
  92   2.0000      -0.762606       -20.7516 
  93   2.0000      -0.758617       -20.6430 
  94   2.0000      -0.731877       -19.9154 
  95   2.0000      -0.719861       -19.5884 
  96   2.0000      -0.700514       -19.0620 
  97   2.0000      -0.693616       -18.8742 
  98   2.0000      -0.687872       -18.7180 
  99   2.0000      -0.686654       -18.6848 
 100   2.0000      -0.677526       -18.4364 
 101   2.0000      -0.653713       -17.7884 
 102   2.0000      -0.642039       -17.4708 
 103   2.0000      -0.634104       -17.2548 
 104   2.0000      -0.631418       -17.1817 
 105   2.0000      -0.629740       -17.1361 
 106   2.0000      -0.618391       -16.8273 
 107   2.0000      -0.617876       -16.8133 
 108   2.0000      -0.613297       -16.6887 
 109   2.0000      -0.606351       -16.4996 
 110   2.0000      -0.602298       -16.3894 
 111   2.0000      -0.592535       -16.1237 
 112   2.0000      -0.579620       -15.7723 
 113   2.0000      -0.577937       -15.7265 
 114   2.0000      -0.574488       -15.6326 
 115   2.0000      -0.564075       -15.3493 
 116   2.0000      -0.553350       -15.0574 
 117   2.0000      -0.541523       -14.7356 
 118   2.0000      -0.538042       -14.6409 
 119   2.0000      -0.537758       -14.6331 
 120   2.0000      -0.536964       -14.6115 
 121   2.0000      -0.525629       -14.3031 
 122   2.0000      -0.506416       -13.7803 
 123   2.0000      -0.504166       -13.7191 
 124   2.0000      -0.503292       -13.6953 
 125   2.0000      -0.495384       -13.4801 
 126   2.0000      -0.489542       -13.3211 
 127   2.0000      -0.482426       -13.1275 
 128   2.0000      -0.479469       -13.0470 
 129   2.0000      -0.478526       -13.0213 
 130   2.0000      -0.475088       -12.9278 
 131   2.0000      -0.471134       -12.8202 
 132   2.0000      -0.469789       -12.7836 
 133   2.0000      -0.465361       -12.6631 
 134   2.0000      -0.462712       -12.5910 
 135   2.0000      -0.460895       -12.5416 
 136   2.0000      -0.459438       -12.5019 
 137   2.0000      -0.457052       -12.4370 
 138   2.0000      -0.456908       -12.4331 
 139   2.0000      -0.455963       -12.4074 
 140   2.0000      -0.455068       -12.3830 
 141   2.0000      -0.449303       -12.2262 
 142   2.0000      -0.446626       -12.1533 
 143   2.0000      -0.443903       -12.0792 
 144   2.0000      -0.435607       -11.8535 
 145   2.0000      -0.431329       -11.7371 
 146   2.0000      -0.429595       -11.6899 
 147   2.0000      -0.427657       -11.6371 
 148   2.0000      -0.423333       -11.5195 
 149   2.0000      -0.421652       -11.4737 
 150   2.0000      -0.419521       -11.4157 
 151   2.0000      -0.419117       -11.4048 
 152   2.0000      -0.418521       -11.3885 
 153   2.0000      -0.413738       -11.2584 
 154   2.0000      -0.409958       -11.1555 
 155   2.0000      -0.403961       -10.9923 
 156   2.0000      -0.400313       -10.8931 
 157   2.0000      -0.396900       -10.8002 
 158   2.0000      -0.391105       -10.6425 
 159   2.0000      -0.390797       -10.6341 
 160   2.0000      -0.389840       -10.6081 
 161   2.0000      -0.389227       -10.5914 
 162   2.0000      -0.388174       -10.5628 
 163   2.0000      -0.386211       -10.5093 
 164   2.0000      -0.385926       -10.5016 
 165   2.0000      -0.385494       -10.4898 
 166   2.0000      -0.384043       -10.4503 
 167   2.0000      -0.383392       -10.4326 
 168   2.0000      -0.381466       -10.3802 
 169   2.0000      -0.379729       -10.3329 
 170   2.0000      -0.378034       -10.2868 
 171   2.0000      -0.377602       -10.2751 
 172   2.0000      -0.376747       -10.2518 
 173   2.0000      -0.373987       -10.1767 
 174   2.0000      -0.372194       -10.1279 
 175   2.0000      -0.365404        -9.9431 
 176   2.0000      -0.361423        -9.8348 
 177   2.0000      -0.358554        -9.7568 
 178   2.0000      -0.357921        -9.7395 
 179   2.0000      -0.356953        -9.7132 
 180   2.0000      -0.352423        -9.5899 
 181   2.0000      -0.352194        -9.5837 
 182   2.0000      -0.350160        -9.5283 
 183   2.0000      -0.348870        -9.4932 
 184   2.0000      -0.346030        -9.4160 
 185   2.0000      -0.343487        -9.3468 
 186   2.0000      -0.341234        -9.2854 
 187   2.0000      -0.341017        -9.2795 
 188   2.0000      -0.338412        -9.2087 
 189   2.0000      -0.337280        -9.1779 
 190   2.0000      -0.331824        -9.0294 
 191   2.0000      -0.330462        -8.9923 
 192   2.0000      -0.313201        -8.5226 
 193   2.0000      -0.290314        -7.8998 
 194   2.0000      -0.286286        -7.7902 
 195   2.0000      -0.285618        -7.7721 
 196   2.0000      -0.281372        -7.6565 
 197   2.0000      -0.278947        -7.5905 
 198   2.0000      -0.275889        -7.5073 
 199   2.0000      -0.275117        -7.4863 
 200   2.0000      -0.275023        -7.4838 
 201   2.0000      -0.267680        -7.2840 
 202   2.0000      -0.263127        -7.1600 
 203   2.0000      -0.243363        -6.6222 
 204   2.0000      -0.216272        -5.8851 
 205   0.0000      -0.135179        -3.6784 
 206   0.0000      -0.119744        -3.2584 
 207   0.0000      -0.106693        -2.9033 
 208   0.0000      -0.102395        -2.7863 
 209   0.0000      -0.067598        -1.8394 
 210   0.0000      -0.048218        -1.3121 
 211   0.0000      -0.044946        -1.2230 
 212   0.0000      -0.030759        -0.8370 
 213   0.0000      -0.021233        -0.5778 
 214   0.0000      -0.020715        -0.5637 
 215   0.0000      -0.017553        -0.4777 
 216   0.0000      -0.013371        -0.3638 
 217   0.0000      -0.012689        -0.3453 
 218   0.0000      -0.004635        -0.1261 
 219   0.0000      -0.003265        -0.0888 
 220   0.0000       0.008884         0.2417 
 221   0.0000       0.016257         0.4424 
 222   0.0000       0.019584         0.5329 
 223   0.0000       0.024423         0.6646 
 224   0.0000       0.027415         0.7460 
 225   0.0000       0.029314         0.7977 
 226   0.0000       0.032388         0.8813 
 227   0.0000       0.037064         1.0086 
 228   0.0000       0.038876         1.0579 
 229   0.0000       0.040626         1.1055 
 230   0.0000       0.041019         1.1162 
 231   0.0000       0.042451         1.1552 
 232   0.0000       0.044390         1.2079 
 233   0.0000       0.046575         1.2674 
 234   0.0000       0.049152         1.3375 
 235   0.0000       0.050074         1.3626 
 236   0.0000       0.052885         1.4391 
 237   0.0000       0.056631         1.5410 
 238   0.0000       0.059063         1.6072 
 239   0.0000       0.065318         1.7774 
 240   0.0000       0.071426         1.9436 
 241   0.0000       0.072907         1.9839 
 242   0.0000       0.074803         2.0355 
 243   0.0000       0.078159         2.1268 
 244   0.0000       0.079038         2.1507 
 245   0.0000       0.081656         2.2220 
 246   0.0000       0.082393         2.2420 
 247   0.0000       0.083807         2.2805 
 248   0.0000       0.085019         2.3135 
 249   0.0000       0.087784         2.3887 
 250   0.0000       0.087949         2.3932 
 251   0.0000       0.091283         2.4839 
 252   0.0000       0.094260         2.5649 
 253   0.0000       0.095990         2.6120 
 254   0.0000       0.096656         2.6302 
 255   0.0000       0.098422         2.6782 
 256   0.0000       0.098973         2.6932 
 257   0.0000       0.103818         2.8250 
 258   0.0000       0.105595         2.8734 
 259   0.0000       0.108634         2.9561 
 260   0.0000       0.111690         3.0392 
 261   0.0000       0.116451         3.1688 
 262   0.0000       0.118319         3.2196 
 263   0.0000       0.121233         3.2989 
 264   0.0000       0.123433         3.3588 
 265   0.0000       0.125455         3.4138 
 266   0.0000       0.130599         3.5538 
 267   0.0000       0.131457         3.5771 
 268   0.0000       0.132189         3.5970 
 269   0.0000       0.132972         3.6184 
 270   0.0000       0.134248         3.6531 
 271   0.0000       0.135900         3.6980 
 272   0.0000       0.138000         3.7552 
 273   0.0000       0.140455         3.8220 
 274   0.0000       0.141897         3.8612 
 275   0.0000       0.142369         3.8741 
 276   0.0000       0.143097         3.8939 
 277   0.0000       0.145634         3.9629 
 278   0.0000       0.146234         3.9792 
 279   0.0000       0.147643         4.0176 
 280   0.0000       0.149112         4.0575 
 281   0.0000       0.151237         4.1154 
 282   0.0000       0.156175         4.2497 
 283   0.0000       0.157628         4.2893 
 284   0.0000       0.159317         4.3352 
 285   0.0000       0.163289         4.4433 
 286   0.0000       0.163610         4.4520 
 287   0.0000       0.166430         4.5288 
 288   0.0000       0.168824         4.5939 
 289   0.0000       0.173464         4.7202 
 290   0.0000       0.175945         4.7877 
 291   0.0000       0.177636         4.8337 
 292   0.0000       0.178335         4.8527 
 293   0.0000       0.179115         4.8740 
 294   0.0000       0.181172         4.9299 
 295   0.0000       0.183396         4.9905 
 296   0.0000       0.186353         5.0709 
 297   0.0000       0.186571         5.0769 
 298   0.0000       0.188033         5.1166 
 299   0.0000       0.188641         5.1332 
 300   0.0000       0.189364         5.1528 
 301   0.0000       0.191336         5.2065 
 302   0.0000       0.193248         5.2586 
 303   0.0000       0.194247         5.2857 
 304   0.0000       0.195244         5.3129 
 305   0.0000       0.196758         5.3541 
 306   0.0000       0.197168         5.3652 
 307   0.0000       0.200541         5.4570 
 308   0.0000       0.202985         5.5235 
 309   0.0000       0.204673         5.5694 
 310   0.0000       0.205495         5.5918 
 311   0.0000       0.206256         5.6125 
 312   0.0000       0.209212         5.6929 
 313   0.0000       0.209891         5.7114 
 314   0.0000       0.213101         5.7988 
 315   0.0000       0.215529         5.8648 
 316   0.0000       0.217223         5.9109 
 317   0.0000       0.218695         5.9510 
 318   0.0000       0.220645         6.0040 
 319   0.0000       0.222587         6.0569 
 320   0.0000       0.225130         6.1261 
 321   0.0000       0.225964         6.1488 
 322   0.0000       0.228391         6.2148 
 323   0.0000       0.229598         6.2477 
 324   0.0000       0.232111         6.3161 
 325   0.0000       0.232725         6.3328 
 326   0.0000       0.233916         6.3652 
 327   0.0000       0.234950         6.3933 
 328   0.0000       0.237363         6.4590 
 329   0.0000       0.238802         6.4981 
 330   0.0000       0.241181         6.5629 
 331   0.0000       0.243001         6.6124 
 332   0.0000       0.243593         6.6285 
 333   0.0000       0.246000         6.6940 
 334   0.0000       0.246801         6.7158 
 335   0.0000       0.248227         6.7546 
 336   0.0000       0.250060         6.8045 
 337   0.0000       0.253446         6.8966 
 338   0.0000       0.256042         6.9672 
 339   0.0000       0.256973         6.9926 
 340   0.0000       0.259739         7.0679 
 341   0.0000       0.261551         7.1172 
 342   0.0000       0.264014         7.1842 
 343   0.0000       0.265036         7.2120 
 344   0.0000       0.266475         7.2512 
 345   0.0000       0.268461         7.3052 
 346   0.0000       0.269603         7.3363 
 347   0.0000       0.272172         7.4062 
 348   0.0000       0.274702         7.4750 
 349   0.0000       0.277785         7.5589 
 350   0.0000       0.281143         7.6503 
[...]
   198a -> 208a  :     0.094195 (c=  0.30691285)
   199a -> 208a  :     0.029991 (c= -0.17317780)
   200a -> 207a  :     0.019612 (c=  0.14004109)
   203a -> 209a  :     0.238500 (c=  0.48836444)

STATE 43:  E=   0.163053 au      4.437 eV    35785.9 cm**-1
   198a -> 208a  :     0.026410 (c=  0.16251172)
   199a -> 207a  :     0.342108 (c=  0.58490016)
   199a -> 208a  :     0.134577 (c=  0.36684683)
   200a -> 206a  :     0.012859 (c=  0.11339901)
   200a -> 207a  :     0.124125 (c= -0.35231426)
   200a -> 208a  :     0.295207 (c= -0.54332986)

STATE 44:  E=   0.163080 au      4.438 eV    35791.8 cm**-1
   198a -> 208a  :     0.013746 (c=  0.11724399)
   199a -> 206a  :     0.012625 (c= -0.11236047)
   199a -> 207a  :     0.131536 (c= -0.36267932)
   199a -> 208a  :     0.294165 (c=  0.54236995)
   200a -> 207a  :     0.338841 (c= -0.58210044)
   200a -> 208a  :     0.172819 (c=  0.41571467)

STATE 45:  E=   0.165695 au      4.509 eV    36365.9 cm**-1
   194a -> 206a  :     0.010835 (c= -0.10408980)
   194a -> 208a  :     0.063196 (c= -0.25138776)
   195a -> 207a  :     0.128257 (c=  0.35813001)
   196a -> 207a  :     0.291152 (c= -0.53958526)
   197a -> 206a  :     0.017830 (c= -0.13353014)
   197a -> 208a  :     0.345326 (c=  0.58764445)
   198a -> 207a  :     0.042149 (c=  0.20530156)
   202a -> 209a  :     0.022994 (c= -0.15163788)

STATE 46:  E=   0.166216 au      4.523 eV    36480.2 cm**-1
   192a -> 205a  :     0.074731 (c=  0.27336994)
   194a -> 207a  :     0.368276 (c=  0.60685735)
   195a -> 206a  :     0.030357 (c= -0.17423246)
   195a -> 208a  :     0.141211 (c= -0.37578006)
   196a -> 208a  :     0.057694 (c=  0.24019588)
   201a -> 209a  :     0.024547 (c=  0.15667583)
   202a -> 208a  :     0.020802 (c=  0.14422817)
   203a -> 209a  :     0.155815 (c= -0.39473383)
   204a -> 215a  :     0.018101 (c=  0.13454144)

STATE 47:  E=   0.166721 au      4.537 eV    36591.0 cm**-1
   192a -> 206a  :     0.020448 (c= -0.14299811)
   193a -> 205a  :     0.014591 (c= -0.12079195)
   193a -> 207a  :     0.040870 (c= -0.20216447)
   194a -> 206a  :     0.010234 (c= -0.10116149)
   194a -> 208a  :     0.031755 (c= -0.17819812)
   195a -> 207a  :     0.339229 (c=  0.58243398)
   195a -> 208a  :     0.014712 (c=  0.12129478)
   196a -> 207a  :     0.083219 (c=  0.28847645)
   196a -> 208a  :     0.133229 (c=  0.36500569)
   197a -> 207a  :     0.049605 (c= -0.22272171)
   197a -> 208a  :     0.114970 (c= -0.33907275)
   201a -> 210a  :     0.010591 (c= -0.10291448)
   202a -> 209a  :     0.026011 (c= -0.16127854)
   204a -> 211a  :     0.016045 (c= -0.12667024)
   204a -> 212a  :     0.014690 (c=  0.12120334)

STATE 48:  E=   0.167007 au      4.544 eV    36653.8 cm**-1
   192a -> 205a  :     0.012605 (c= -0.11227312)
   194a -> 207a  :     0.023907 (c=  0.15461804)
   195a -> 207a  :     0.090310 (c=  0.30051651)
   195a -> 208a  :     0.049803 (c= -0.22316570)
   196a -> 206a  :     0.012279 (c=  0.11080972)
   196a -> 207a  :     0.040096 (c=  0.20023982)
   196a -> 208a  :     0.511752 (c= -0.71536826)
   197a -> 207a  :     0.132292 (c=  0.36372020)
   197a -> 208a  :     0.031841 (c= -0.17843974)

STATE 49:  E=   0.168563 au      4.587 eV    36995.3 cm**-1
   192a -> 208a  :     0.018979 (c=  0.13776589)
   193a -> 207a  :     0.499368 (c= -0.70666002)
   194a -> 206a  :     0.014567 (c=  0.12069251)
   194a -> 208a  :     0.066624 (c=  0.25811698)
   197a -> 208a  :     0.038043 (c=  0.19504738)
   201a -> 208a  :     0.057403 (c=  0.23958992)
   201a -> 210a  :     0.011654 (c=  0.10795258)
   202a -> 209a  :     0.015032 (c=  0.12260405)
   204a -> 212a  :     0.191957 (c=  0.43812884)

STATE 50:  E=   0.171265 au      4.660 eV    37588.4 cm**-1
   192a -> 205a  :     0.171456 (c= -0.41407207)
   192a -> 207a  :     0.015489 (c=  0.12445670)
   193a -> 208a  :     0.332661 (c= -0.57676734)
   194a -> 207a  :     0.139232 (c=  0.37313845)
   195a -> 206a  :     0.016610 (c= -0.12887923)
   195a -> 208a  :     0.157594 (c=  0.39698134)
   201a -> 207a  :     0.021394 (c=  0.14626633)
   201a -> 209a  :     0.016248 (c=  0.12746656)
   203a -> 209a  :     0.038458 (c=  0.19610772)
   204a -> 210a  :     0.023064 (c= -0.15186730)


-----------------------------
TD-DFT/TDA-EXCITATION SPECTRA
-----------------------------

Center of mass = (  3.2405,  0.7035,  0.1353)
Calculating the Dipole integrals                  ... done
Transforming integrals                            ... done
Calculating the Linear Momentum integrals         ... done
Transforming integrals                            ... done
Calculating angular momentum integrals            ... done
Transforming integrals                            ... done

-----------------------------------------------------------------------------
         ABSORPTION SPECTRUM VIA TRANSITION ELECTRIC DIPOLE MOMENTS
-----------------------------------------------------------------------------
State   Energy    Wavelength  fosc         T2        TX        TY        TZ  
        (cm-1)      (nm)                 (au**2)    (au)      (au)      (au) 
-----------------------------------------------------------------------------
   1   16949.6    590.0   3.072321518  59.67379   7.35386   2.36383  -0.08288
   2   19423.7    514.8   0.006494509   0.11008  -0.08047  -0.00401  -0.32184
   3   21366.2    468.0   0.271079747   4.17682  -2.04340   0.00564   0.03596
   4   21844.8    457.8   0.004984493   0.07512   0.04564  -0.01001   0.27007
   5   24684.4    405.1   0.045998690   0.61348   0.15952  -0.06043   0.76445
   6   24983.5    400.3   0.175496574   2.31255  -1.44706  -0.45561   0.10477
   7   25140.7    397.8   0.028980422   0.37949  -0.52235  -0.32613  -0.01685
   8   25291.5    395.4   0.018485456   0.24062   0.05370   0.06864   0.48273
   9   26413.2    378.6   0.005972367   0.07444  -0.04105   0.04825  -0.26538
  10   26419.6    378.5   0.069421987   0.86506   0.24124  -0.89825   0.00438
  11   27344.2    365.7   0.000547906   0.00660   0.06264  -0.04877  -0.01717
  12   27362.6    365.5   0.000373607   0.00450   0.06595  -0.01209  -0.00018
  13   27675.2    361.3   0.021476639   0.25548   0.31968  -0.38922  -0.04226
  14   28180.3    354.9   0.008214267   0.09596  -0.06306   0.04599  -0.29978
  15   28280.3    353.6   0.056004490   0.65195  -0.76422   0.25531   0.05227
  16   28766.6    347.6   0.001663504   0.01904   0.00192   0.04322  -0.13102
  17   28946.8    345.5   0.054551423   0.62041   0.72566   0.30627  -0.00514
  18   29617.4    337.6   0.000462129   0.00514   0.06849   0.02068  -0.00430
  19   29691.9    336.8   0.000710823   0.00788  -0.00098   0.01153  -0.08802
  20   30126.5    331.9   0.142490510   1.55709   1.22003  -0.26071  -0.02559
  21   30239.9    330.7   0.000155070   0.00169   0.01387  -0.03427   0.01793
  22   30776.0    324.9   0.063972172   0.68431   0.82322  -0.07841  -0.02192
  23   31084.0    321.7   0.001298589   0.01375  -0.02612   0.02684  -0.11113
  24   31265.3    319.8   0.000649256   0.00684  -0.07737   0.02763   0.00934
  25   31310.6    319.4   0.000708515   0.00745  -0.01852   0.08430  -0.00048
  26   31817.7    314.3   0.015990518   0.16545  -0.37918  -0.14595   0.01931
  27   32265.7    309.9   0.000195907   0.00200  -0.01642  -0.02110  -0.03583
  28   32813.9    304.7   0.236374520   2.37148  -0.65450   1.39389   0.01279
  29   33015.7    302.9   0.010817607   0.10787   0.02741   0.04015   0.32481
  30   33309.1    300.2   0.292890074   2.89479   0.99454  -1.37776  -0.08637
  31   33386.1    299.5   0.008745788   0.08624  -0.16965   0.17307  -0.16585
  32   33902.4    295.0   0.010482707   0.10179  -0.06939   0.31134   0.00692
  33   33915.3    294.9   0.029393631   0.28532   0.35369  -0.39890   0.03326
  34   33942.9    294.6   0.215807402   2.09311   0.94172  -1.09457  -0.09049
  35   34168.4    292.7   0.005327538   0.05133  -0.02770   0.18920   0.12152
  36   34258.0    291.9   0.269223843   2.58718  -0.36632   1.56528   0.05368
  37   34291.4    291.6   0.022255097   0.21366  -0.11606   0.06898  -0.44208
  38   34582.4    289.2   0.047670137   0.45380   0.54995   0.38803  -0.02796
  39   34842.4    287.0   0.002071917   0.01958  -0.00086  -0.01410   0.13920
  40   35323.2    283.1   0.037920112   0.35341   0.57109  -0.16014  -0.04026
  41   35484.5    281.8   0.001445589   0.01341  -0.08691   0.02914  -0.07077
  42   35694.2    280.2   0.000051619   0.00048   0.00605  -0.00900  -0.01893
  43   35785.9    279.4   0.001121848   0.01032   0.09885  -0.02097  -0.01047
  44   35791.8    279.4   0.000144254   0.00133   0.03404  -0.01230   0.00411
  45   36365.9    275.0   0.080605222   0.72970  -0.84659  -0.11304   0.01433
  46   36480.2    274.1   0.003809563   0.03438  -0.04200  -0.02202   0.17925
  47   36591.0    273.3   0.043674345   0.39294  -0.62391   0.06013  -0.00800
  48   36653.8    272.8   0.010484859   0.09417  -0.29929   0.01272   0.06659
  49   36995.3    270.3   0.079966060   0.71160   0.57609   0.61617  -0.00691
  50   37588.4    266.0   0.000381597   0.00334   0.02585   0.00883   0.05095

-----------------------------------------------------------------------------
         ABSORPTION SPECTRUM VIA TRANSITION VELOCITY DIPOLE MOMENTS
-----------------------------------------------------------------------------
State   Energy    Wavelength   fosc        P2         PX        PY        PZ  
        (cm-1)      (nm)                 (au**2)     (au)      (au)      (au) 
-----------------------------------------------------------------------------
   1   16949.6    590.0   0.811270130   0.09398  -0.30431  -0.03668   0.00564
   2   19423.7    514.8   0.000641676   0.00009   0.00135   0.00159  -0.00899
   3   21366.2    468.0   0.112237246   0.01639   0.10784   0.06898  -0.00129
   4   21844.8    457.8   0.000326176   0.00005  -0.00093  -0.00159   0.00673
   5   24684.4    405.1   0.000072751   0.00001  -0.00226  -0.00246   0.00107
   6   24983.5    400.3   0.074132533   0.01266   0.10820   0.03080   0.00144
   7   25140.7    397.8   0.016295969   0.00280   0.04895   0.01994  -0.00253
   8   25291.5    395.4   0.002348034   0.00041  -0.00593  -0.00307  -0.01901
   9   26413.2    378.6   0.000054544   0.00001  -0.00041  -0.00122   0.00286
  10   26419.6    378.5   0.031937066   0.00577   0.04465   0.06125   0.00468
  11   27344.2    365.7   0.000114448   0.00002  -0.00350   0.00277  -0.00119
  12   27362.6    365.5   0.000315750   0.00006  -0.00501  -0.00154   0.00562
  13   27675.2    361.3   0.029574847   0.00559   0.00418  -0.07459  -0.00351
  14   28180.3    354.9   0.001019603   0.00020   0.00318   0.00217   0.01348
  15   28280.3    353.6   0.050697143   0.00980   0.04955   0.08559   0.00412
  16   28766.6    347.6   0.000871952   0.00017  -0.00719   0.01090  -0.00090
  17   28946.8    345.5   0.067576935   0.01337  -0.10821   0.04030   0.00597
  18   29617.4    337.6   0.015816048   0.00320   0.00593  -0.05619  -0.00301
  19   29691.9    336.8   0.000053491   0.00001  -0.00142  -0.00258  -0.00147
  20   30126.5    331.9   0.004976913   0.00102  -0.03099  -0.00723   0.00349
  21   30239.9    330.7   0.000032731   0.00001   0.00136   0.00022  -0.00220
  22   30776.0    324.9   0.027747472   0.00584  -0.07570  -0.01027  -0.00075
  23   31084.0    321.7   0.000178192   0.00004  -0.00059  -0.00030   0.00612
  24   31265.3    319.8   0.000076497   0.00002   0.00261   0.00297  -0.00086
  25   31310.6    319.4   0.000187023   0.00004  -0.00244  -0.00582  -0.00044
  26   31817.7    314.3   0.007878310   0.00171   0.01293   0.03915   0.00359
  27   32265.7    309.9   0.000016006   0.00000   0.00125   0.00134   0.00041
  28   32813.9    304.7   0.021000079   0.00471  -0.03033  -0.06117  -0.00688
  29   33015.7    302.9   0.000143774   0.00003   0.00091   0.00258   0.00499
  30   33309.1    300.2   0.036620738   0.00834  -0.06134  -0.06751  -0.00400
  31   33386.1    299.5   0.001174625   0.00027   0.01028   0.01141  -0.00567
  32   33902.4    295.0   0.014284548   0.00331  -0.03149   0.04786   0.00524
  33   33915.3    294.9   0.006846470   0.00159  -0.02831  -0.02702  -0.00744
  34   33942.9    294.6   0.053650935   0.01245  -0.06270  -0.09224  -0.00259
  35   34168.4    292.7   0.000718053   0.00017  -0.00539   0.01170   0.00129
  36   34258.0    291.9   0.011637910   0.00272   0.00557   0.05185   0.00229
  37   34291.4    291.6   0.000509996   0.00012   0.00573   0.00574  -0.00734
  38   34582.4    289.2   0.018617352   0.00440  -0.06629   0.00134  -0.00213
  39   34842.4    287.0   0.000032632   0.00001   0.00158  -0.00195  -0.00120
  40   35323.2    283.1   0.025691302   0.00620  -0.07741  -0.01449   0.00010
  41   35484.5    281.8   0.000508390   0.00012   0.01104   0.00074   0.00090
  42   35694.2    280.2   0.000047978   0.00001   0.00057  -0.00054  -0.00333
  43   35785.9    279.4   0.000268106   0.00007  -0.00680  -0.00409  -0.00162
  44   35791.8    279.4   0.000021017   0.00001  -0.00188  -0.00126  -0.00014
  45   36365.9    275.0   0.017940836   0.00446   0.06669   0.00326   0.00083
  46   36480.2    274.1   0.000023881   0.00001   0.00229  -0.00030   0.00078
  47   36591.0    273.3   0.005556568   0.00139   0.03415  -0.01495   0.00014
  48   36653.8    272.8   0.001493987   0.00037   0.01686  -0.00947  -0.00056
  49   36995.3    270.3   0.028253541   0.00714  -0.08449   0.00190  -0.00133
  50   37588.4    266.0   0.000032243   0.00001  -0.00250  -0.00134  -0.00050

-------------------------------------------------------------------
                             CD SPECTRUM
-------------------------------------------------------------------
State  Energy     Wavelength     R         MX        MY        MZ   
       (cm-1)       (nm)     (1e40*cgs)   (au)      (au)      (au)  
-------------------------------------------------------------------
   1   16949.6    590.0     -7.53777   0.09051  -0.29056  -0.06374
   2   19423.7    514.8    -55.30972   0.00712  -0.00724   0.36283
   3   21366.2    468.0     22.69126  -0.02251   0.21864   0.02520
   4   21844.8    457.8    -53.63760  -0.00897   0.00510  -0.41957
   5   24684.4    405.1     47.73668  -0.00131  -0.06177   0.12785
   6   24983.5    400.3    -26.33733  -0.02595   0.21450   0.04110
   7   25140.7    397.8     38.64124  -0.04044  -0.18509  -0.02801
   8   25291.5    395.4     21.35763   0.00782   0.06106   0.08429
   9   26413.2    378.6    -11.60326  -0.00071  -0.01786   0.08960
  10   26419.6    378.5    -12.71463  -0.02024   0.02463   0.00928
  11   27344.2    365.7     -0.16193   0.15589   0.20343   0.01094
  12   27362.6    365.5      1.26703   0.05412   0.07413  -0.07973
  13   27675.2    361.3      5.51422   0.05458   0.01414   0.00590
  14   28180.3    354.9     49.31688  -0.01179  -0.00577  -0.34734
  15   28280.3    353.6     22.55442  -0.01659   0.13368   0.01977
  16   28766.6    347.6    -27.62755   0.00507  -0.02001   0.44075
  17   28946.8    345.5     -8.21032  -0.00322  -0.04973  -0.02880
  18   29617.4    337.6      0.02068   0.01125  -0.03752  -0.01150
  19   29691.9    336.8     -5.86508   0.00434  -0.00718   0.14035
  20   30126.5    331.9     23.39142   0.02312  -0.08172  -0.00403
  21   30239.9    330.7     -2.22861  -0.00273   0.02405  -0.21555
  22   30776.0    324.9     10.91533   0.02056  -0.07244  -0.02508
  23   31084.0    321.7     17.65927  -0.00832   0.01072  -0.33250
  24   31265.3    319.8      0.08844  -0.01843  -0.03717  -0.02264
  25   31310.6    319.4     -2.41464  -0.02023  -0.06503   0.03029
  26   31817.7    314.3     -3.62650  -0.00036   0.05897   0.04029
  27   32265.7    309.9      2.34768  -0.00311   0.01015  -0.14353
  28   32813.9    304.7    -43.23204  -0.00928  -0.07020   0.00606
  29   33015.7    302.9     46.63839   0.00620  -0.01191   0.30551
  30   33309.1    300.2     26.67262   0.05712   0.00281  -0.04205
  31   33386.1    299.5     19.48406  -0.01502   0.01290  -0.22035
  32   33902.4    295.0     -1.80125  -0.03558  -0.01903  -0.05263
  33   33915.3    294.9      8.37334   0.01634  -0.02078   0.11106
  34   33942.9    294.6     56.09324   0.04516  -0.06423  -0.06796
  35   34168.4    292.7     14.26310  -0.00748  -0.02340   0.28367
  36   34258.0    291.9    -39.09624  -0.05878  -0.06634  -0.01151
  37   34291.4    291.6      9.59587  -0.00927  -0.00865  -0.04496
  38   34582.4    289.2     -6.54913   0.00700  -0.04512   0.00835
  39   34842.4    287.0      0.67336   0.00123   0.00339   0.01061
  40   35323.2    283.1      3.53479  -0.00393  -0.05407  -0.02688
  41   35484.5    281.8      5.20640  -0.00673   0.01072  -0.14337
  42   35694.2    280.2      0.60898  -0.00311  -0.00029  -0.06908
  43   35785.9    279.4     -0.26477  -0.00909  -0.01794   0.00374
  44   35791.8    279.4     -0.19741  -0.01561  -0.01468  -0.01657
  45   36365.9    275.0     -2.26144  -0.00135   0.05668   0.03284
  46   36480.2    274.1    -25.11137  -0.00525   0.02662  -0.29511
  47   36591.0    273.3      0.11852   0.00121   0.01219  -0.03446
  48   36653.8    272.8      1.50617  -0.00004  -0.00033   0.04787
  49   36995.3    270.3    -12.79613   0.01258  -0.05568   0.01175
  50   37588.4    266.0      2.53449   0.00142  -0.01441   0.10729

Total run time:    10409.830 sec

           *** ORCA-CIS/TD-DFT FINISHED WITHOUT ERROR ***

-----------------------
CIS/TD-DFT TOTAL ENERGY
-----------------------

    E(SCF)  =  -3090.915242788 Eh
    DE(CIS) =      0.077227914 Eh (Root  1)
    ----------------------------- ---------
    E(tot)  =  -3090.838014874 Eh


-------------------------   --------------------
FINAL SINGLE POINT ENERGY     -3090.838014873875
-------------------------   --------------------


                            ***************************************
                            *     ORCA property calculations      *
                            ***************************************

                                    ---------------------
                                    Active property flags
                                    ---------------------
   (+) Dipole Moment


------------------------------------------------------------------------------
                       ORCA ELECTRIC PROPERTIES CALCULATION
------------------------------------------------------------------------------

Dipole Moment Calculation                       ... on
Quadrupole Moment Calculation                   ... off
Polarizability Calculation                      ... off
GBWName                                         ... IDIC.gbw
Electron density file                           ... IDIC.scfp
The origin for moment calculation is the CENTER OF MASS  = ( 3.240455,  0.703511  0.135272)

-------------
DIPOLE MOMENT
-------------
                                X             Y             Z
Electronic contribution:     -2.36476       2.15933       9.54998
Nuclear contribution   :      2.25677      -2.16733     -11.09936
                        -----------------------------------------
Total Dipole Moment    :     -0.10799      -0.00800      -1.54938
                        -----------------------------------------
Magnitude (a.u.)       :      1.55316
Magnitude (Debye)      :      3.94783



--------------------
Rotational spectrum 
--------------------
 
Rotational constants in cm-1:     0.003992     0.000404     0.000378 
Rotational constants in MHz :   119.676587    12.121101    11.343179 

 Dipole components along the rotational axes: 
x,y,z [a.u.] :    -0.088328     0.036047    -1.550231 
x,y,z [Debye]:    -0.224512     0.091624    -3.940374 

 

Timings for individual modules:

Sum of individual times         ...    12243.179 sec (= 204.053 min)
GTO integral calculation        ...        5.549 sec (=   0.092 min)   0.0 %
SCF iterations                  ...     1826.898 sec (=  30.448 min)  14.9 %
CIS module                      ...    10410.732 sec (= 173.512 min)  85.0 %
                             ****ORCA TERMINATED NORMALLY****
TOTAL RUN TIME: 0 days 3 hours 24 minutes 4 seconds 935 msec
