
                                 *****************
                                 * O   R   C   A *
                                 *****************

           --- An Ab Initio, DFT and Semiempirical electronic structure package ---

                  #######################################################
                  #                        -***-                        #
                  #          Department of theory and spectroscopy      #
                  #               Directorship: Frank Neese             #
                  #        Max Planck Institute fuer Kohlenforschung    #
                  #                Kaiser Wilhelm Platz 1               #
                  #                 D-45470 Muelheim/Ruhr               #
                  #                      Germany                        #
                  #                                                     #
                  #                  All rights reserved                #
                  #                        -***-                        #
                  #######################################################


                         Program Version 4.2.0 -  RELEASE  -


 With contributions from (in alphabetic order):
   Daniel Aravena         : Magnetic Suceptibility
   Michael Atanasov       : Ab Initio Ligand Field Theory (pilot matlab implementation)
   Alexander A. Auer      : GIAO ZORA, VPT2
   Ute Becker             : Parallelization
   Giovanni Bistoni       : ED, misc. LED, open-shell LED, HFLED
   Martin Brehm           : Molecular dynamics
   Dmytro Bykov           : SCF Hessian
   Vijay G. Chilkuri      : MRCI spin determinant printing, contributions to CSF-ICE
   Dipayan Datta          : RHF DLPNO-CCSD density
   Achintya Kumar Dutta   : EOM-CC, STEOM-CC
   Dmitry Ganyushin       : Spin-Orbit,Spin-Spin,Magnetic field MRCI
   Miquel Garcia          : C-PCM Hessian, Gaussian charge scheme
   Yang Guo               : DLPNO-NEVPT2, CIM, IAO-localization
   Andreas Hansen         : Spin unrestricted coupled pair/coupled cluster methods
   Benjamin Helmich-Paris : CASSCF linear response (MC-RPA)
   Lee Huntington         : MR-EOM, pCC
   Robert Izsak           : Overlap fitted RIJCOSX, COSX-SCS-MP3, EOM
   Christian Kollmar      : KDIIS, OOCD, Brueckner-CCSD(T), CCSD density
   Simone Kossmann        : Meta GGA functionals, TD-DFT gradient, OOMP2, MP2 Hessian
   Martin Krupicka        : AUTO-CI
   Lucas Lang             : DCDCAS
   Dagmar Lenk            : GEPOL surface, SMD
   Dimitrios Liakos       : Extrapolation schemes; Compound Job, initial MDCI parallelization
   Dimitrios Manganas     : Further ROCIS development; embedding schemes
   Dimitrios Pantazis     : SARC Basis sets
   Taras Petrenko         : DFT Hessian,TD-DFT gradient, ASA, ECA, R-Raman, ABS, FL, XAS/XES, NRVS
   Peter Pinski           : DLPNO-MP2, DLPNO-MP2 Gradient
   Christoph Reimann      : Effective Core Potentials
   Marius Retegan         : Local ZFS, SOC
   Christoph Riplinger    : Optimizer, TS searches, QM/MM, DLPNO-CCSD(T), (RO)-DLPNO pert. Triples
   Tobias Risthaus        : Range-separated hybrids, TD-DFT gradient, RPA, STAB
   Michael Roemelt        : Original ROCIS implementation
   Masaaki Saitow         : Open-shell DLPNO-CCSD energy and density
   Barbara Sandhoefer     : DKH picture change effects
   Avijit Sen             : IP-ROCIS
   Kantharuban Sivalingam : CASSCF convergence, NEVPT2, FIC-MRCI
   Bernardo de Souza      : ESD, SOC TD-DFT
   Georgi Stoychev        : AutoAux, RI-MP2 NMR
   Willem Van den Heuvel  : Paramagnetic NMR
   Boris Wezisla          : Elementary symmetry handling
   Frank Wennmohs         : Technical directorship


 We gratefully acknowledge several colleagues who have allowed us to
 interface, adapt or use parts of their codes:
   Stefan Grimme, W. Hujo, H. Kruse,             : VdW corrections, initial TS optimization,
                  C. Bannwarth                     DFT functionals, gCP, sTDA/sTD-DF
   Ed Valeev, F. Pavosevic, A. Kumar             : LibInt (2-el integral package), F12 methods
   Garnet Chan, S. Sharma, J. Yang, R. Olivares  : DMRG
   Ulf Ekstrom                                   : XCFun DFT Library
   Mihaly Kallay                                 : mrcc  (arbitrary order and MRCC methods)
   Andreas Klamt, Michael Diedenhofen            : otool_cosmo (COSMO solvation model)
   Jiri Pittner, Ondrej Demel                    : Mk-CCSD
   Frank Weinhold                                : gennbo (NPA and NBO analysis)
   Christopher J. Cramer and Donald G. Truhlar   : smd solvation model
   Lars Goerigk                                  : TD-DFT with DH, B97 family of functionals
   V. Asgeirsson, H. Jonsson                     : NEB implementation
   FAccTs GmbH                                   : IRC, NEB, NEB-TS, Multilevel, MM, QM/MM, CI optimization
   S Lehtola, MJT Oliveira, MAL Marques          : LibXC Library


 Your calculation uses the libint2 library for the computation of 2-el integrals
 For citations please refer to: http://libint.valeyev.net

 Your ORCA version has been built with support for libXC version: 4.2.3
 For citations please refer to: https://tddft.org/programs/libxc/

 This ORCA versions uses:
   CBLAS   interface :  Fast vector & matrix operations
   LAPACKE interface :  Fast linear algebra routines
   SCALAPACK package :  Parallel linear algebra routines


----- Orbital basis set information -----
Your calculation utilizes the basis: def2-TZVP
   F. Weigend and R. Ahlrichs, Phys. Chem. Chem. Phys. 7, 3297 (2005).

----- AuxJ basis set information -----
Your calculation utilizes the auxiliary basis: def2/J
   F. Weigend, Phys. Chem. Chem. Phys. 8, 1057 (2006).

================================================================================
                                        WARNINGS
                       Please study these warnings very carefully!
================================================================================

INFO   : Checking CIS options ...

WARNING: CIS/ROCIS methods need fully converged wavefunctions
  ===> : Setting SCFConvForced true
         You can overwrite this default with %scf ConvForced false 


INFO   : the flag for use of LIBINT has been found!

================================================================================
                                       INPUT FILE
================================================================================
NAME = IDTCF.inp
|  1> # ORCA input file
|  2> # IDTCF.out: Geometry 15
|  3> ! B3LYP def2-TZVP def2/J RIJCOSX Grid4 TightSCF
|  4> 
|  5> %maxcore 6000
|  6> %tddft
|  7>   maxdim 5
|  8>   nroots 50
|  9>   end
| 10> %pal
| 11>   nprocs 6
| 12>   end
| 13> 
| 14> 
| 15> * xyz 0 1
| 16>    C        2.64853         1.22107        -0.53170
| 17>    C        2.82642        -0.19418        -0.54917
| 18>    C        1.71829        -1.02750        -0.63989
| 19>    C        0.45052        -0.43424        -0.75726
| 20>    C        0.28039         0.98255        -0.78465
| 21>    C        1.38117         1.81519        -0.65105
| 22>    C       -0.87432        -1.01231        -0.79590
| 23>    C       -1.84454        -0.01235        -0.84581
| 24>    C       -1.19968         1.35937        -0.93046
| 25>    C        3.95487         1.80500        -0.34863
| 26>    C        4.93554         0.81362        -0.26833
| 27>    C        4.30919        -0.56883        -0.39407
| 28>    S       -1.55781        -2.58702        -0.67249
| 29>    C       -3.18517        -1.90149        -0.62367
| 30>    C       -3.15078        -0.50842        -0.75089
| 31>    S        4.59883         3.39297        -0.21657
| 32>    C        6.23288         2.74377        -0.07352
| 33>    C        6.22543         1.34280        -0.13306
| 34>    C       -1.69329         2.29512         0.19825
| 35>    C       -1.49177         1.95409        -2.34298
| 36>    C       -0.98208         3.36868        -2.61157
| 37>    C       -1.66476         1.67583         1.59492
| 38>    C        4.88087        -1.26122        -1.66589
| 39>    C        4.50513        -1.41249         0.89614
| 40>    C        4.38461        -2.67419        -1.97098
| 41>    C        5.94648        -1.79864         1.22626
| 42>    C        7.33913         3.62994         0.08775
| 43>    C       -4.30602        -2.75160        -0.36998
| 44>    C        8.64469         3.21144         0.13682
| 45>    C        9.80556         4.01154         0.32280
| 46>    C       11.18144         3.37024         0.28913
| 47>    O       12.08289         4.48612         0.50765
| 48>    C       11.40203         5.62593         0.67182
| 49>    C        9.97838         5.36204         0.56520
| 50>    C       11.50661         2.76748        -1.07714
| 51>    C       11.38074         2.38284         1.43917
| 52>    C        8.92705         6.30621         0.69470
| 53>    C       12.08212         6.80497         0.89829
| 54>    C       11.40928         8.05051         1.07430
| 55>    C       13.50931         6.79218         0.95541
| 56>    N       10.88916         9.07922         1.22122
| 57>    N       14.67021         6.78556         1.00232
| 58>    N        7.99739         6.99784         0.78210
| 59>    C       -5.50444        -2.29311         0.11226
| 60>    C       -6.63956        -3.08113         0.46251
| 61>    C       -7.76638        -2.49693         1.30019
| 62>    O       -8.69278        -3.60746         1.43967
| 63>    C       -8.22832        -4.70016         0.82533
| 64>    C       -6.94985        -4.40207         0.20402
| 65>    C       -6.15511        -5.29539        -0.56166
| 66>    C       -8.95753        -5.87082         0.85163
| 67>    C       -8.49808        -7.06708         0.22447
| 68>    C      -10.20992        -5.90420         1.53698
| 69>    C       -8.51381        -1.36319         0.60130
| 70>    C       -7.29551        -2.10599         2.70371
| 71>    N      -11.22870        -5.93555         2.09420
| 72>    N       -8.14754        -8.05486        -0.27689
| 73>    N       -5.44473        -5.95908        -1.19791
| 74>    H        1.81384        -2.11376        -0.59696
| 75>    H        1.27475         2.90091        -0.61504
| 76>    H       -4.05518         0.09970        -0.76716
| 77>    H        7.13859         0.75385        -0.07237
| 78>    H       -2.72006         2.61708        -0.04970
| 79>    H       -1.08296         3.21183         0.18718
| 80>    H       -2.58612         1.93180        -2.48375
| 81>    H       -1.07449         1.25979        -3.08994
| 82>    H       -1.39904         4.09933        -1.90274
| 83>    H       -1.28251         3.69098        -3.62070
| 84>    H        0.11588         3.43098        -2.56085
| 85>    H       -2.35942         0.82630         1.67717
| 86>    H       -1.95253         2.41718         2.35571
| 87>    H       -0.66021         1.30068         1.84862
| 88>    H        5.97804        -1.28110        -1.56392
| 89>    H        4.67241        -0.60188        -2.52410
| 90>    H        3.89599        -2.32566         0.80388
| 91>    H        4.07100        -0.84424         1.73489
| 92>    H        4.54561        -3.36398        -1.12813
| 93>    H        4.92990        -3.08541        -2.83419
| 94>    H        3.31502        -2.69172        -2.22589
| 95>    H        6.41701        -2.37985         0.41822
| 96>    H        5.97959        -2.41851         2.13547
| 97>    H        6.57155        -0.91386         1.41635
| 98>    H        7.11094         4.69433         0.18027
| 99>    H       -4.15956        -3.82414        -0.51896
|100>    H        8.83994         2.14379         0.01073
|101>    H       11.39643         3.52710        -1.86406
|102>    H       10.82621         1.93329        -1.29768
|103>    H       12.53932         2.38984        -1.08652
|104>    H       11.13798         2.86186         2.39906
|105>    H       12.42675         2.04551         1.46481
|106>    H       10.73376         1.50343         1.30970
|107>    H       -5.58952        -1.22594         0.33260
|108>    H       -8.87878        -1.68946        -0.38277
|109>    H       -7.85471        -0.49356         0.46704
|110>    H       -9.37518        -1.05743         1.21240
|111>    H       -6.80729        -2.95825         3.19761
|112>    H       -8.15678        -1.78731         3.30851
|113>    H       -6.57684        -1.27463         2.65001
|114> *
|115> 
|116>                          ****END OF INPUT****
================================================================================

                       ****************************
                       * Single Point Calculation *
                       ****************************

---------------------------------
CARTESIAN COORDINATES (ANGSTROEM)
---------------------------------
  C      2.648530    1.221070   -0.531700
  C      2.826420   -0.194180   -0.549170
  C      1.718290   -1.027500   -0.639890
  C      0.450520   -0.434240   -0.757260
  C      0.280390    0.982550   -0.784650
  C      1.381170    1.815190   -0.651050
  C     -0.874320   -1.012310   -0.795900
  C     -1.844540   -0.012350   -0.845810
  C     -1.199680    1.359370   -0.930460
  C      3.954870    1.805000   -0.348630
  C      4.935540    0.813620   -0.268330
  C      4.309190   -0.568830   -0.394070
  S     -1.557810   -2.587020   -0.672490
  C     -3.185170   -1.901490   -0.623670
  C     -3.150780   -0.508420   -0.750890
  S      4.598830    3.392970   -0.216570
  C      6.232880    2.743770   -0.073520
  C      6.225430    1.342800   -0.133060
  C     -1.693290    2.295120    0.198250
  C     -1.491770    1.954090   -2.342980
  C     -0.982080    3.368680   -2.611570
  C     -1.664760    1.675830    1.594920
  C      4.880870   -1.261220   -1.665890
  C      4.505130   -1.412490    0.896140
  C      4.384610   -2.674190   -1.970980
  C      5.946480   -1.798640    1.226260
  C      7.339130    3.629940    0.087750
  C     -4.306020   -2.751600   -0.369980
  C      8.644690    3.211440    0.136820
  C      9.805560    4.011540    0.322800
  C     11.181440    3.370240    0.289130
  O     12.082890    4.486120    0.507650
  C     11.402030    5.625930    0.671820
  C      9.978380    5.362040    0.565200
  C     11.506610    2.767480   -1.077140
  C     11.380740    2.382840    1.439170
  C      8.927050    6.306210    0.694700
  C     12.082120    6.804970    0.898290
  C     11.409280    8.050510    1.074300
  C     13.509310    6.792180    0.955410
  N     10.889160    9.079220    1.221220
  N     14.670210    6.785560    1.002320
  N      7.997390    6.997840    0.782100
  C     -5.504440   -2.293110    0.112260
  C     -6.639560   -3.081130    0.462510
  C     -7.766380   -2.496930    1.300190
  O     -8.692780   -3.607460    1.439670
  C     -8.228320   -4.700160    0.825330
  C     -6.949850   -4.402070    0.204020
  C     -6.155110   -5.295390   -0.561660
  C     -8.957530   -5.870820    0.851630
  C     -8.498080   -7.067080    0.224470
  C    -10.209920   -5.904200    1.536980
  C     -8.513810   -1.363190    0.601300
  C     -7.295510   -2.105990    2.703710
  N    -11.228700   -5.935550    2.094200
  N     -8.147540   -8.054860   -0.276890
  N     -5.444730   -5.959080   -1.197910
  H      1.813840   -2.113760   -0.596960
  H      1.274750    2.900910   -0.615040
  H     -4.055180    0.099700   -0.767160
  H      7.138590    0.753850   -0.072370
  H     -2.720060    2.617080   -0.049700
  H     -1.082960    3.211830    0.187180
  H     -2.586120    1.931800   -2.483750
  H     -1.074490    1.259790   -3.089940
  H     -1.399040    4.099330   -1.902740
  H     -1.282510    3.690980   -3.620700
  H      0.115880    3.430980   -2.560850
  H     -2.359420    0.826300    1.677170
  H     -1.952530    2.417180    2.355710
  H     -0.660210    1.300680    1.848620
  H      5.978040   -1.281100   -1.563920
  H      4.672410   -0.601880   -2.524100
  H      3.895990   -2.325660    0.803880
  H      4.071000   -0.844240    1.734890
  H      4.545610   -3.363980   -1.128130
  H      4.929900   -3.085410   -2.834190
  H      3.315020   -2.691720   -2.225890
  H      6.417010   -2.379850    0.418220
  H      5.979590   -2.418510    2.135470
  H      6.571550   -0.913860    1.416350
  H      7.110940    4.694330    0.180270
  H     -4.159560   -3.824140   -0.518960
  H      8.839940    2.143790    0.010730
  H     11.396430    3.527100   -1.864060
  H     10.826210    1.933290   -1.297680
  H     12.539320    2.389840   -1.086520
  H     11.137980    2.861860    2.399060
  H     12.426750    2.045510    1.464810
  H     10.733760    1.503430    1.309700
  H     -5.589520   -1.225940    0.332600
  H     -8.878780   -1.689460   -0.382770
  H     -7.854710   -0.493560    0.467040
  H     -9.375180   -1.057430    1.212400
  H     -6.807290   -2.958250    3.197610
  H     -8.156780   -1.787310    3.308510
  H     -6.576840   -1.274630    2.650010

----------------------------
CARTESIAN COORDINATES (A.U.)
----------------------------
  NO LB      ZA    FRAG     MASS         X           Y           Z
   0 C     6.0000    0    12.011    5.004996    2.307488   -1.004767
   1 C     6.0000    0    12.011    5.341160   -0.366947   -1.037781
   2 C     6.0000    0    12.011    3.247098   -1.941694   -1.209217
   3 C     6.0000    0    12.011    0.851359   -0.820595   -1.431014
   4 C     6.0000    0    12.011    0.529860    1.856750   -1.482774
   5 C     6.0000    0    12.011    2.610033    3.430212   -1.230306
   6 C     6.0000    0    12.011   -1.652225   -1.912989   -1.504033
   7 C     6.0000    0    12.011   -3.485675   -0.023338   -1.598349
   8 C     6.0000    0    12.011   -2.267067    2.568837   -1.758315
   9 C     6.0000    0    12.011    7.473621    3.410956   -0.658815
  10 C     6.0000    0    12.011    9.326819    1.537519   -0.507070
  11 C     6.0000    0    12.011    8.143189   -1.074933   -0.744684
  12 S    16.0000    0    32.060   -2.943834   -4.888759   -1.270822
  13 C     6.0000    0    12.011   -6.019099   -3.593295   -1.178565
  14 C     6.0000    0    12.011   -5.954111   -0.960775   -1.418976
  15 S    16.0000    0    32.060    8.690529    6.411784   -0.409258
  16 C     6.0000    0    12.011   11.778436    5.184974   -0.138933
  17 C     6.0000    0    12.011   11.764358    2.537524   -0.251447
  18 C     6.0000    0    12.011   -3.199854    4.337148    0.374638
  19 C     6.0000    0    12.011   -2.819037    3.692695   -4.427591
  20 C     6.0000    0    12.011   -1.855862    6.365883   -4.935152
  21 C     6.0000    0    12.011   -3.145940    3.166860    3.013962
  22 C     6.0000    0    12.011    9.223508   -2.383360   -3.148076
  23 C     6.0000    0    12.011    8.513462   -2.669219    1.693459
  24 C     6.0000    0    12.011    8.285712   -5.053487   -3.724612
  25 C     6.0000    0    12.011   11.237219   -3.398937    2.317296
  26 C     6.0000    0    12.011   13.868946    6.859592    0.165823
  27 C     6.0000    0    12.011   -8.137199   -5.199770   -0.699161
  28 C     6.0000    0    12.011   16.336097    6.068742    0.258552
  29 C     6.0000    0    12.011   18.529823    7.580712    0.610004
  30 C     6.0000    0    12.011   21.129859    6.368831    0.546377
  31 O     8.0000    0    15.999   22.833353    8.477538    0.959319
  32 C     6.0000    0    12.011   21.546714   10.631467    1.269556
  33 C     6.0000    0    12.011   18.856405   10.132787    1.068073
  34 C     6.0000    0    12.011   21.744342    5.229779   -2.035500
  35 C     6.0000    0    12.011   21.506482    4.502915    2.719637
  36 C     6.0000    0    12.011   16.869680   11.917010    1.312793
  37 C     6.0000    0    12.011   22.831898   12.859530    1.697522
  38 C     6.0000    0    12.011   21.560415   15.213259    2.030133
  39 C     6.0000    0    12.011   25.528896   12.835360    1.805463
  40 N     7.0000    0    14.007   20.577530   17.157239    2.307771
  41 N     7.0000    0    14.007   27.722679   12.822850    1.894110
  42 N     7.0000    0    14.007   15.112877   13.224001    1.477955
  43 C     6.0000    0    12.011  -10.401884   -4.333350    0.212141
  44 C     6.0000    0    12.011  -12.546950   -5.822492    0.874017
  45 C     6.0000    0    12.011  -14.676331   -4.718514    2.457003
  46 O     8.0000    0    15.999  -16.426974   -6.817111    2.720582
  47 C     6.0000    0    12.011  -15.549271   -8.882015    1.559648
  48 C     6.0000    0    12.011  -13.133313   -8.318707    0.385542
  49 C     6.0000    0    12.011  -11.631472  -10.006837   -1.061384
  50 C     6.0000    0    12.011  -16.927279  -11.094242    1.609347
  51 C     6.0000    0    12.011  -16.059044  -13.354846    0.424187
  52 C     6.0000    0    12.011  -19.293953  -11.157321    2.904471
  53 C     6.0000    0    12.011  -16.088769   -2.576056    1.136292
  54 C     6.0000    0    12.011  -13.786516   -3.979744    5.109271
  55 N     7.0000    0    14.007  -21.219168  -11.216564    3.957464
  56 N     7.0000    0    14.007  -15.396619  -15.221479   -0.523246
  57 N     7.0000    0    14.007  -10.289049  -11.261029   -2.263722
  58 H     1.0000    0     1.008    3.427661   -3.994428   -1.128091
  59 H     1.0000    0     1.008    2.408928    5.481925   -1.162257
  60 H     1.0000    0     1.008   -7.663180    0.188406   -1.449722
  61 H     1.0000    0     1.008   13.489980    1.424570   -0.136759
  62 H     1.0000    0     1.008   -5.140168    4.945564   -0.093919
  63 H     1.0000    0     1.008   -2.046498    6.069479    0.353719
  64 H     1.0000    0     1.008   -4.887059    3.650573   -4.693607
  65 H     1.0000    0     1.008   -2.030492    2.380658   -5.839140
  66 H     1.0000    0     1.008   -2.643802    7.746611   -3.595658
  67 H     1.0000    0     1.008   -2.423593    6.974941   -6.842131
  68 H     1.0000    0     1.008    0.218981    6.483613   -4.839305
  69 H     1.0000    0     1.008   -4.458658    1.561481    3.169392
  70 H     1.0000    0     1.008   -3.689747    4.567808    4.451647
  71 H     1.0000    0     1.008   -1.247616    2.457929    3.493386
  72 H     1.0000    0     1.008   11.296858   -2.420928   -2.955380
  73 H     1.0000    0     1.008    8.829575   -1.137388   -4.769858
  74 H     1.0000    0     1.008    7.362354   -4.394860    1.519113
  75 H     1.0000    0     1.008    7.693075   -1.595382    3.278467
  76 H     1.0000    0     1.008    8.589958   -6.357001   -2.131857
  77 H     1.0000    0     1.008    9.316161   -5.830580   -5.355843
  78 H     1.0000    0     1.008    6.264480   -5.086614   -4.206323
  79 H     1.0000    0     1.008   12.126391   -4.497265    0.790321
  80 H     1.0000    0     1.008   11.299787   -4.570322    4.035453
  81 H     1.0000    0     1.008   12.418430   -1.726945    2.676514
  82 H     1.0000    0     1.008   13.437729    8.870998    0.340661
  83 H     1.0000    0     1.008   -7.860429   -7.226577   -0.980692
  84 H     1.0000    0     1.008   16.705066    4.051176    0.020277
  85 H     1.0000    0     1.008   21.536132    6.665253   -3.522563
  86 H     1.0000    0     1.008   20.458572    3.653389   -2.452260
  87 H     1.0000    0     1.008   23.695881    4.516143   -2.053225
  88 H     1.0000    0     1.008   21.047732    5.408132    4.533566
  89 H     1.0000    0     1.008   23.483154    3.865454    2.768090
  90 H     1.0000    0     1.008   20.283867    2.841071    2.474974
  91 H     1.0000    0     1.008  -10.562662   -2.316691    0.628523
  92 H     1.0000    0     1.008  -16.778463   -3.192617   -0.723330
  93 H     1.0000    0     1.008  -14.843251   -0.932693    0.882578
  94 H     1.0000    0     1.008  -17.716523   -1.998253    2.291104
  95 H     1.0000    0     1.008  -12.863914   -5.590282    6.042607
  96 H     1.0000    0     1.008  -15.414080   -3.377526    6.252178
  97 H     1.0000    0     1.008  -12.428426   -2.408702    5.007793

--------------------------------
INTERNAL COORDINATES (ANGSTROEM)
--------------------------------
 C      0   0   0     0.000000000000     0.00000000     0.00000000
 C      1   0   0     1.426493117929     0.00000000     0.00000000
 C      2   1   0     1.389461923804   119.75952085     0.00000000
 C      3   2   1     1.404625899448   118.16207248     2.10359454
 C      4   3   2     1.427231002011   121.90173160     0.00000000
 C      5   4   3     1.386670450395   119.97297600   357.93658107
 C      4   3   2     1.445980290357   131.32545942   183.86551993
 C      7   4   3     1.394179994872   110.59909971   176.57931686
 C      8   7   4     1.518099404025   110.76087377     3.50709023
 C      1   2   3     1.442571684666   106.87113438   176.50484609
 C     10   1   2     1.396780599557   110.84160165     0.72144028
 C     11  10   1     1.522922477541   110.53556285   359.75732777
 S      7   4   3     1.721075301171   136.69576504     2.60265820
 C     13   7   4     1.766532010154    90.73118083   171.84159183
 C     14  13   7     1.399289686019   111.17313515     2.12059412
 S     10   1   2     1.718654428936   136.30771625   180.23627533
 C     16  10   1     1.764098451051    90.76054346   181.33923733
 C     11  10   1     1.400766096606   112.57786670   178.08399043
 C      9   8   7     1.547018150734   111.73602889   234.97633341
 C      9   8   7     1.560199088867   108.38407887   111.43648743
 C     20   9   8     1.527412633279   116.72801190   177.17794347
 C     19   9   8     1.528077600745   114.56746630    48.19010709
 C     12  11  10     1.556839120430   108.67157049   117.83225024
 C     12  11  10     1.553961557858   111.86505620   243.26642019
 C     23  12  11     1.528344894518   117.06555091   179.54296598
 C     24  12  11     1.528260730177   115.81364884   293.90388605
 C     17  16  10     1.426567329045   119.92466578   180.46093874
 C     14  13   7     1.429458061889   119.76562962   186.78414876
 C     27  17  16     1.371873546833   123.54030733   183.49036103
 C     29  27  17     1.422099759968   127.58192744   181.47797653
 C     30  29  27     1.518369234837   119.94533779   182.63323929
 O     31  30  29     1.451051779676   103.57974415   179.80138854
 C     32  31  30     1.337792571589   110.94747215     0.84595560
 C     30  29  27     1.382922543890   132.40468672     3.62247889
 C     31  30  29     1.528315693631   112.28401955    63.76675491
 C     31  30  29     1.528813674586   111.97697481   295.45703998
 C     34  30  29     1.418986260610   124.97309028     0.33725264
 C     33  32  31     1.379835638980   119.82268065   179.73475150
 C     38  33  32     1.426556370180   122.26503432   179.70510417
 C     38  33  32     1.428389853856   119.43104532   359.96035834
 N     39  38  33     1.162047574284   178.44562962   180.11958703
 N     40  38  33     1.161866249833   179.81211724   177.20612572
 N     37  34  30     1.162006253210   174.65973424   358.94510441
 C     28  14  13     1.370758546973   123.30151485   157.92694875
 C     44  28  14     1.425534284856   126.70579338   183.85399465
 C     45  44  28     1.520763207998   120.86322854   164.59314946
 O     46  45  44     1.452910359004   103.39732037   180.71760746
 C     47  46  45     1.336835822829   111.04592590     0.95928563
 C     45  44  28     1.381296292546   131.41660394   346.53882615
 C     49  45  44     1.419823282102   125.23024304   357.58776338
 C     48  47  46     1.379450524557   120.08200141   179.41839782
 C     51  48  47     1.426696167970   122.20526826   180.71967300
 C     51  48  47     1.428040461262   119.51089414     0.09849981
 C     46  45  44     1.527241049933   113.31130561    64.76374658
 C     46  45  44     1.531150231329   112.03249357   296.35500634
 N     53  51  48     1.161632316742   179.79253147   192.32976398
 N     52  51  48     1.161873258837   178.57885381   178.58052339
 N     50  49  45     1.161868418970   175.52500705     1.64927090
 H      3   2   1     1.091299030972   121.63977005   183.63564979
 H      6   5   4     1.091517226112   121.53726665   183.30283687
 H     15  14  13     1.089960553094   122.43978692   178.57385268
 H     18  11  10     1.088304444629   125.00140452   181.24640541
 H     19   9   8     1.104261779199   108.01187115   285.32795380
 H     19   9   8     1.101354837416   108.62141853   171.15249675
 H     20   9   8     1.103591844615   107.06335808    54.64756528
 H     20   9   8     1.101873100679   107.61685132   301.02274564
 H     21  20   9     1.100065922116   112.04527088   301.13425904
 H     21  20   9     1.101126165251   109.94938542   182.25763674
 H     21  20   9     1.100895076744   112.15503782    62.92856662
 H     22  19   9     1.100462993017   111.67797657   295.55532366
 H     22  19   9     1.100551143519   110.72926569   175.59488510
 H     22  19   9     1.101917381204   111.43423156    55.39653900
 H     23  12  11     1.102077630750   107.33792445    56.72844054
 H     23  12  11     1.102138471926   107.49401549   303.38660291
 H     24  12  11     1.101563841137   108.10715541   170.94499855
 H     24  12  11     1.102215261145   107.59267309    57.03234444
 H     25  23  12     1.100966560164   112.26743987   304.39136432
 H     25  23  12     1.100715483947   109.94279620   185.28956363
 H     25  23  12     1.099685944759   112.13733940    66.25312036
 H     26  24  12     1.100968749148   112.20514687   301.33559426
 H     26  24  12     1.100907767754   110.42801036   181.78111088
 H     26  24  12     1.099855609342   111.71997945    62.76456072
 H     27  17  16     1.092500205309   116.92412433     3.81028744
 H     28  14  13     1.092697407154   117.02903728   341.60956628
 H     29  27  17     1.092656292299   117.64574959     2.14474256
 H     35  31  30     1.099274880637   110.24851815    54.99135419
 H     35  31  30     1.098842576396   110.30915477   295.06349763
 H     35  31  30     1.099631710210   110.05277896   175.24273644
 H     36  31  30     1.099900627375   110.26942136   307.78075812
 H     36  31  30     1.099357020535   109.86217058   187.79202482
 H     36  31  30     1.099412365493   110.56782441    68.06894092
 H     44  28  14     1.092995942765   117.74593044   358.53286433
 H     54  46  45     1.099112814364   110.60130823    54.40062168
 H     54  46  45     1.099406610177   110.46784778   293.71160279
 H     54  46  45     1.099495640965   109.60311076   174.18973713
 H     55  46  45     1.099383047896   110.51427639   306.04407383
 H     55  46  45     1.099602653371   109.71209883   185.83704941
 H     55  46  45     1.100240750245   110.43000171    66.12769770

---------------------------
INTERNAL COORDINATES (A.U.)
---------------------------
 C      0   0   0     0.000000000000     0.00000000     0.00000000
 C      1   0   0     2.695681324810     0.00000000     0.00000000
 C      2   1   0     2.625702509500   119.75952085     0.00000000
 C      3   2   1     2.654358270569   118.16207248     2.10359454
 C      4   3   2     2.697075723642   121.90173160     0.00000000
 C      5   4   3     2.620427389249   119.97297600   357.93658107
 C      4   3   2     2.732506743822   131.32545942   183.86551993
 C      7   4   3     2.634618371699   110.59909971   176.57931686
 C      8   7   4     2.868792117676   110.76087377     3.50709023
 C      1   2   3     2.726065412568   106.87113438   176.50484609
 C     10   1   2     2.639532802338   110.84160165     0.72144028
 C     11  10   1     2.877906405746   110.53556285   359.75732777
 S      7   4   3     3.252360975069   136.69576504     2.60265820
 C     13   7   4     3.338261705997    90.73118083   171.84159183
 C     14  13   7     2.644274288597   111.17313515     2.12059412
 S     10   1   2     3.247786189539   136.30771625   180.23627533
 C     16  10   1     3.333662945761    90.76054346   181.33923733
 C     11  10   1     2.647064300267   112.57786670   178.08399043
 C      9   8   7     2.923440629092   111.73602889   234.97633341
 C      9   8   7     2.948348992351   108.38407887   111.43648743
 C     20   9   8     2.886391570389   116.72801190   177.17794347
 C     19   9   8     2.887648176788   114.56746630    48.19010709
 C     12  11  10     2.941999572187   108.67157049   117.83225024
 C     12  11  10     2.936561766993   111.86505620   243.26642019
 C     23  12  11     2.888153288816   117.06555091   179.54296598
 C     24  12  11     2.887994241260   115.81364884   293.90388605
 C     17  16  10     2.695821563496   119.92466578   180.46093874
 C     14  13   7     2.701284256896   119.76562962   186.78414876
 C     27  17  16     2.592465293885   123.54030733   183.49036103
 C     29  27  17     2.687379081454   127.58192744   181.47797653
 C     30  29  27     2.869302024014   119.94533779   182.63323929
 O     31  30  29     2.742090469726   103.57974415   179.80138854
 C     32  31  30     2.528061584298   110.94747215     0.84595560
 C     30  29  27     2.613344872378   132.40468672     3.62247889
 C     31  30  29     2.888098107137   112.28401955    63.76675491
 C     31  30  29     2.889039154761   111.97697481   295.45703998
 C     34  30  29     2.681495420350   124.97309028     0.33725264
 C     33  32  31     2.607511467497   119.82268065   179.73475150
 C     38  33  32     2.695800854240   122.26503432   179.70510417
 C     38  33  32     2.699265636260   119.43104532   359.96035834
 N     39  38  33     2.195951669985   178.44562962   180.11958703
 N     40  38  33     2.195609016430   179.81211724   177.20612572
 N     37  34  30     2.195873584472   174.65973424   358.94510441
 C     28  14  13     2.590358249511   123.30151485   157.92694875
 C     44  28  14     2.693869392893   126.70579338   183.85399465
 C     45  44  28     2.873825977660   120.86322854   164.59314946
 O     46  45  44     2.745602675654   103.39732037   180.71760746
 C     47  46  45     2.526253591163   111.04592590     0.95928563
 C     45  44  28     2.610271702712   131.41660394   346.53882615
 C     49  45  44     2.683077161739   125.23024304   357.58776338
 C     48  47  46     2.606783706706   120.08200141   179.41839782
 C     51  48  47     2.696065033778   122.20526826   180.71967300
 C     51  48  47     2.698605379943   119.51089414     0.09849981
 C     46  45  44     2.886067324855   113.31130561    64.76374658
 C     46  45  44     2.893454607103   112.03249357   296.35500634
 N     53  51  48     2.195166946955   179.79253147   192.32976398
 N     52  51  48     2.195622261528   178.57885381   178.58052339
 N     50  49  45     2.195613115505   175.52500705     1.64927090
 H      3   2   1     2.062256298750   121.63977005   183.63564979
 H      6   5   4     2.062668627810   121.53726665   183.30283687
 H     15  14  13     2.059726942124   122.43978692   178.57385268
 H     18  11  10     2.056597350679   125.00140452   181.24640541
 H     19   9   8     2.086752342843   108.01187115   285.32795380
 H     19   9   8     2.081259018986   108.62141853   171.15249675
 H     20   9   8     2.085486349951   107.06335808    54.64756528
 H     20   9   8     2.082238394618   107.61685132   301.02274564
 H     21  20   9     2.078823322058   112.04527088   301.13425904
 H     21  20   9     2.080826891219   109.94938542   182.25763674
 H     21  20   9     2.080390197229   112.15503782    62.92856662
 H     22  19   9     2.079573677317   111.67797657   295.55532366
 H     22  19   9     2.079740257624   110.72926569   175.59488510
 H     22  19   9     2.082322072684   111.43423156    55.39653900
 H     23  12  11     2.082624900439   107.33792445    56.72844054
 H     23  12  11     2.082739873599   107.49401549   303.38660291
 H     24  12  11     2.081653978779   108.10715541   170.94499855
 H     24  12  11     2.082884984192   107.59267309    57.03234444
 H     25  23  12     2.080525281316   112.26743987   304.39136432
 H     25  23  12     2.080050816026   109.94279620   185.28956363
 H     25  23  12     2.078105268917   112.13733940    66.25312036
 H     26  24  12     2.080529417895   112.20514687   301.33559426
 H     26  24  12     2.080414179761   110.42801036   181.78111088
 H     26  24  12     2.078425888513   111.71997945    62.76456072
 H     27  17  16     2.064526189287   116.92412433     3.81028744
 H     28  14  13     2.064898846766   117.02903728   341.60956628
 H     29  27  17     2.064821150950   117.64574959     2.14474256
 H     35  31  30     2.077328470303   110.24851815    54.99135419
 H     35  31  30     2.076511533680   110.30915477   295.06349763
 H     35  31  30     2.078002780473   110.05277896   175.24273644
 H     36  31  30     2.078510960267   110.26942136   307.78075812
 H     36  31  30     2.077483692215   109.86217058   187.79202482
 H     36  31  30     2.077588279029   110.56782441    68.06894092
 H     44  28  14     2.065462997312   117.74593044   358.53286433
 H     54  46  45     2.077022209432   110.60130823    54.40062168
 H     54  46  45     2.077577403056   110.46784778   293.71160279
 H     54  46  45     2.077745646863   109.60311076   174.18973713
 H     55  46  45     2.077532876798   110.51427639   306.04407383
 H     55  46  45     2.077947871004   109.71209883   185.83704941
 H     55  46  45     2.079153699343   110.43000171    66.12769770

---------------------
BASIS SET INFORMATION
---------------------
There are 5 groups of distinct atoms

 Group   1 Type C   : 11s6p2d1f contracted to 5s3p2d1f pattern {62111/411/11/1}
 Group   2 Type S   : 14s9p3d1f contracted to 5s5p2d1f pattern {73211/51111/21/1}
 Group   3 Type O   : 11s6p2d1f contracted to 5s3p2d1f pattern {62111/411/11/1}
 Group   4 Type N   : 11s6p2d1f contracted to 5s3p2d1f pattern {62111/411/11/1}
 Group   5 Type H   : 5s1p contracted to 3s1p pattern {311/1}

Atom   0C    basis set group =>   1
Atom   1C    basis set group =>   1
Atom   2C    basis set group =>   1
Atom   3C    basis set group =>   1
Atom   4C    basis set group =>   1
Atom   5C    basis set group =>   1
Atom   6C    basis set group =>   1
Atom   7C    basis set group =>   1
Atom   8C    basis set group =>   1
Atom   9C    basis set group =>   1
Atom  10C    basis set group =>   1
Atom  11C    basis set group =>   1
Atom  12S    basis set group =>   2
Atom  13C    basis set group =>   1
Atom  14C    basis set group =>   1
Atom  15S    basis set group =>   2
Atom  16C    basis set group =>   1
Atom  17C    basis set group =>   1
Atom  18C    basis set group =>   1
Atom  19C    basis set group =>   1
Atom  20C    basis set group =>   1
Atom  21C    basis set group =>   1
Atom  22C    basis set group =>   1
Atom  23C    basis set group =>   1
Atom  24C    basis set group =>   1
Atom  25C    basis set group =>   1
Atom  26C    basis set group =>   1
Atom  27C    basis set group =>   1
Atom  28C    basis set group =>   1
Atom  29C    basis set group =>   1
Atom  30C    basis set group =>   1
Atom  31O    basis set group =>   3
Atom  32C    basis set group =>   1
Atom  33C    basis set group =>   1
Atom  34C    basis set group =>   1
Atom  35C    basis set group =>   1
Atom  36C    basis set group =>   1
Atom  37C    basis set group =>   1
Atom  38C    basis set group =>   1
Atom  39C    basis set group =>   1
Atom  40N    basis set group =>   4
Atom  41N    basis set group =>   4
Atom  42N    basis set group =>   4
Atom  43C    basis set group =>   1
Atom  44C    basis set group =>   1
Atom  45C    basis set group =>   1
Atom  46O    basis set group =>   3
Atom  47C    basis set group =>   1
Atom  48C    basis set group =>   1
Atom  49C    basis set group =>   1
Atom  50C    basis set group =>   1
Atom  51C    basis set group =>   1
Atom  52C    basis set group =>   1
Atom  53C    basis set group =>   1
Atom  54C    basis set group =>   1
Atom  55N    basis set group =>   4
Atom  56N    basis set group =>   4
Atom  57N    basis set group =>   4
Atom  58H    basis set group =>   5
Atom  59H    basis set group =>   5
Atom  60H    basis set group =>   5
Atom  61H    basis set group =>   5
Atom  62H    basis set group =>   5
Atom  63H    basis set group =>   5
Atom  64H    basis set group =>   5
Atom  65H    basis set group =>   5
Atom  66H    basis set group =>   5
Atom  67H    basis set group =>   5
Atom  68H    basis set group =>   5
Atom  69H    basis set group =>   5
Atom  70H    basis set group =>   5
Atom  71H    basis set group =>   5
Atom  72H    basis set group =>   5
Atom  73H    basis set group =>   5
Atom  74H    basis set group =>   5
Atom  75H    basis set group =>   5
Atom  76H    basis set group =>   5
Atom  77H    basis set group =>   5
Atom  78H    basis set group =>   5
Atom  79H    basis set group =>   5
Atom  80H    basis set group =>   5
Atom  81H    basis set group =>   5
Atom  82H    basis set group =>   5
Atom  83H    basis set group =>   5
Atom  84H    basis set group =>   5
Atom  85H    basis set group =>   5
Atom  86H    basis set group =>   5
Atom  87H    basis set group =>   5
Atom  88H    basis set group =>   5
Atom  89H    basis set group =>   5
Atom  90H    basis set group =>   5
Atom  91H    basis set group =>   5
Atom  92H    basis set group =>   5
Atom  93H    basis set group =>   5
Atom  94H    basis set group =>   5
Atom  95H    basis set group =>   5
Atom  96H    basis set group =>   5
Atom  97H    basis set group =>   5
---------------------------------
AUXILIARY/J BASIS SET INFORMATION
---------------------------------
There are 5 groups of distinct atoms

 Group   1 Type C   : 12s5p4d2f1g contracted to 6s4p3d1f1g pattern {711111/2111/211/2/1}
 Group   2 Type S   : 14s5p5d2f1g contracted to 8s4p3d1f1g pattern {71111111/2111/311/2/1}
 Group   3 Type O   : 12s5p4d2f1g contracted to 6s4p3d1f1g pattern {711111/2111/211/2/1}
 Group   4 Type N   : 12s5p4d2f1g contracted to 6s4p3d1f1g pattern {711111/2111/211/2/1}
 Group   5 Type H   : 5s2p1d contracted to 3s1p1d pattern {311/2/1}

Atom   0C    basis set group =>   1
Atom   1C    basis set group =>   1
Atom   2C    basis set group =>   1
Atom   3C    basis set group =>   1
Atom   4C    basis set group =>   1
Atom   5C    basis set group =>   1
Atom   6C    basis set group =>   1
Atom   7C    basis set group =>   1
Atom   8C    basis set group =>   1
Atom   9C    basis set group =>   1
Atom  10C    basis set group =>   1
Atom  11C    basis set group =>   1
Atom  12S    basis set group =>   2
Atom  13C    basis set group =>   1
Atom  14C    basis set group =>   1
Atom  15S    basis set group =>   2
Atom  16C    basis set group =>   1
Atom  17C    basis set group =>   1
Atom  18C    basis set group =>   1
Atom  19C    basis set group =>   1
Atom  20C    basis set group =>   1
Atom  21C    basis set group =>   1
Atom  22C    basis set group =>   1
Atom  23C    basis set group =>   1
Atom  24C    basis set group =>   1
Atom  25C    basis set group =>   1
Atom  26C    basis set group =>   1
Atom  27C    basis set group =>   1
Atom  28C    basis set group =>   1
Atom  29C    basis set group =>   1
Atom  30C    basis set group =>   1
Atom  31O    basis set group =>   3
Atom  32C    basis set group =>   1
Atom  33C    basis set group =>   1
Atom  34C    basis set group =>   1
Atom  35C    basis set group =>   1
Atom  36C    basis set group =>   1
Atom  37C    basis set group =>   1
Atom  38C    basis set group =>   1
Atom  39C    basis set group =>   1
Atom  40N    basis set group =>   4
Atom  41N    basis set group =>   4
Atom  42N    basis set group =>   4
Atom  43C    basis set group =>   1
Atom  44C    basis set group =>   1
Atom  45C    basis set group =>   1
Atom  46O    basis set group =>   3
Atom  47C    basis set group =>   1
Atom  48C    basis set group =>   1
Atom  49C    basis set group =>   1
Atom  50C    basis set group =>   1
Atom  51C    basis set group =>   1
Atom  52C    basis set group =>   1
Atom  53C    basis set group =>   1
Atom  54C    basis set group =>   1
Atom  55N    basis set group =>   4
Atom  56N    basis set group =>   4
Atom  57N    basis set group =>   4
Atom  58H    basis set group =>   5
Atom  59H    basis set group =>   5
Atom  60H    basis set group =>   5
Atom  61H    basis set group =>   5
Atom  62H    basis set group =>   5
Atom  63H    basis set group =>   5
Atom  64H    basis set group =>   5
Atom  65H    basis set group =>   5
Atom  66H    basis set group =>   5
Atom  67H    basis set group =>   5
Atom  68H    basis set group =>   5
Atom  69H    basis set group =>   5
Atom  70H    basis set group =>   5
Atom  71H    basis set group =>   5
Atom  72H    basis set group =>   5
Atom  73H    basis set group =>   5
Atom  74H    basis set group =>   5
Atom  75H    basis set group =>   5
Atom  76H    basis set group =>   5
Atom  77H    basis set group =>   5
Atom  78H    basis set group =>   5
Atom  79H    basis set group =>   5
Atom  80H    basis set group =>   5
Atom  81H    basis set group =>   5
Atom  82H    basis set group =>   5
Atom  83H    basis set group =>   5
Atom  84H    basis set group =>   5
Atom  85H    basis set group =>   5
Atom  86H    basis set group =>   5
Atom  87H    basis set group =>   5
Atom  88H    basis set group =>   5
Atom  89H    basis set group =>   5
Atom  90H    basis set group =>   5
Atom  91H    basis set group =>   5
Atom  92H    basis set group =>   5
Atom  93H    basis set group =>   5
Atom  94H    basis set group =>   5
Atom  95H    basis set group =>   5
Atom  96H    basis set group =>   5
Atom  97H    basis set group =>   5


           ************************************************************
           *        Program running with 6 parallel MPI-processes     *
           *              working on a common directory               *
           ************************************************************
------------------------------------------------------------------------------
                           ORCA GTO INTEGRAL CALCULATION
                           -- RI-GTO INTEGRALS CHOSEN --
------------------------------------------------------------------------------

                         BASIS SET STATISTICS AND STARTUP INFO

Gaussian basis set:
 # of primitive gaussian shells          ... 1414
 # of primitive gaussian functions       ... 3022
 # of contracted shells                  ...  802
 # of contracted basis functions         ... 2050
 Highest angular momentum                ...    3
 Maximum contraction depth               ...    7
Auxiliary gaussian basis set:
 # of primitive gaussian shells          ... 1718
 # of primitive gaussian functions       ... 4714
 # of contracted shells                  ... 1074
 # of contracted aux-basis functions     ... 3286
 Highest angular momentum                ...    4
 Maximum contraction depth               ...    7
Ratio of auxiliary to basis functions    ...  1.60
Integral package used                  ... LIBINT
 One Electron integrals                  ... done
 Ordering auxiliary basis shells         ... done
 Integral threshhold             Thresh  ...  2.500e-11
 Primitive cut-off               TCut    ...  2.500e-12
 Pre-screening matrix                    ... done
 Shell pair data                         ... 
 Ordering of the shell pairs             ... done (   0.047 sec) 116659 of 322003 pairs
 Determination of significant pairs      ... done (   0.000 sec)
 Creation of shell pair data             ... done (   0.010 sec)
 Storage of shell pair data              ... done (   0.056 sec)
 Shell pair data done in (   0.133 sec)
 Computing two index integrals           ... done
 Cholesky decomposition of the V-matrix  ... done


Timings:
 Total evaluation time                   ...  13.509 sec (  0.225 min)
 One electron matrix time                ...   2.936 sec (  0.049 min) = 21.7%
 Schwartz matrix evaluation time         ...   4.323 sec (  0.072 min) = 32.0%
 Two index repulsion integral time       ...   0.393 sec (  0.007 min) =  2.9%
 Cholesky decomposition of V             ...   5.704 sec (  0.095 min) = 42.2%
 Three index repulsion integral time     ...   0.002 sec (  0.000 min) =  0.0%



           ************************************************************
           *        Program running with 6 parallel MPI-processes     *
           *              working on a common directory               *
           ************************************************************
-------------------------------------------------------------------------------
                                 ORCA SCF
-------------------------------------------------------------------------------

------------
SCF SETTINGS
------------
Hamiltonian:
 Density Functional     Method          .... DFT(GTOs)
 Exchange Functional    Exchange        .... B88
   X-Alpha parameter    XAlpha          ....  0.666667
   Becke's b parameter  XBeta           ....  0.004200
 Correlation Functional Correlation     .... LYP
 LDA part of GGA corr.  LDAOpt          .... VWN-5
 Gradients option       PostSCFGGA      .... off
 Hybrid DFT is turned on
   Fraction HF Exchange ScalHFX         ....  0.200000
   Scaling of DF-GGA-X  ScalDFX         ....  0.720000
   Scaling of DF-GGA-C  ScalDFC         ....  0.810000
   Scaling of DF-LDA-C  ScalLDAC        ....  1.000000
   Perturbative correction              ....  0.000000
   Density functional embedding theory  .... OFF
   NL short-range parameter             ....  4.800000
 RI-approximation to the Coulomb term is turned on
   Number of auxiliary basis functions  .... 3286
   RIJ-COSX (HFX calculated with COS-X)).... on


General Settings:
 Integral files         IntName         .... IDTCF
 Hartree-Fock type      HFTyp           .... RHF
 Total Charge           Charge          ....    0
 Multiplicity           Mult            ....    1
 Number of Electrons    NEL             ....  418
 Basis Dimension        Dim             .... 2050
 Nuclear Repulsion      ENuc            ....   7258.8725984577 Eh

Convergence Acceleration:
 DIIS                   CNVDIIS         .... on
   Start iteration      DIISMaxIt       ....    12
   Startup error        DIISStart       ....  0.200000
   # of expansion vecs  DIISMaxEq       ....     5
   Bias factor          DIISBfac        ....   1.050
   Max. coefficient     DIISMaxC        ....  10.000
 Newton-Raphson         CNVNR           .... off
 SOSCF                  CNVSOSCF        .... on
   Start iteration      SOSCFMaxIt      ....   150
   Startup grad/error   SOSCFStart      ....  0.003300
 Level Shifting         CNVShift        .... on
   Level shift para.    LevelShift      ....    0.2500
   Turn off err/grad.   ShiftErr        ....    0.0010
 Zerner damping         CNVZerner       .... off
 Static damping         CNVDamp         .... on
   Fraction old density DampFac         ....    0.7000
   Max. Damping (<1)    DampMax         ....    0.9800
   Min. Damping (>=0)   DampMin         ....    0.0000
   Turn off err/grad.   DampErr         ....    0.1000
 Fernandez-Rico         CNVRico         .... off

SCF Procedure:
 Maximum # iterations   MaxIter         ....   125
 SCF integral mode      SCFMode         .... Direct
   Integral package                     .... LIBINT
 Reset frequency        DirectResetFreq ....    20
 Integral Threshold     Thresh          ....  2.500e-11 Eh
 Primitive CutOff       TCut            ....  2.500e-12 Eh

Convergence Tolerance:
 Convergence Check Mode ConvCheckMode   .... Total+1el-Energy
 Convergence forced     ConvForced      .... 1
 Energy Change          TolE            ....  1.000e-08 Eh
 1-El. energy change                    ....  1.000e-05 Eh
 Orbital Gradient       TolG            ....  1.000e-05
 Orbital Rotation angle TolX            ....  1.000e-05
 DIIS Error             TolErr          ....  5.000e-07


Diagonalization of the overlap matrix:
Smallest eigenvalue                        ... 3.041e-06
Time for diagonalization                   ...    9.472 sec
Threshold for overlap eigenvalues          ... 1.000e-08
Number of eigenvalues below threshold      ... 0
Time for construction of square roots      ...    5.263 sec
Total time needed                          ...   14.748 sec

-------------------
DFT GRID GENERATION
-------------------

General Integration Accuracy     IntAcc      ...  4.670
Radial Grid Type                 RadialGrid  ... Gauss-Chebyshev
Angular Grid (max. acc.)         AngularGrid ... Lebedev-302
Angular grid pruning method      GridPruning ... 3 (G Style)
Weight generation scheme         WeightScheme... Becke
Basis function cutoff            BFCut       ...    1.0000e-11
Integration weight cutoff        WCut        ...    1.0000e-14
Grids for H and He will be reduced by one unit

# of grid points (after initial pruning)     ... 497324 (   0.0 sec)
# of grid points (after weights+screening)   ... 423129 (   7.3 sec)
nearest neighbour list constructed           ...    0.0 sec
Grid point re-assignment to atoms done       ...    0.1 sec
Grid point division into batches done        ...    3.0 sec
Reduced shell lists constructed in    6.0 sec

Total number of grid points                  ...   423129
Total number of batches                      ...     6664
Average number of points per batch           ...       63
Average number of grid points per atom       ...     4318
Average number of shells per batch           ...   222.29 (27.72%)
Average number of basis functions per batch  ...   541.76 (26.43%)
Average number of large shells per batch     ...   137.53 (61.87%)
Average number of large basis fcns per batch ...   345.75 (63.82%)
Maximum spatial batch extension              ...  12.80, 15.00, 25.18 au
Average spatial batch extension              ...   0.24,  0.25,  0.28 au

Time for grid setup =   14.884 sec

------------------------------
INITIAL GUESS: MODEL POTENTIAL
------------------------------
Loading Hartree-Fock densities                     ... done
Calculating cut-offs                               ... done
Setting up the integral package                    ... done
Initializing the effective Hamiltonian             ... done
Starting the Coulomb interaction                   ... done (   6.3 sec)
Reading the grid                                   ... done
Mapping shells                                     ... done
Starting the XC term evaluation                    ... done (   6.1 sec)
  promolecular density results
     # of electrons  =    417.981543696
     EX              =   -364.325624023
     EC              =    -14.401951962
     EX+EC           =   -378.727575984
Transforming the Hamiltonian                       ... done (   1.9 sec)
Diagonalizing the Hamiltonian                      ... done (  10.0 sec)
Back transforming the eigenvectors                 ... done (   2.1 sec)
Now organizing SCF variables                       ... done
                      ------------------
                      INITIAL GUESS DONE (  41.8 sec)
                      ------------------
--------------------
COSX GRID GENERATION
--------------------

General Integration Accuracy     IntAcc      ...  3.340
Radial Grid Type                 RadialGrid  ... Gauss-Chebyshev
Angular Grid (max. acc.)         AngularGrid ... Lebedev-50
Angular grid pruning method      GridPruning ... 3 (G Style)
Weight generation scheme         WeightScheme... Becke
Basis function cutoff            BFCut       ...    1.0000e-11
Integration weight cutoff        WCut        ...    1.0000e-14
Grids for H and He will be reduced by one unit

# of grid points (after initial pruning)     ...  46608 (   0.0 sec)
# of grid points (after weights+screening)   ...  41340 (   0.6 sec)
nearest neighbour list constructed           ...    0.0 sec
Grid point re-assignment to atoms done       ...    0.0 sec
Grid point division into batches done        ...    0.0 sec
Reduced shell lists constructed in    0.4 sec

Total number of grid points                  ...    41340
Total number of batches                      ...      695
Average number of points per batch           ...       59
Average number of grid points per atom       ...      422
Average number of shells per batch           ...   255.51 (31.86%)
Average number of basis functions per batch  ...   628.62 (30.66%)
Average number of large shells per batch     ...   160.21 (62.70%)
Average number of large basis fcns per batch ...   406.79 (64.71%)
Maximum spatial batch extension              ...   8.51, 12.33, 18.26 au
Average spatial batch extension              ...   0.43,  0.44,  0.57 au

Overlap Fitting                  UseSFitting ... on
Constructing numerical overlap ... done (      1.1 sec)
Inverting numerical overlap    ... done (      2.8 sec)
Obtaining analytic overlap     ... done (      0.0 sec)
Final contraction and storage  ... done (      3.6 sec)


General Integration Accuracy     IntAcc      ...  3.670
Radial Grid Type                 RadialGrid  ... Gauss-Chebyshev
Angular Grid (max. acc.)         AngularGrid ... Lebedev-50
Angular grid pruning method      GridPruning ... 3 (G Style)
Weight generation scheme         WeightScheme... Becke
Basis function cutoff            BFCut       ...    1.0000e-11
Integration weight cutoff        WCut        ...    1.0000e-14
Grids for H and He will be reduced by one unit

# of grid points (after initial pruning)     ...  58764 (   0.0 sec)
# of grid points (after weights+screening)   ...  51867 (   0.7 sec)
nearest neighbour list constructed           ...    0.0 sec
Grid point re-assignment to atoms done       ...    0.0 sec
Grid point division into batches done        ...    0.0 sec
Reduced shell lists constructed in    0.5 sec

Total number of grid points                  ...    51867
Total number of batches                      ...      854
Average number of points per batch           ...       60
Average number of grid points per atom       ...      529
Average number of shells per batch           ...   251.66 (31.38%)
Average number of basis functions per batch  ...   618.37 (30.16%)
Average number of large shells per batch     ...   156.90 (62.35%)
Average number of large basis fcns per batch ...   397.82 (64.33%)
Maximum spatial batch extension              ...   9.33, 13.45, 18.32 au
Average spatial batch extension              ...   0.43,  0.46,  0.57 au

Overlap Fitting                  UseSFitting ... on
Constructing numerical overlap ... done (      1.3 sec)
Inverting numerical overlap    ... done (      4.5 sec)
Obtaining analytic overlap     ... done (      0.0 sec)
Final contraction and storage  ... done (      3.6 sec)


General Integration Accuracy     IntAcc      ...  4.010
Radial Grid Type                 RadialGrid  ... Gauss-Chebyshev
Angular Grid (max. acc.)         AngularGrid ... Lebedev-110
Angular grid pruning method      GridPruning ... 3 (G Style)
Weight generation scheme         WeightScheme... Becke
Basis function cutoff            BFCut       ...    1.0000e-11
Integration weight cutoff        WCut        ...    1.0000e-14
Grids for H and He will be reduced by one unit

# of grid points (after initial pruning)     ... 112100 (   0.0 sec)
# of grid points (after weights+screening)   ...  98353 (   1.8 sec)
nearest neighbour list constructed           ...    0.0 sec
Grid point re-assignment to atoms done       ...    0.0 sec
Grid point division into batches done        ...    0.1 sec
Reduced shell lists constructed in    0.9 sec

Total number of grid points                  ...    98353
Total number of batches                      ...     1586
Average number of points per batch           ...       62
Average number of grid points per atom       ...     1004
Average number of shells per batch           ...   242.50 (30.24%)
Average number of basis functions per batch  ...   595.20 (29.03%)
Average number of large shells per batch     ...   152.62 (62.94%)
Average number of large basis fcns per batch ...   386.18 (64.88%)
Maximum spatial batch extension              ...  10.51, 13.90, 20.20 au
Average spatial batch extension              ...   0.37,  0.38,  0.45 au

Overlap Fitting                  UseSFitting ... on
Constructing numerical overlap ... done (      2.0 sec)
Inverting numerical overlap    ... done (      2.5 sec)
Obtaining analytic overlap     ... done (      0.0 sec)
Final contraction and storage  ... done (      3.6 sec)

Time for X-Grid setup             =   31.725 sec
--------------
SCF ITERATIONS
--------------
ITER       Energy         Delta-E        Max-DP      RMS-DP      [F,P]     Damp
               ***  Starting incremental Fock matrix formation  ***
  0  -3126.0160059447   0.000000000000 0.13536531  0.00079065  0.3184454 0.7000
  1  -3126.8603266544  -0.844320709693 0.11759842  0.00061452  0.1006584 0.7000
                               ***Turning on DIIS***
  2  -3127.1408634698  -0.280536815409 0.27831959  0.00090828  0.0467453 0.0000
  3  -3127.6447327723  -0.503869302484 0.12954977  0.00055853  0.0552550 0.0000
  4  -3127.7346156471  -0.089882874840 0.03109091  0.00017063  0.0409021 0.0000
  5  -3127.7518411875  -0.017225540326 0.01683777  0.00009106  0.0054595 0.0000
  6  -3127.7526165844  -0.000775396924 0.00416185  0.00002835  0.0033535 0.0000
                      *** Initiating the SOSCF procedure ***
                           *** Shutting down DIIS ***
                      *** Re-Reading the Fockian *** 
                      *** Removing any level shift *** 
ITER      Energy       Delta-E        Grad      Rot      Max-DP    RMS-DP
  7  -3127.75274475  -0.0001281675  0.000499  0.000499  0.002173  0.000015
               *** Restarting incremental Fock matrix formation ***
  8  -3127.75276828  -0.0000235295  0.000206  0.002155  0.009833  0.000052
  9  -3127.75275393   0.0000143469  0.000384  0.001344  0.001378  0.000007
 10  -3127.75277300  -0.0000190619  0.000072  0.000720  0.001142  0.000006
 11  -3127.75277120   0.0000017985  0.000123  0.000487  0.000490  0.000003
 12  -3127.75277370  -0.0000025031  0.000022  0.000147  0.001144  0.000002
 13  -3127.75277348   0.0000002163  0.000064  0.000091  0.000353  0.000001
 14  -3127.75277380  -0.0000003122  0.000011  0.000022  0.000511  0.000001
 15  -3127.75277374   0.0000000566  0.000021  0.000016  0.000189  0.000001
                  ***Gradient check signals convergence***
              ***Rediagonalizing the Fockian in SOSCF/NRSCF***

               *****************************************************
               *                     SUCCESS                       *
               *           SCF CONVERGED AFTER  16 CYCLES          *
               *****************************************************

Setting up the final grid:

General Integration Accuracy     IntAcc      ...  5.010
Radial Grid Type                 RadialGrid  ... Gauss-Chebyshev
Angular Grid (max. acc.)         AngularGrid ... Lebedev-434
Angular grid pruning method      GridPruning ... 3 (G Style)
Weight generation scheme         WeightScheme... Becke
Basis function cutoff            BFCut       ...    1.0000e-11
Integration weight cutoff        WCut        ...    1.0000e-14
Grids for H and He will be reduced by one unit

# of grid points (after initial pruning)     ... 889888 (   0.1 sec)
# of grid points (after weights+screening)   ... 754571 (  11.5 sec)
nearest neighbour list constructed           ...    0.0 sec
Grid point re-assignment to atoms done       ...    0.2 sec
Grid point division into batches done        ...   10.0 sec
Reduced shell lists constructed in   15.0 sec

Total number of grid points                  ...   754571
Total number of batches                      ...    11844
Average number of points per batch           ...       63
Average number of grid points per atom       ...     7700
Average number of shells per batch           ...   216.49 (26.99%)
Average number of basis functions per batch  ...   525.53 (25.64%)
Average number of large shells per batch     ...   133.35 (61.60%)
Average number of large basis fcns per batch ...   334.83 (63.71%)
Maximum spatial batch extension              ...  12.75, 16.11, 22.43 au
Average spatial batch extension              ...   0.20,  0.20,  0.22 au

Final grid set up in   31.6 sec
Final integration                            ... done (  12.5 sec)
Change in XC energy                          ...     0.000031486
Integrated number of electrons               ...   418.000130578
Previous integrated no of electrons          ...   418.000469930
Old exchange energy                            =    -73.793581762 Eh
New exchange energy                            =    -73.794060056 Eh
Exchange energy change after final integration =     -0.000478294 Eh
Total energy after final integration           =  -3127.753220609 Eh
Final COS-X integration done in                =   347.639 sec

----------------
TOTAL SCF ENERGY
----------------

Total Energy       :        -3127.75322061 Eh          -85110.49207 eV

Components:
Nuclear Repulsion  :         7258.87259846 Eh          197523.96533 eV
Electronic Energy  :       -10386.62581907 Eh         -282634.45739 eV
One Electron Energy:       -18706.03485416 Eh         -509017.08631 eV
Two Electron Energy:         8319.40903510 Eh          226382.62892 eV

Virial components:
Potential Energy   :        -6242.58409548 Eh         -169869.34923 eV
Kinetic Energy     :         3114.83087487 Eh           84758.85716 eV
Virial Ratio       :            2.00414865


DFT components:
N(Alpha)           :      209.000065289061 electrons
N(Beta)            :      209.000065289061 electrons
N(Total)           :      418.000130578122 electrons
E(X)               :     -293.279373606316 Eh       
E(C)               :      -16.954851693288 Eh       
E(XC)              :     -310.234225299604 Eh       
DFET-embed. en.    :        0.000000000000 Eh       

---------------
SCF CONVERGENCE
---------------

  Last Energy change         ...   -6.2175e-08  Tolerance :   1.0000e-08
  Last MAX-Density change    ...    3.5527e-15  Tolerance :   1.0000e-07
  Last RMS-Density change    ...    1.1882e-17  Tolerance :   5.0000e-09
  Last Orbital Gradient      ...    2.4379e-06  Tolerance :   1.0000e-05
  Last Orbital Rotation      ...    7.7446e-06  Tolerance :   1.0000e-05

             **** THE GBW FILE WAS UPDATED (IDTCF.gbw) ****
             **** DENSITY FILE WAS UPDATED (IDTCF.scfp) ****
             **** ENERGY FILE WAS UPDATED (IDTCF.en.tmp) ****
             **** THE GBW FILE WAS UPDATED (IDTCF.gbw) ****
             **** DENSITY FILE WAS UPDATED (IDTCF.scfp) ****
----------------
ORBITAL ENERGIES
----------------

  NO   OCC          E(Eh)            E(eV) 
   0   2.0000     -88.927180     -2419.8316 
   1   2.0000     -88.927171     -2419.8314 
   2   2.0000     -19.209434      -522.7153 
   3   2.0000     -19.207697      -522.6680 
   4   2.0000     -14.337665      -390.1477 
   5   2.0000     -14.336376      -390.1126 
   6   2.0000     -14.315099      -389.5336 
   7   2.0000     -14.314755      -389.5243 
   8   2.0000     -14.313491      -389.4899 
   9   2.0000     -14.313377      -389.4868 
  10   2.0000     -10.305868      -280.4369 
  11   2.0000     -10.304255      -280.3930 
  12   2.0000     -10.292443      -280.0716 
  13   2.0000     -10.290063      -280.0069 
  14   2.0000     -10.255813      -279.0749 
  15   2.0000     -10.253580      -279.0141 
  16   2.0000     -10.253489      -279.0116 
  17   2.0000     -10.252528      -278.9855 
  18   2.0000     -10.251886      -278.9680 
  19   2.0000     -10.251313      -278.9524 
  20   2.0000     -10.246864      -278.8313 
  21   2.0000     -10.246737      -278.8279 
  22   2.0000     -10.246001      -278.8079 
  23   2.0000     -10.244815      -278.7756 
  24   2.0000     -10.241560      -278.6870 
  25   2.0000     -10.240363      -278.6544 
  26   2.0000     -10.235542      -278.5233 
  27   2.0000     -10.235139      -278.5123 
  28   2.0000     -10.234168      -278.4859 
  29   2.0000     -10.233349      -278.4636 
  30   2.0000     -10.231725      -278.4194 
  31   2.0000     -10.231177      -278.4045 
  32   2.0000     -10.227204      -278.2964 
  33   2.0000     -10.227176      -278.2956 
  34   2.0000     -10.226228      -278.2698 
  35   2.0000     -10.224968      -278.2355 
  36   2.0000     -10.224528      -278.2235 
  37   2.0000     -10.223606      -278.1985 
  38   2.0000     -10.221598      -278.1438 
  39   2.0000     -10.219903      -278.0977 
  40   2.0000     -10.219675      -278.0915 
  41   2.0000     -10.219361      -278.0830 
  42   2.0000     -10.215864      -277.9878 
  43   2.0000     -10.215433      -277.9761 
  44   2.0000     -10.214438      -277.9490 
  45   2.0000     -10.214151      -277.9412 
  46   2.0000     -10.208180      -277.7787 
  47   2.0000     -10.207605      -277.7630 
  48   2.0000     -10.206863      -277.7428 
  49   2.0000     -10.206806      -277.7413 
  50   2.0000     -10.206769      -277.7403 
  51   2.0000     -10.206302      -277.7276 
  52   2.0000     -10.206293      -277.7273 
  53   2.0000     -10.206278      -277.7269 
  54   2.0000     -10.193178      -277.3705 
  55   2.0000     -10.191201      -277.3167 
  56   2.0000     -10.189576      -277.2725 
  57   2.0000     -10.188245      -277.2362 
  58   2.0000      -8.002842      -217.7684 
  59   2.0000      -8.002747      -217.7658 
  60   2.0000      -5.965196      -162.3212 
  61   2.0000      -5.965152      -162.3200 
  62   2.0000      -5.961586      -162.2230 
  63   2.0000      -5.961476      -162.2200 
  64   2.0000      -5.959719      -162.1722 
  65   2.0000      -5.959599      -162.1689 
  66   2.0000      -1.136967       -30.9384 
  67   2.0000      -1.135407       -30.8960 
  68   2.0000      -0.949392       -25.8343 
  69   2.0000      -0.940849       -25.6018 
  70   2.0000      -0.931371       -25.3439 
  71   2.0000      -0.930152       -25.3107 
  72   2.0000      -0.915279       -24.9060 
  73   2.0000      -0.913748       -24.8644 
  74   2.0000      -0.904873       -24.6228 
  75   2.0000      -0.900832       -24.5129 
  76   2.0000      -0.899325       -24.4719 
  77   2.0000      -0.891522       -24.2595 
  78   2.0000      -0.886153       -24.1134 
  79   2.0000      -0.878333       -23.9006 
  80   2.0000      -0.861900       -23.4535 
  81   2.0000      -0.860087       -23.4042 
  82   2.0000      -0.849944       -23.1282 
  83   2.0000      -0.838259       -22.8102 
  84   2.0000      -0.830918       -22.6104 
  85   2.0000      -0.812109       -22.0986 
  86   2.0000      -0.805005       -21.9053 
  87   2.0000      -0.803034       -21.8517 
  88   2.0000      -0.787184       -21.4204 
  89   2.0000      -0.783884       -21.3306 
  90   2.0000      -0.782770       -21.3003 
  91   2.0000      -0.780845       -21.2479 
  92   2.0000      -0.778099       -21.1732 
  93   2.0000      -0.772600       -21.0235 
  94   2.0000      -0.740950       -20.1623 
  95   2.0000      -0.736935       -20.0530 
  96   2.0000      -0.736365       -20.0375 
  97   2.0000      -0.729465       -19.8498 
  98   2.0000      -0.713356       -19.4114 
  99   2.0000      -0.706630       -19.2284 
 100   2.0000      -0.695400       -18.9228 
 101   2.0000      -0.684568       -18.6280 
 102   2.0000      -0.679727       -18.4963 
 103   2.0000      -0.671082       -18.2611 
 104   2.0000      -0.658757       -17.9257 
 105   2.0000      -0.655862       -17.8469 
 106   2.0000      -0.647935       -17.6312 
 107   2.0000      -0.644623       -17.5411 
 108   2.0000      -0.631942       -17.1960 
 109   2.0000      -0.624186       -16.9850 
 110   2.0000      -0.620334       -16.8801 
 111   2.0000      -0.607169       -16.5219 
 112   2.0000      -0.593628       -16.1534 
 113   2.0000      -0.590552       -16.0697 
 114   2.0000      -0.585856       -15.9420 
 115   2.0000      -0.580337       -15.7918 
 116   2.0000      -0.577964       -15.7272 
 117   2.0000      -0.573612       -15.6088 
 118   2.0000      -0.572484       -15.5781 
 119   2.0000      -0.557297       -15.1648 
 120   2.0000      -0.551779       -15.0147 
 121   2.0000      -0.544406       -14.8140 
 122   2.0000      -0.537858       -14.6359 
 123   2.0000      -0.532578       -14.4922 
 124   2.0000      -0.515183       -14.0188 
 125   2.0000      -0.513905       -13.9841 
 126   2.0000      -0.513132       -13.9630 
 127   2.0000      -0.506001       -13.7690 
 128   2.0000      -0.505267       -13.7490 
 129   2.0000      -0.495952       -13.4955 
 130   2.0000      -0.495488       -13.4829 
 131   2.0000      -0.489667       -13.3245 
 132   2.0000      -0.489104       -13.3092 
 133   2.0000      -0.488196       -13.2845 
 134   2.0000      -0.485234       -13.2039 
 135   2.0000      -0.481349       -13.0982 
 136   2.0000      -0.479319       -13.0429 
 137   2.0000      -0.473719       -12.8906 
 138   2.0000      -0.469386       -12.7726 
 139   2.0000      -0.459303       -12.4983 
 140   2.0000      -0.455911       -12.4060 
 141   2.0000      -0.448371       -12.2008 
 142   2.0000      -0.444401       -12.0928 
 143   2.0000      -0.443450       -12.0669 
 144   2.0000      -0.441965       -12.0265 
 145   2.0000      -0.441014       -12.0006 
 146   2.0000      -0.440297       -11.9811 
 147   2.0000      -0.438102       -11.9214 
 148   2.0000      -0.436269       -11.8715 
 149   2.0000      -0.435161       -11.8413 
 150   2.0000      -0.434116       -11.8129 
 151   2.0000      -0.432688       -11.7740 
 152   2.0000      -0.431014       -11.7285 
 153   2.0000      -0.426933       -11.6174 
 154   2.0000      -0.423269       -11.5177 
 155   2.0000      -0.420205       -11.4344 
 156   2.0000      -0.417106       -11.3500 
 157   2.0000      -0.415164       -11.2972 
 158   2.0000      -0.412790       -11.2326 
 159   2.0000      -0.410329       -11.1656 
 160   2.0000      -0.406001       -11.0478 
 161   2.0000      -0.403811       -10.9883 
 162   2.0000      -0.403206       -10.9718 
 163   2.0000      -0.402777       -10.9601 
 164   2.0000      -0.402036       -10.9400 
 165   2.0000      -0.399561       -10.8726 
 166   2.0000      -0.399173       -10.8621 
 167   2.0000      -0.397969       -10.8293 
 168   2.0000      -0.395638       -10.7659 
 169   2.0000      -0.393304       -10.7023 
 170   2.0000      -0.392634       -10.6841 
 171   2.0000      -0.390404       -10.6234 
 172   2.0000      -0.385722       -10.4960 
 173   2.0000      -0.383424       -10.4335 
 174   2.0000      -0.382819       -10.4170 
 175   2.0000      -0.380747       -10.3606 
 176   2.0000      -0.376640       -10.2489 
 177   2.0000      -0.374323       -10.1858 
 178   2.0000      -0.373272       -10.1573 
 179   2.0000      -0.369834       -10.0637 
 180   2.0000      -0.368643       -10.0313 
 181   2.0000      -0.368327       -10.0227 
 182   2.0000      -0.364553        -9.9200 
 183   2.0000      -0.363701        -9.8968 
 184   2.0000      -0.363215        -9.8836 
 185   2.0000      -0.359754        -9.7894 
 186   2.0000      -0.359206        -9.7745 
 187   2.0000      -0.357382        -9.7249 
 188   2.0000      -0.357039        -9.7155 
 189   2.0000      -0.355599        -9.6763 
 190   2.0000      -0.353666        -9.6237 
 191   2.0000      -0.352205        -9.5840 
 192   2.0000      -0.344113        -9.3638 
 193   2.0000      -0.343106        -9.3364 
 194   2.0000      -0.341655        -9.2969 
 195   2.0000      -0.340254        -9.2588 
 196   2.0000      -0.338833        -9.2201 
 197   2.0000      -0.334316        -9.0972 
 198   2.0000      -0.329577        -8.9682 
 199   2.0000      -0.328522        -8.9395 
 200   2.0000      -0.314942        -8.5700 
 201   2.0000      -0.298122        -8.1123 
 202   2.0000      -0.295243        -8.0340 
 203   2.0000      -0.294219        -8.0061 
 204   2.0000      -0.288166        -7.8414 
 205   2.0000      -0.268822        -7.3150 
 206   2.0000      -0.254163        -6.9161 
 207   2.0000      -0.239828        -6.5260 
 208   2.0000      -0.220898        -6.0109 
 209   0.0000      -0.144073        -3.9204 
 210   0.0000      -0.129227        -3.5164 
 211   0.0000      -0.082599        -2.2476 
 212   0.0000      -0.060775        -1.6538 
 213   0.0000      -0.056797        -1.5455 
 214   0.0000      -0.046964        -1.2780 
 215   0.0000      -0.040671        -1.1067 
 216   0.0000      -0.030060        -0.8180 
 217   0.0000      -0.028978        -0.7885 
 218   0.0000      -0.027437        -0.7466 
 219   0.0000      -0.017971        -0.4890 
 220   0.0000      -0.016828        -0.4579 
 221   0.0000      -0.016317        -0.4440 
 222   0.0000      -0.007390        -0.2011 
 223   0.0000      -0.006456        -0.1757 
 224   0.0000       0.001411         0.0384 
 225   0.0000       0.009587         0.2609 
 226   0.0000       0.013078         0.3559 
 227   0.0000       0.014763         0.4017 
 228   0.0000       0.015559         0.4234 
 229   0.0000       0.021089         0.5739 
 230   0.0000       0.024153         0.6572 
 231   0.0000       0.025774         0.7014 
 232   0.0000       0.027875         0.7585 
 233   0.0000       0.030437         0.8282 
 234   0.0000       0.033480         0.9110 
 235   0.0000       0.037022         1.0074 
 236   0.0000       0.037567         1.0222 
 237   0.0000       0.038860         1.0574 
 238   0.0000       0.039341         1.0705 
 239   0.0000       0.040280         1.0961 
 240   0.0000       0.041764         1.1365 
 241   0.0000       0.044240         1.2038 
 242   0.0000       0.045766         1.2453 
 243   0.0000       0.049126         1.3368 
 244   0.0000       0.052316         1.4236 
 245   0.0000       0.053594         1.4584 
 246   0.0000       0.055542         1.5114 
 247   0.0000       0.056484         1.5370 
 248   0.0000       0.058064         1.5800 
 249   0.0000       0.064310         1.7500 
 250   0.0000       0.065763         1.7895 
 251   0.0000       0.068330         1.8593 
 252   0.0000       0.068609         1.8670 
 253   0.0000       0.070780         1.9260 
 254   0.0000       0.072101         1.9620 
 255   0.0000       0.075095         2.0434 
 256   0.0000       0.075806         2.0628 
 257   0.0000       0.078664         2.1405 
 258   0.0000       0.080774         2.1980 
 259   0.0000       0.084195         2.2911 
 260   0.0000       0.085722         2.3326 
 261   0.0000       0.086282         2.3479 
 262   0.0000       0.087065         2.3692 
 263   0.0000       0.090682         2.4676 
 264   0.0000       0.092264         2.5106 
 265   0.0000       0.092413         2.5147 
 266   0.0000       0.093733         2.5506 
 267   0.0000       0.094753         2.5784 
 268   0.0000       0.096404         2.6233 
 269   0.0000       0.097520         2.6536 
 270   0.0000       0.099684         2.7126 
 271   0.0000       0.102841         2.7984 
 272   0.0000       0.103472         2.8156 
 273   0.0000       0.105369         2.8672 
 274   0.0000       0.106213         2.8902 
 275   0.0000       0.107712         2.9310 
 276   0.0000       0.108305         2.9471 
 277   0.0000       0.110900         3.0178 
 278   0.0000       0.119656         3.2560 
 279   0.0000       0.120360         3.2752 
 280   0.0000       0.124828         3.3967 
 281   0.0000       0.125251         3.4082 
 282   0.0000       0.126927         3.4539 
 283   0.0000       0.128245         3.4897 
 284   0.0000       0.129585         3.5262 
 285   0.0000       0.130198         3.5429 
 286   0.0000       0.132186         3.5970 
 287   0.0000       0.132960         3.6180 
 288   0.0000       0.133548         3.6340 
 289   0.0000       0.135017         3.6740 
 290   0.0000       0.136865         3.7243 
 291   0.0000       0.140333         3.8186 
 292   0.0000       0.142217         3.8699 
 293   0.0000       0.145478         3.9586 
 294   0.0000       0.147631         4.0172 
 295   0.0000       0.148647         4.0449 
 296   0.0000       0.150353         4.0913 
 297   0.0000       0.153347         4.1728 
 298   0.0000       0.153914         4.1882 
 299   0.0000       0.155243         4.2244 
 300   0.0000       0.156968         4.2713 
 301   0.0000       0.157977         4.2988 
 302   0.0000       0.160628         4.3709 
[...]
   208a -> 213a  :     0.011082 (c= -0.10527218)
   208a -> 218a  :     0.171030 (c= -0.41355824)

STATE 43:  E=   0.185036 au      5.035 eV    40610.7 cm**-1
   193a -> 209a  :     0.018464 (c=  0.13588355)
   194a -> 209a  :     0.624729 (c=  0.79039806)
   194a -> 210a  :     0.067557 (c= -0.25991725)
   197a -> 209a  :     0.049547 (c=  0.22259065)
   200a -> 210a  :     0.011686 (c=  0.10810103)
   202a -> 211a  :     0.031565 (c= -0.17766454)
   206a -> 212a  :     0.012661 (c=  0.11252122)
   207a -> 212a  :     0.021968 (c=  0.14821534)
   208a -> 218a  :     0.035326 (c=  0.18795117)
   208a -> 219a  :     0.010550 (c= -0.10271349)
   208a -> 220a  :     0.020250 (c=  0.14230407)
   208a -> 221a  :     0.014764 (c=  0.12150632)

STATE 44:  E=   0.186019 au      5.062 eV    40826.4 cm**-1
   193a -> 209a  :     0.754660 (c=  0.86871190)
   193a -> 210a  :     0.094076 (c=  0.30671871)
   194a -> 209a  :     0.019648 (c= -0.14017229)
   206a -> 212a  :     0.022924 (c=  0.15140658)
   207a -> 214a  :     0.012778 (c= -0.11303897)
   208a -> 220a  :     0.010067 (c=  0.10033412)

STATE 45:  E=   0.187736 au      5.109 eV    41203.3 cm**-1
   193a -> 209a  :     0.078291 (c=  0.27980612)
   194a -> 209a  :     0.014877 (c=  0.12197096)
   197a -> 210a  :     0.011311 (c=  0.10635119)
   198a -> 210a  :     0.011946 (c=  0.10929642)
   199a -> 210a  :     0.017915 (c=  0.13384520)
   203a -> 211a  :     0.043154 (c=  0.20773630)
   205a -> 211a  :     0.017452 (c= -0.13210789)
   206a -> 212a  :     0.177601 (c= -0.42142707)
   207a -> 214a  :     0.172186 (c=  0.41495285)
   207a -> 215a  :     0.044907 (c=  0.21191213)
   208a -> 215a  :     0.010510 (c= -0.10252067)
   208a -> 219a  :     0.064616 (c=  0.25419644)
   208a -> 220a  :     0.108303 (c= -0.32909383)
   208a -> 221a  :     0.054386 (c= -0.23320699)

STATE 46:  E=   0.187984 au      5.115 eV    41257.6 cm**-1
   187a -> 209a  :     0.015412 (c= -0.12414420)
   188a -> 209a  :     0.066978 (c= -0.25880097)
   188a -> 210a  :     0.025718 (c=  0.16036859)
   190a -> 209a  :     0.024096 (c=  0.15522880)
   196a -> 209a  :     0.033520 (c=  0.18308419)
   199a -> 209a  :     0.171481 (c= -0.41410212)
   199a -> 210a  :     0.586722 (c= -0.76597797)

STATE 47:  E=   0.188804 au      5.138 eV    41437.6 cm**-1
   185a -> 209a  :     0.012281 (c= -0.11081843)
   198a -> 209a  :     0.078832 (c=  0.28076990)
   198a -> 210a  :     0.269131 (c= -0.51877819)
   200a -> 210a  :     0.014213 (c= -0.11921641)
   204a -> 211a  :     0.027631 (c=  0.16622682)
   205a -> 212a  :     0.031560 (c= -0.17765176)
   206a -> 212a  :     0.020465 (c= -0.14305762)
   207a -> 214a  :     0.023017 (c=  0.15171297)
   207a -> 215a  :     0.364663 (c= -0.60387304)
   208a -> 220a  :     0.010621 (c= -0.10305936)

STATE 48:  E=   0.188917 au      5.141 eV    41462.5 cm**-1
   185a -> 209a  :     0.012987 (c= -0.11395866)
   197a -> 209a  :     0.013330 (c=  0.11545571)
   198a -> 209a  :     0.111716 (c=  0.33423975)
   198a -> 210a  :     0.406635 (c= -0.63767961)
   200a -> 210a  :     0.014101 (c=  0.11874965)
   204a -> 211a  :     0.022924 (c= -0.15140811)
   205a -> 212a  :     0.030744 (c=  0.17534037)
   207a -> 215a  :     0.293672 (c=  0.54191548)

STATE 49:  E=   0.189295 au      5.151 eV    41545.5 cm**-1
   186a -> 209a  :     0.019846 (c= -0.14087716)
   190a -> 209a  :     0.011618 (c=  0.10778622)
   190a -> 210a  :     0.011478 (c= -0.10713594)
   191a -> 209a  :     0.834934 (c=  0.91374747)
   191a -> 210a  :     0.026979 (c=  0.16425282)
   192a -> 210a  :     0.024609 (c= -0.15687124)
   199a -> 210a  :     0.011368 (c=  0.10662313)

STATE 50:  E=   0.189583 au      5.159 eV    41608.7 cm**-1
   187a -> 209a  :     0.027512 (c=  0.16586881)
   188a -> 209a  :     0.063109 (c=  0.25121434)
   188a -> 210a  :     0.031901 (c= -0.17860948)
   189a -> 209a  :     0.036016 (c=  0.18977754)
   190a -> 209a  :     0.589148 (c= -0.76755973)
   190a -> 210a  :     0.035894 (c=  0.18945747)
   191a -> 209a  :     0.019270 (c=  0.13881808)
   191a -> 210a  :     0.013499 (c=  0.11618394)
   196a -> 209a  :     0.013283 (c= -0.11525152)
   199a -> 210a  :     0.104449 (c= -0.32318516)


-----------------------------
TD-DFT/TDA-EXCITATION SPECTRA
-----------------------------

Center of mass = (  3.0005,  0.7800,  0.1273)
Calculating the Dipole integrals                  ... done
Transforming integrals                            ... done
Calculating the Linear Momentum integrals         ... done
Transforming integrals                            ... done
Calculating angular momentum integrals            ... done
Transforming integrals                            ... done

-----------------------------------------------------------------------------
         ABSORPTION SPECTRUM VIA TRANSITION ELECTRIC DIPOLE MOMENTS
-----------------------------------------------------------------------------
State   Energy    Wavelength  fosc         T2        TX        TY        TZ  
        (cm-1)      (nm)                 (au**2)    (au)      (au)      (au) 
-----------------------------------------------------------------------------
   1   16307.6    613.2   3.631813862  73.31767  -7.38936  -4.32455  -0.11530
   2   18392.5    543.7   0.027569906   0.49348   0.59392   0.35397   0.12430
   3   22118.2    452.1   0.062422497   0.92911   0.71243   0.15501  -0.63050
   4   22302.0    448.4   0.189989822   2.80454   1.45787   0.73259   0.37744
   5   23319.3    428.8   0.287206836   4.05467   1.33674   1.50481  -0.05788
   6   25682.2    389.4   0.003682269   0.04720  -0.16173  -0.10845   0.09634
   7   26358.6    379.4   0.037828884   0.47247  -0.18312  -0.15889  -0.64319
   8   28155.7    355.2   0.144462372   1.68913   1.29708   0.08179  -0.00626
   9   28367.6    352.5   0.041573137   0.48247  -0.58966  -0.36491   0.04014
  10   29045.1    344.3   0.021151353   0.23974   0.38821   0.29722  -0.02633
  11   30090.3    332.3   0.005581353   0.06106   0.04862   0.21745  -0.10684
  12   30573.9    327.1   0.036471620   0.39272  -0.07081   0.62264   0.00479
  13   31461.6    317.8   0.000616751   0.00645   0.02418   0.01509  -0.07511
  14   32121.5    311.3   0.005879088   0.06025   0.16152   0.16508  -0.08315
  15   32400.7    308.6   0.131218497   1.33326  -0.82486  -0.80792   0.01158
  16   32829.8    304.6   0.001875050   0.01880  -0.13402  -0.01457   0.02507
  17   33073.3    302.4   0.027436219   0.27310   0.32980   0.40456  -0.02579
  18   33449.8    299.0   0.069787599   0.68685   0.34449   0.75376   0.00486
  19   33637.0    297.3   0.141264400   1.38258  -0.37412  -1.11334   0.05558
  20   34743.9    287.8   0.001227488   0.01163  -0.00567   0.00249   0.10767
  21   35233.7    283.8   0.026671514   0.24921   0.48558   0.05507  -0.10192
  22   36212.1    276.2   0.001779208   0.01618  -0.12337  -0.02511   0.01800
  23   36247.6    275.9   0.005664798   0.05145  -0.19714   0.04232   0.10389
  24   36293.7    275.5   0.008485872   0.07697   0.27323   0.04316   0.02131
  25   36434.8    274.5   0.007091320   0.06407  -0.18822   0.14737  -0.08325
  26   36626.0    273.0   0.000893828   0.00803   0.07010   0.05453  -0.01209
  27   36801.8    271.7   0.007987225   0.07145  -0.17880  -0.19849   0.00911
  28   36933.5    270.8   0.003548798   0.03163   0.14585  -0.09654   0.03226
  29   37135.6    269.3   0.000877828   0.00778   0.04601  -0.01142   0.07440
  30   37285.9    268.2   0.002144973   0.01894   0.11845   0.03223   0.06220
  31   38700.2    258.4   0.050659085   0.43094   0.14262   0.63971   0.03700
  32   38731.9    258.2   0.000149483   0.00127  -0.01633  -0.03100  -0.00654
  33   38885.0    257.2   0.007780877   0.06588  -0.19532  -0.16602   0.01271
  34   38988.7    256.5   0.003963238   0.03346   0.14969   0.10275  -0.02234
  35   39266.5    254.7   0.000674575   0.00566  -0.04178   0.02255   0.05832
  36   39531.3    253.0   0.000126602   0.00105   0.02145  -0.00068  -0.02437
  37   39688.5    252.0   0.000547031   0.00454   0.01820   0.06446   0.00719
  38   39816.9    251.1   0.000867966   0.00718   0.01676   0.08264  -0.00811
  39   40059.6    249.6   0.001053895   0.00866  -0.01776   0.08048  -0.04322
  40   40362.7    247.8   0.067108390   0.54736  -0.19025   0.71383   0.04017
  41   40460.9    247.2   0.029757818   0.24213   0.26906  -0.37669  -0.16683
  42   40506.1    246.9   0.014463289   0.11755  -0.00096  -0.31345  -0.13891
  43   40610.7    246.2   0.019023661   0.15422   0.17248   0.32200   0.14415
  44   40826.4    244.9   0.007518586   0.06063  -0.20757  -0.03842   0.12675
  45   41203.3    242.7   0.014943396   0.11940  -0.25179  -0.17423   0.16013
  46   41257.6    242.4   0.002246072   0.01792  -0.11247  -0.07200  -0.00941
  47   41437.6    241.3   0.054163458   0.43032   0.54154   0.36923  -0.02681
  48   41462.5    241.2   0.028557862   0.22675  -0.38785  -0.26841   0.06538
  49   41545.5    240.7   0.000304203   0.00241   0.03059   0.02613   0.02814
  50   41608.7    240.3   0.001394092   0.01103   0.05308  -0.03042   0.08536

-----------------------------------------------------------------------------
         ABSORPTION SPECTRUM VIA TRANSITION VELOCITY DIPOLE MOMENTS
-----------------------------------------------------------------------------
State   Energy    Wavelength   fosc        P2         PX        PY        PZ  
        (cm-1)      (nm)                 (au**2)     (au)      (au)      (au) 
-----------------------------------------------------------------------------
   1   16307.6    613.2   0.968827187   0.10798   0.31296   0.09835  -0.01909
   2   18392.5    543.7   0.008056285   0.00101  -0.03016  -0.01014   0.00064
   3   22118.2    452.1   0.026562263   0.00402  -0.05438  -0.02786   0.01679
   4   22302.0    448.4   0.106046984   0.01616  -0.11274  -0.05795  -0.00976
   5   23319.3    428.8   0.089549906   0.01427  -0.10510  -0.05630   0.00748
   6   25682.2    389.4   0.001258085   0.00022   0.01215   0.00553  -0.00652
   7   26358.6    379.4   0.005986322   0.00108   0.01380   0.00530   0.02933
   8   28155.7    355.2   0.088599912   0.01705  -0.09060  -0.09395   0.00365
   9   28367.6    352.5   0.025813206   0.00500   0.07073  -0.00156  -0.00029
  10   29045.1    344.3   0.057188684   0.01135  -0.03994  -0.09867  -0.00456
  11   30090.3    332.3   0.007509693   0.00154  -0.03533   0.01707  -0.00224
  12   30573.9    327.1   0.051462815   0.01075  -0.08305   0.06174  -0.00669
  13   31461.6    317.8   0.000294953   0.00006  -0.00395  -0.00307   0.00619
  14   32121.5    311.3   0.004858194   0.00107  -0.02452  -0.02125   0.00371
  15   32400.7    308.6   0.154869589   0.03429   0.13219   0.12964   0.00380
  16   32829.8    304.6   0.003249443   0.00073   0.02134   0.01646  -0.00170
  17   33073.3    302.4   0.010887383   0.00246   0.00457  -0.04913   0.00514
  18   33449.8    299.0   0.020582930   0.00471  -0.04579  -0.05096  -0.00350
  19   33637.0    297.3   0.048475421   0.01114   0.09263   0.05064  -0.00005
  20   34743.9    287.8   0.000348484   0.00008   0.00311  -0.00222  -0.00825
  21   35233.7    283.8   0.014471412   0.00348  -0.03517  -0.04732  -0.00296
  22   36212.1    276.2   0.000077113   0.00002   0.00410   0.00146   0.00038
  23   36247.6    275.9   0.000496541   0.00012  -0.00347  -0.00667  -0.00815
  24   36293.7    275.5   0.000596107   0.00015  -0.00742  -0.00947  -0.00178
  25   36434.8    274.5   0.003160423   0.00079  -0.02484  -0.01296   0.00132
  26   36626.0    273.0   0.002179915   0.00055  -0.01125  -0.00551  -0.01972
  27   36801.8    271.7   0.005241064   0.00132   0.03064   0.01915  -0.00357
  28   36933.5    270.8   0.000589624   0.00015   0.00415   0.00153  -0.01137
  29   37135.6    269.3   0.000102504   0.00003  -0.00358  -0.00363   0.00017
  30   37285.9    268.2   0.000372500   0.00009  -0.00796  -0.00438   0.00352
  31   38700.2    258.4   0.001012316   0.00027   0.00014  -0.01618  -0.00242
  32   38731.9    258.2   0.000040787   0.00001   0.00072  -0.00057   0.00315
  33   38885.0    257.2   0.012391440   0.00329   0.03952   0.04145  -0.00360
  34   38988.7    256.5   0.004968272   0.00132  -0.02607  -0.02538  -0.00024
  35   39266.5    254.7   0.000516379   0.00014   0.00107  -0.00846  -0.00811
  36   39531.3    253.0   0.000331000   0.00009  -0.00124  -0.00022  -0.00937
  37   39688.5    252.0   0.000537000   0.00015  -0.00013  -0.00219   0.01187
  38   39816.9    251.1   0.000510174   0.00014  -0.00424  -0.00414  -0.01018
  39   40059.6    249.6   0.000102903   0.00003   0.00144   0.00333   0.00388
  40   40362.7    247.8   0.000286211   0.00008  -0.00290   0.00309   0.00781
  41   40460.9    247.2   0.000927072   0.00026  -0.01288  -0.00629   0.00714
  42   40506.1    246.9   0.002005192   0.00056   0.02288  -0.00553   0.00099
  43   40610.7    246.2   0.000281277   0.00008  -0.00564  -0.00585  -0.00347
  44   40826.4    244.9   0.000096891   0.00003   0.00005   0.00455   0.00252
  45   41203.3    242.7   0.003979206   0.00112   0.02300   0.02330  -0.00699
  46   41257.6    242.4   0.001029616   0.00029   0.01271   0.01128   0.00126
  47   41437.6    241.3   0.020034026   0.00567  -0.05889  -0.04680  -0.00381
  48   41462.5    241.2   0.008321290   0.00236   0.03656   0.03194   0.00109
  49   41545.5    240.7   0.000086882   0.00002  -0.00339  -0.00322   0.00168
  50   41608.7    240.3   0.000294941   0.00008  -0.00736  -0.00543   0.00050

-------------------------------------------------------------------
                             CD SPECTRUM
-------------------------------------------------------------------
State  Energy     Wavelength     R         MX        MY        MZ   
       (cm-1)       (nm)     (1e40*cgs)   (au)      (au)      (au)  
-------------------------------------------------------------------
   1   16307.6    613.2    -94.83044  -0.22575   0.43067   0.05956
   2   18392.5    543.7     -1.52825   0.01508  -0.02923  -0.01492
   3   22118.2    452.1    -38.69937   0.13355  -0.22207   0.22650
   4   22302.0    448.4    -50.27985  -0.00968  -0.04478  -0.15828
   5   23319.3    428.8    -19.23627   0.12068  -0.13368   0.01646
   6   25682.2    389.4     -1.24229  -0.04255   0.05459  -0.03733
   7   26358.6    379.4     58.49074   0.08756  -0.10302  -0.19237
   8   28155.7    355.2     37.11887   0.06844  -0.12321  -0.00603
   9   28367.6    352.5    -11.07803  -0.01586   0.09160   0.01444
  10   29045.1    344.3      5.47105   0.06092  -0.04061  -0.00101
  11   30090.3    332.3    -20.63588  -0.00154  -0.02410   0.35992
  12   30573.9    327.1     -3.22724  -0.01698  -0.01194  -0.12798
  13   31461.6    317.8     11.10678   0.03119  -0.01191  -0.30601
  14   32121.5    311.3      2.72208   0.02070  -0.03140  -0.09157
  15   32400.7    308.6    -14.23336  -0.08636   0.12553  -0.00055
  16   32829.8    304.6      1.89421  -0.02522   0.04463   0.05136
  17   33073.3    302.4      0.29876   0.04399  -0.04144  -0.11218
  18   33449.8    299.0     -3.35048   0.03684  -0.02784   0.24462
  19   33637.0    297.3    -16.90520  -0.06546   0.06116   0.13934
  20   34743.9    287.8      5.29274  -0.01335   0.00947   0.10335
  21   35233.7    283.8      5.54245   0.02743  -0.03942  -0.00595
  22   36212.1    276.2     -2.48872   0.04774   0.03064   0.07669
  23   36247.6    275.9     10.63671  -0.01806  -0.01099   0.18738
  24   36293.7    275.5      7.08644   0.05003  -0.01384   0.09187
  25   36434.8    274.5      1.85096   0.06332   0.01510  -0.16359
  26   36626.0    273.0     -1.39006  -0.01500  -0.02601   0.03962
  27   36801.8    271.7     -0.83683  -0.00609   0.01364  -0.01712
  28   36933.5    270.8     -3.27086  -0.00759   0.04450  -0.04759
  29   37135.6    269.3     -1.97563   0.03235  -0.02443  -0.08008
  30   37285.9    268.2     -0.16428   0.01825  -0.01564  -0.03226
  31   38700.2    258.4      5.22163  -0.02207   0.02210   0.00227
  32   38731.9    258.2      0.49035  -0.03311  -0.01642   0.00146
  33   38885.0    257.2      2.32160  -0.04177   0.02284   0.04384
  34   38988.7    256.5     -3.11280  -0.00833  -0.04962   0.01148
  35   39266.5    254.7      5.66487   0.00306  -0.03512   0.22180
  36   39531.3    253.0      2.61297   0.19762  -0.22432  -0.04727
  37   39688.5    252.0     -4.76538   0.13196  -0.17580  -0.16374
  38   39816.9    251.1     -0.04616   0.00217  -0.00218  -0.00568
  39   40059.6    249.6      0.35494   0.01169  -0.02372  -0.06639
  40   40362.7    247.8      7.18992  -0.03745   0.01759  -0.11029
  41   40460.9    247.2      8.90125  -0.02540   0.01730  -0.19319
  42   40506.1    246.9      3.16321   0.00063   0.01004  -0.07097
  43   40610.7    246.2      1.60911   0.00000  -0.00015   0.02402
  44   40826.4    244.9     -1.29909  -0.03335   0.00799  -0.07393
  45   41203.3    242.7     24.97102  -0.01319   0.01137   0.32241
  46   41257.6    242.4     -3.45168   0.04191   0.02845   0.05937
  47   41437.6    241.3      4.74460   0.07880  -0.07673   0.15970
  48   41462.5    241.2    -19.37103   0.04709   0.06677  -0.07498
  49   41545.5    240.7     -2.91846  -0.16789  -0.03989  -0.00042
  50   41608.7    240.3     -1.89567  -0.00120   0.01692  -0.04033

Total run time:    20661.617 sec

           *** ORCA-CIS/TD-DFT FINISHED WITHOUT ERROR ***

-----------------------
CIS/TD-DFT TOTAL ENERGY
-----------------------

    E(SCF)  =  -3127.753220609 Eh
    DE(CIS) =      0.074302977 Eh (Root  1)
    ----------------------------- ---------
    E(tot)  =  -3127.678917632 Eh


-------------------------   --------------------
FINAL SINGLE POINT ENERGY     -3127.678917632255
-------------------------   --------------------


                            ***************************************
                            *     ORCA property calculations      *
                            ***************************************

                                    ---------------------
                                    Active property flags
                                    ---------------------
   (+) Dipole Moment


------------------------------------------------------------------------------
                       ORCA ELECTRIC PROPERTIES CALCULATION
------------------------------------------------------------------------------

Dipole Moment Calculation                       ... on
Quadrupole Moment Calculation                   ... off
Polarizability Calculation                      ... off
GBWName                                         ... IDTCF.gbw
Electron density file                           ... IDTCF.scfp
The origin for moment calculation is the CENTER OF MASS  = ( 3.000488,  0.780043  0.127275)

-------------
DIPOLE MOMENT
-------------
                                X             Y             Z
Electronic contribution:     -5.16700       2.74124       3.61042
Nuclear contribution   :      5.30128      -3.00063      -4.40021
                        -----------------------------------------
Total Dipole Moment    :      0.13429      -0.25938      -0.78979
                        -----------------------------------------
Magnitude (a.u.)       :      0.84207
Magnitude (Debye)      :      2.14038



--------------------
Rotational spectrum 
--------------------
 
Rotational constants in cm-1:     0.004318     0.000325     0.000312 
Rotational constants in MHz :   129.463166     9.738263     9.360710 

 Dipole components along the rotational axes: 
x,y,z [a.u.] :     0.000609    -0.371344    -0.755770 
x,y,z [Debye]:     0.001548    -0.943881    -1.921016 

 

Timings for individual modules:

Sum of individual times         ...    24179.267 sec (= 402.988 min)
GTO integral calculation        ...       14.239 sec (=   0.237 min)   0.1 %
SCF iterations                  ...     3502.574 sec (=  58.376 min)  14.5 %
CIS module                      ...    20662.453 sec (= 344.374 min)  85.5 %
                             ****ORCA TERMINATED NORMALLY****
TOTAL RUN TIME: 0 days 6 hours 43 minutes 0 seconds 838 msec
