
                                 *****************
                                 * O   R   C   A *
                                 *****************

           --- An Ab Initio, DFT and Semiempirical electronic structure package ---

                  #######################################################
                  #                        -***-                        #
                  #          Department of theory and spectroscopy      #
                  #               Directorship: Frank Neese             #
                  #        Max Planck Institute fuer Kohlenforschung    #
                  #                Kaiser Wilhelm Platz 1               #
                  #                 D-45470 Muelheim/Ruhr               #
                  #                      Germany                        #
                  #                                                     #
                  #                  All rights reserved                #
                  #                        -***-                        #
                  #######################################################


                         Program Version 4.2.0 -  RELEASE  -


 With contributions from (in alphabetic order):
   Daniel Aravena         : Magnetic Suceptibility
   Michael Atanasov       : Ab Initio Ligand Field Theory (pilot matlab implementation)
   Alexander A. Auer      : GIAO ZORA, VPT2
   Ute Becker             : Parallelization
   Giovanni Bistoni       : ED, misc. LED, open-shell LED, HFLED
   Martin Brehm           : Molecular dynamics
   Dmytro Bykov           : SCF Hessian
   Vijay G. Chilkuri      : MRCI spin determinant printing, contributions to CSF-ICE
   Dipayan Datta          : RHF DLPNO-CCSD density
   Achintya Kumar Dutta   : EOM-CC, STEOM-CC
   Dmitry Ganyushin       : Spin-Orbit,Spin-Spin,Magnetic field MRCI
   Miquel Garcia          : C-PCM Hessian, Gaussian charge scheme
   Yang Guo               : DLPNO-NEVPT2, CIM, IAO-localization
   Andreas Hansen         : Spin unrestricted coupled pair/coupled cluster methods
   Benjamin Helmich-Paris : CASSCF linear response (MC-RPA)
   Lee Huntington         : MR-EOM, pCC
   Robert Izsak           : Overlap fitted RIJCOSX, COSX-SCS-MP3, EOM
   Christian Kollmar      : KDIIS, OOCD, Brueckner-CCSD(T), CCSD density
   Simone Kossmann        : Meta GGA functionals, TD-DFT gradient, OOMP2, MP2 Hessian
   Martin Krupicka        : AUTO-CI
   Lucas Lang             : DCDCAS
   Dagmar Lenk            : GEPOL surface, SMD
   Dimitrios Liakos       : Extrapolation schemes; Compound Job, initial MDCI parallelization
   Dimitrios Manganas     : Further ROCIS development; embedding schemes
   Dimitrios Pantazis     : SARC Basis sets
   Taras Petrenko         : DFT Hessian,TD-DFT gradient, ASA, ECA, R-Raman, ABS, FL, XAS/XES, NRVS
   Peter Pinski           : DLPNO-MP2, DLPNO-MP2 Gradient
   Christoph Reimann      : Effective Core Potentials
   Marius Retegan         : Local ZFS, SOC
   Christoph Riplinger    : Optimizer, TS searches, QM/MM, DLPNO-CCSD(T), (RO)-DLPNO pert. Triples
   Tobias Risthaus        : Range-separated hybrids, TD-DFT gradient, RPA, STAB
   Michael Roemelt        : Original ROCIS implementation
   Masaaki Saitow         : Open-shell DLPNO-CCSD energy and density
   Barbara Sandhoefer     : DKH picture change effects
   Avijit Sen             : IP-ROCIS
   Kantharuban Sivalingam : CASSCF convergence, NEVPT2, FIC-MRCI
   Bernardo de Souza      : ESD, SOC TD-DFT
   Georgi Stoychev        : AutoAux, RI-MP2 NMR
   Willem Van den Heuvel  : Paramagnetic NMR
   Boris Wezisla          : Elementary symmetry handling
   Frank Wennmohs         : Technical directorship


 We gratefully acknowledge several colleagues who have allowed us to
 interface, adapt or use parts of their codes:
   Stefan Grimme, W. Hujo, H. Kruse,             : VdW corrections, initial TS optimization,
                  C. Bannwarth                     DFT functionals, gCP, sTDA/sTD-DF
   Ed Valeev, F. Pavosevic, A. Kumar             : LibInt (2-el integral package), F12 methods
   Garnet Chan, S. Sharma, J. Yang, R. Olivares  : DMRG
   Ulf Ekstrom                                   : XCFun DFT Library
   Mihaly Kallay                                 : mrcc  (arbitrary order and MRCC methods)
   Andreas Klamt, Michael Diedenhofen            : otool_cosmo (COSMO solvation model)
   Jiri Pittner, Ondrej Demel                    : Mk-CCSD
   Frank Weinhold                                : gennbo (NPA and NBO analysis)
   Christopher J. Cramer and Donald G. Truhlar   : smd solvation model
   Lars Goerigk                                  : TD-DFT with DH, B97 family of functionals
   V. Asgeirsson, H. Jonsson                     : NEB implementation
   FAccTs GmbH                                   : IRC, NEB, NEB-TS, Multilevel, MM, QM/MM, CI optimization
   S Lehtola, MJT Oliveira, MAL Marques          : LibXC Library


 Your calculation uses the libint2 library for the computation of 2-el integrals
 For citations please refer to: http://libint.valeyev.net

 Your ORCA version has been built with support for libXC version: 4.2.3
 For citations please refer to: https://tddft.org/programs/libxc/

 This ORCA versions uses:
   CBLAS   interface :  Fast vector & matrix operations
   LAPACKE interface :  Fast linear algebra routines
   SCALAPACK package :  Parallel linear algebra routines


----- Orbital basis set information -----
Your calculation utilizes the basis: def2-TZVP
   F. Weigend and R. Ahlrichs, Phys. Chem. Chem. Phys. 7, 3297 (2005).

----- AuxJ basis set information -----
Your calculation utilizes the auxiliary basis: def2/J
   F. Weigend, Phys. Chem. Chem. Phys. 8, 1057 (2006).

================================================================================
                                        WARNINGS
                       Please study these warnings very carefully!
================================================================================

INFO   : Checking CIS options ...

WARNING: CIS/ROCIS methods need fully converged wavefunctions
  ===> : Setting SCFConvForced true
         You can overwrite this default with %scf ConvForced false 


INFO   : the flag for use of LIBINT has been found!

================================================================================
                                       INPUT FILE
================================================================================
NAME = IT-4F.inp
|  1> # ORCA input file
|  2> # IT-4F.out
|  3> ! B3LYP def2-TZVP def2/J RIJCOSX Grid4 TightSCF
|  4> %maxcore 10000
|  5> %tddft
|  6>   maxdim 5
|  7>   nroots 50
|  8>   end
|  9> * xyz 0 1
| 10>    C        4.35038         0.98720        -3.06325
| 11>    O        5.25404         1.62410        -2.55495
| 12>    C        3.36203         1.50500        -4.03275
| 13>    C        3.26602         2.77660        -4.56156
| 14>    C        2.24646         3.01948        -5.46775
| 15>    F        2.11540         4.23709        -6.00809
| 16>    C        1.35611         2.00609        -5.82317
| 17>    F        0.38224         2.26758        -6.70196
| 18>    C        1.45304         0.72902        -5.28992
| 19>    C        2.47044         0.47754        -4.38277
| 20>    C        2.84316        -0.73805        -3.65596
| 21>    C        2.18390        -1.93663        -3.74246
| 22>    C        2.52066        -3.11965        -3.05084
| 23>    N        2.72039        -4.12374        -2.52950
| 24>    C        1.04950        -2.15883        -4.55260
| 25>    N        0.12734        -2.40918        -5.18824
| 26>    C        4.00975        -0.42301        -2.85561
| 27>    C        4.69058        -1.30535        -2.05137
| 28>    C        5.83418        -1.12649        -1.26434
| 29>    C        6.39690        -2.18491        -0.54140
| 30>    C        7.53322        -1.80760         0.14164
| 31>    C        7.86493        -0.44405        -0.03184
| 32>    S        6.74944         0.36532        -1.06010
| 33>    C        9.03536        -0.10621         0.64215
| 34>    C        9.86364         1.12875         0.87265
| 35>    C       10.41749         1.75192        -0.39327
| 36>    C       10.84148         3.07574        -0.38704
| 37>    C       11.37876         3.64126        -1.52472
| 38>    C       11.51290         2.91037        -2.70256
| 39>    C       12.09551         3.59678        -3.91013
| 40>    C       12.28216         2.71792        -5.13986
| 41>    C       11.09701         1.58761        -2.69785
| 42>    C       10.56177         1.01383        -1.55662
| 43>    C        8.98810         2.10913         1.63817
| 44>    C        8.01791         2.82231         0.94379
| 45>    C        7.16843         3.68099         1.61291
| 46>    C        7.26072         3.84745         2.98945
| 47>    C        6.36790         4.81767         3.70734
| 48>    C        7.00528         6.20845         3.73584
| 49>    C        8.22856         3.12854         3.67681
| 50>    C        9.07983         2.26265         3.01328
| 51>    C       11.00418         0.55716         1.69536
| 52>    C       10.79674        -0.81819         1.96235
| 53>    C        9.57777        -1.18868         1.31681
| 54>    S        8.67270        -2.65518         1.15502
| 55>    C       11.70420        -1.57136         2.70340
| 56>    C       12.83102        -0.92763         3.15733
| 57>    C       13.98590        -1.50827         3.95453
| 58>    C       13.62861        -1.86373         5.38876
| 59>    C       14.54921        -2.57223         6.15189
| 60>    C       14.28501        -2.86380         7.47523
| 61>    C       13.09947        -2.45318         8.07269
| 62>    C       12.79590        -2.81307         9.49794
| 63>    C       12.12504        -4.18646         9.57029
| 64>    C       12.18666        -1.74253         7.30619
| 65>    C       12.44778        -1.44251         5.98089
| 66>    C       14.55053        -2.70016         3.20596
| 67>    C       15.56536        -2.54710         2.27256
| 68>    C       16.04250        -3.63910         1.57099
| 69>    C       15.51481        -4.90627         1.77688
| 70>    C       16.00207        -6.08319         0.98260
| 71>    C       15.16173        -6.25509        -0.28440
| 72>    C       14.48867        -5.05093         2.70201
| 73>    C       14.01061        -3.96411         3.40807
| 74>    C       14.91162        -0.32342         4.01209
| 75>    C       14.33153         0.77931         3.40502
| 76>    C       13.05698         0.43768         2.85738
| 77>    C       12.14148         1.19528         2.13126
| 78>    S       15.30364         2.20960         3.44873
| 79>    C       16.53098         1.32231         4.30494
| 80>    C       16.16650        -0.02187         4.53230
| 81>    S       17.41480        -0.87159         5.34826
| 82>    C       18.40517         0.58398         5.41776
| 83>    C       17.77760         1.66113         4.80609
| 84>    C       19.69182         0.48706         5.97681
| 85>    C       20.56379         1.46998         6.35519
| 86>    C       20.41308         2.88115         6.61762
| 87>    C       19.28595         3.51700         7.07148
| 88>    C       19.22915         4.88960         7.38808
| 89>    N       19.12399         6.00428         7.64053
| 90>    C       18.07623         2.85145         7.35348
| 91>    N       17.08279         2.34578         7.62693
| 92>    C       21.75237         3.47329         6.58772
| 93>    C       22.16500         4.79503         6.62405
| 94>    C       23.52858         5.05000         6.61302
| 95>    F       23.95026         6.31904         6.63346
| 96>    C       24.46631         4.01750         6.57684
| 97>    F       25.77221         4.31016         6.57424
| 98>    C       24.05991         2.69300         6.53900
| 99>    C       22.70285         2.43869         6.53888
|100>    C       22.00574         1.13338         6.47034
|101>    O       22.50007         0.03050         6.46421
|102>    H        3.95770         3.55576        -4.28372
|103>    H        0.73954        -0.01670        -5.59923
|104>    H        4.30738        -2.31781        -2.01211
|105>    H        5.97662        -3.17457        -0.54132
|106>    H       10.73638         3.66932         0.50959
|107>    H       11.69962         4.67335        -1.50413
|108>    H       13.06270         4.02241        -3.62550
|109>    H       11.44425         4.43759        -4.16894
|110>    H       12.94434         1.88274        -4.92265
|111>    H       12.72482         3.30192        -5.94376
|112>    H       11.32803         2.33063        -5.48959
|113>    H       11.18457         0.98332        -3.58658
|114>    H       10.25276        -0.02132        -1.58149
|115>    H        7.93069         2.70666        -0.12664
|116>    H        6.41911         4.22550         1.05711
|117>    H        6.19871         4.47855         4.73128
|118>    H        5.40216         4.87515         3.20147
|119>    H        7.96408         6.17479         4.24843
|120>    H        6.35880         6.91263         4.25414
|121>    H        7.17112         6.56902         2.72314
|122>    H        8.31662         3.24111         4.74806
|123>    H        9.81874         1.70849         3.57358
|124>    H       11.52543        -2.61704         2.90012
|125>    H       15.47515        -2.90138         5.70221
|126>    H       15.01261        -3.41354         8.05446
|127>    H       12.13299        -2.06478         9.93632
|128>    H       13.72026        -2.83346        10.07833
|129>    H       11.19412        -4.18315         9.00748
|130>    H       11.90586        -4.44865        10.60256
|131>    H       12.77670        -4.94876         9.14903
|132>    H       11.25960        -1.41106         7.75176
|133>    H       11.72519        -0.87907         5.40877
|134>    H       15.98906        -1.57007         2.08963
|135>    H       16.83889        -3.50294         0.85339
|136>    H       15.93244        -6.99094         1.58527
|137>    H       17.04744        -5.93624         0.70438
|138>    H       14.11706        -6.41528        -0.02717
|139>    H       15.51281        -7.10787        -0.86046
|140>    H       15.22779        -5.36447        -0.90546
|141>    H       14.06181        -6.02831         2.87585
|142>    H       13.22141        -4.10017         4.13328
|143>    H       12.32966         2.23596         1.91771
|144>    H       18.23326         2.62696         4.68555
|145>    H       20.09559        -0.51873         6.05018
|146>    H       21.47831         5.62545         6.65032
|147>    H       24.78324         1.89381         6.51040
|148> *
|149> 
|150>                          ****END OF INPUT****
================================================================================

                       ****************************
                       * Single Point Calculation *
                       ****************************

---------------------------------
CARTESIAN COORDINATES (ANGSTROEM)
---------------------------------
  C      4.350380    0.987200   -3.063250
  O      5.254040    1.624100   -2.554950
  C      3.362030    1.505000   -4.032750
  C      3.266020    2.776600   -4.561560
  C      2.246460    3.019480   -5.467750
  F      2.115400    4.237090   -6.008090
  C      1.356110    2.006090   -5.823170
  F      0.382240    2.267580   -6.701960
  C      1.453040    0.729020   -5.289920
  C      2.470440    0.477540   -4.382770
  C      2.843160   -0.738050   -3.655960
  C      2.183900   -1.936630   -3.742460
  C      2.520660   -3.119650   -3.050840
  N      2.720390   -4.123740   -2.529500
  C      1.049500   -2.158830   -4.552600
  N      0.127340   -2.409180   -5.188240
  C      4.009750   -0.423010   -2.855610
  C      4.690580   -1.305350   -2.051370
  C      5.834180   -1.126490   -1.264340
  C      6.396900   -2.184910   -0.541400
  C      7.533220   -1.807600    0.141640
  C      7.864930   -0.444050   -0.031840
  S      6.749440    0.365320   -1.060100
  C      9.035360   -0.106210    0.642150
  C      9.863640    1.128750    0.872650
  C     10.417490    1.751920   -0.393270
  C     10.841480    3.075740   -0.387040
  C     11.378760    3.641260   -1.524720
  C     11.512900    2.910370   -2.702560
  C     12.095510    3.596780   -3.910130
  C     12.282160    2.717920   -5.139860
  C     11.097010    1.587610   -2.697850
  C     10.561770    1.013830   -1.556620
  C      8.988100    2.109130    1.638170
  C      8.017910    2.822310    0.943790
  C      7.168430    3.680990    1.612910
  C      7.260720    3.847450    2.989450
  C      6.367900    4.817670    3.707340
  C      7.005280    6.208450    3.735840
  C      8.228560    3.128540    3.676810
  C      9.079830    2.262650    3.013280
  C     11.004180    0.557160    1.695360
  C     10.796740   -0.818190    1.962350
  C      9.577770   -1.188680    1.316810
  S      8.672700   -2.655180    1.155020
  C     11.704200   -1.571360    2.703400
  C     12.831020   -0.927630    3.157330
  C     13.985900   -1.508270    3.954530
  C     13.628610   -1.863730    5.388760
  C     14.549210   -2.572230    6.151890
  C     14.285010   -2.863800    7.475230
  C     13.099470   -2.453180    8.072690
  C     12.795900   -2.813070    9.497940
  C     12.125040   -4.186460    9.570290
  C     12.186660   -1.742530    7.306190
  C     12.447780   -1.442510    5.980890
  C     14.550530   -2.700160    3.205960
  C     15.565360   -2.547100    2.272560
  C     16.042500   -3.639100    1.570990
  C     15.514810   -4.906270    1.776880
  C     16.002070   -6.083190    0.982600
  C     15.161730   -6.255090   -0.284400
  C     14.488670   -5.050930    2.702010
  C     14.010610   -3.964110    3.408070
  C     14.911620   -0.323420    4.012090
  C     14.331530    0.779310    3.405020
  C     13.056980    0.437680    2.857380
  C     12.141480    1.195280    2.131260
  S     15.303640    2.209600    3.448730
  C     16.530980    1.322310    4.304940
  C     16.166500   -0.021870    4.532300
  S     17.414800   -0.871590    5.348260
  C     18.405170    0.583980    5.417760
  C     17.777600    1.661130    4.806090
  C     19.691820    0.487060    5.976810
  C     20.563790    1.469980    6.355190
  C     20.413080    2.881150    6.617620
  C     19.285950    3.517000    7.071480
  C     19.229150    4.889600    7.388080
  N     19.123990    6.004280    7.640530
  C     18.076230    2.851450    7.353480
  N     17.082790    2.345780    7.626930
  C     21.752370    3.473290    6.587720
  C     22.165000    4.795030    6.624050
  C     23.528580    5.050000    6.613020
  F     23.950260    6.319040    6.633460
  C     24.466310    4.017500    6.576840
  F     25.772210    4.310160    6.574240
  C     24.059910    2.693000    6.539000
  C     22.702850    2.438690    6.538880
  C     22.005740    1.133380    6.470340
  O     22.500070    0.030500    6.464210
  H      3.957700    3.555760   -4.283720
  H      0.739540   -0.016700   -5.599230
  H      4.307380   -2.317810   -2.012110
  H      5.976620   -3.174570   -0.541320
  H     10.736380    3.669320    0.509590
  H     11.699620    4.673350   -1.504130
  H     13.062700    4.022410   -3.625500
  H     11.444250    4.437590   -4.168940
  H     12.944340    1.882740   -4.922650
  H     12.724820    3.301920   -5.943760
  H     11.328030    2.330630   -5.489590
  H     11.184570    0.983320   -3.586580
  H     10.252760   -0.021320   -1.581490
  H      7.930690    2.706660   -0.126640
  H      6.419110    4.225500    1.057110
  H      6.198710    4.478550    4.731280
  H      5.402160    4.875150    3.201470
  H      7.964080    6.174790    4.248430
  H      6.358800    6.912630    4.254140
  H      7.171120    6.569020    2.723140
  H      8.316620    3.241110    4.748060
  H      9.818740    1.708490    3.573580
  H     11.525430   -2.617040    2.900120
  H     15.475150   -2.901380    5.702210
  H     15.012610   -3.413540    8.054460
  H     12.132990   -2.064780    9.936320
  H     13.720260   -2.833460   10.078330
  H     11.194120   -4.183150    9.007480
  H     11.905860   -4.448650   10.602560
  H     12.776700   -4.948760    9.149030
  H     11.259600   -1.411060    7.751760
  H     11.725190   -0.879070    5.408770
  H     15.989060   -1.570070    2.089630
  H     16.838890   -3.502940    0.853390
  H     15.932440   -6.990940    1.585270
  H     17.047440   -5.936240    0.704380
  H     14.117060   -6.415280   -0.027170
  H     15.512810   -7.107870   -0.860460
  H     15.227790   -5.364470   -0.905460
  H     14.061810   -6.028310    2.875850
  H     13.221410   -4.100170    4.133280
  H     12.329660    2.235960    1.917710
  H     18.233260    2.626960    4.685550
  H     20.095590   -0.518730    6.050180
  H     21.478310    5.625450    6.650320
  H     24.783240    1.893810    6.510400

----------------------------
CARTESIAN COORDINATES (A.U.)
----------------------------
  NO LB      ZA    FRAG     MASS         X           Y           Z
   0 C     6.0000    0    12.011    8.221027    1.865538   -5.788704
   1 O     8.0000    0    15.999    9.928697    3.069104   -4.828156
   2 C     6.0000    0    12.011    6.353316    2.844038   -7.620793
   3 C     6.0000    0    12.011    6.171883    5.247014   -8.620099
   4 C     6.0000    0    12.011    4.245194    5.705990  -10.332550
   5 F     9.0000    0    18.998    3.997527    8.006940  -11.353645
   6 C     6.0000    0    12.011    2.562677    3.790961  -11.004197
   7 F     9.0000    0    18.998    0.722329    4.285105  -12.664869
   8 C     6.0000    0    12.011    2.745848    1.377648   -9.996500
   9 C     6.0000    0    12.011    4.668455    0.902420   -8.282235
  10 C     6.0000    0    12.011    5.372794   -1.394712   -6.908763
  11 C     6.0000    0    12.011    4.126973   -3.659700   -7.072224
  12 C     6.0000    0    12.011    4.763357   -5.895284   -5.765252
  13 N     7.0000    0    14.007    5.140792   -7.792739   -4.780062
  14 C     6.0000    0    12.011    1.983268   -4.079597   -8.603167
  15 N     7.0000    0    14.007    0.240638   -4.552690   -9.804353
  16 C     6.0000    0    12.011    7.577329   -0.799373   -5.396321
  17 C     6.0000    0    12.011    8.863912   -2.466754   -3.876527
  18 C     6.0000    0    12.011   11.025002   -2.128758   -2.389256
  19 C     6.0000    0    12.011   12.088389   -4.128882   -1.023098
  20 C     6.0000    0    12.011   14.235723   -3.415869    0.267661
  21 C     6.0000    0    12.011   14.862564   -0.839133   -0.060169
  22 S    16.0000    0    32.060   12.754593    0.690355   -2.003299
  23 C     6.0000    0    12.011   17.074356   -0.200708    1.213488
  24 C     6.0000    0    12.011   18.639578    2.133028    1.649070
  25 C     6.0000    0    12.011   19.686203    3.310649   -0.743173
  26 C     6.0000    0    12.011   20.487428    5.812306   -0.731400
  27 C     6.0000    0    12.011   21.502740    6.880984   -2.881303
  28 C     6.0000    0    12.011   21.756228    5.499802   -5.107098
  29 C     6.0000    0    12.011   22.857201    6.796929   -7.389075
  30 C     6.0000    0    12.011   23.209919    5.136124   -9.712928
  31 C     6.0000    0    12.011   20.970310    3.000148   -5.098198
  32 C     6.0000    0    12.011   19.958853    1.915861   -2.941585
  33 C     6.0000    0    12.011   16.985047    3.985678    3.095693
  34 C     6.0000    0    12.011   15.151654    5.333393    1.783505
  35 C     6.0000    0    12.011   13.546370    6.956063    3.047958
  36 C     6.0000    0    12.011   13.720772    7.270627    5.649242
  37 C     6.0000    0    12.011   12.033587    9.104077    7.005857
  38 C     6.0000    0    12.011   13.238061   11.732270    7.059714
  39 C     6.0000    0    12.011   15.549725    5.912084    6.948164
  40 C     6.0000    0    12.011   17.158392    4.275789    5.694274
  41 C     6.0000    0    12.011   20.794887    1.052880    3.203766
  42 C     6.0000    0    12.011   20.402882   -1.546155    3.708304
  43 C     6.0000    0    12.011   18.099362   -2.246280    2.488410
  44 S    16.0000    0    32.060   16.389028   -5.017563    2.182671
  45 C     6.0000    0    12.011   22.117733   -2.969440    5.108686
  46 C     6.0000    0    12.011   24.247114   -1.752967    5.966489
  47 C     6.0000    0    12.011   26.429521   -2.850217    7.472979
  48 C     6.0000    0    12.011   25.754340   -3.521939   10.183281
  49 C     6.0000    0    12.011   27.494022   -4.860810   11.625387
  50 C     6.0000    0    12.011   26.994757   -5.411798   14.126137
  51 C     6.0000    0    12.011   24.754411   -4.635838   15.255173
  52 C     6.0000    0    12.011   24.180747   -5.315932   17.948505
  53 C     6.0000    0    12.011   22.913005   -7.911263   18.085227
  54 C     6.0000    0    12.011   23.029450   -3.292904   13.806698
  55 C     6.0000    0    12.011   23.522895   -2.725949   11.302244
  56 C     6.0000    0    12.011   27.496517   -5.102563    6.058386
  57 C     6.0000    0    12.011   29.414268   -4.813321    4.294516
  58 C     6.0000    0    12.011   30.315932   -6.876902    2.968741
  59 C     6.0000    0    12.011   29.318742   -9.271507    3.357817
  60 C     6.0000    0    12.011   30.239530  -11.495563    1.856845
  61 C     6.0000    0    12.011   28.651517  -11.820407   -0.537438
  62 C     6.0000    0    12.011   27.379618   -9.544874    5.106059
  63 C     6.0000    0    12.011   26.476216   -7.491082    6.440319
  64 C     6.0000    0    12.011   28.178878   -0.611175    7.581751
  65 C     6.0000    0    12.011   27.082667    1.472682    6.434555
  66 C     6.0000    0    12.011   24.674116    0.827095    5.399666
  67 C     6.0000    0    12.011   22.944072    2.258752    4.027498
  68 S    16.0000    0    32.060   28.919688    4.175539    6.517155
  69 C     6.0000    0    12.011   31.239025    2.498804    8.135158
  70 C     6.0000    0    12.011   30.550258   -0.041328    8.564806
  71 S    16.0000    0    32.060   32.909203   -1.647066   10.106747
  72 C     6.0000    0    12.011   34.780731    1.103562   10.238083
  73 C     6.0000    0    12.011   33.594795    3.139081    9.082194
  74 C     6.0000    0    12.011   37.212147    0.920410   11.294534
  75 C     6.0000    0    12.011   38.859931    2.777860   12.009569
  76 C     6.0000    0    12.011   38.575131    5.444584   12.505489
  77 C     6.0000    0    12.011   36.445164    6.646167   13.363161
  78 C     6.0000    0    12.011   36.337827    9.240005   13.961448
  79 N     7.0000    0    14.007   36.139104   11.346445   14.438509
  80 C     6.0000    0    12.011   34.159124    5.388460   13.896063
  81 N     7.0000    0    14.007   32.281795    4.432882   14.412809
  82 C     6.0000    0    12.011   41.106022    6.563567   12.448987
  83 C     6.0000    0    12.011   41.885780    9.061294   12.517640
  84 C     6.0000    0    12.011   44.462573    9.543117   12.496797
  85 F     9.0000    0    18.998   45.259432   11.941255   12.535423
  86 C     6.0000    0    12.011   46.234625    7.591975   12.428426
  87 F     9.0000    0    18.998   48.702419    8.145022   12.423513
  88 C     6.0000    0    12.011   45.466641    5.089032   12.356919
  89 C     6.0000    0    12.011   42.902169    4.608456   12.356692
  90 C     6.0000    0    12.011   41.584822    2.141778   12.227171
  91 O     8.0000    0    15.999   42.518970    0.057637   12.215587
  92 H     1.0000    0     1.008    7.478969    6.719413   -8.095058
  93 H     1.0000    0     1.008    1.397528   -0.031558  -10.581011
  94 H     1.0000    0     1.008    8.139769   -4.380026   -3.802337
  95 H     1.0000    0     1.008   11.294175   -5.999068   -1.022947
  96 H     1.0000    0     1.008   20.288818    6.934010    0.962986
  97 H     1.0000    0     1.008   22.109078    8.831352   -2.842394
  98 H     1.0000    0     1.008   24.684926    7.601253   -6.851202
  99 H     1.0000    0     1.008   21.626498    8.385830   -7.878155
 100 H     1.0000    0     1.008   24.461258    3.557863   -9.302460
 101 H     1.0000    0     1.008   24.046425    6.239725  -11.232079
 102 H     1.0000    0     1.008   21.406874    4.404252  -10.373822
 103 H     1.0000    0     1.008   21.135774    1.858206   -6.777654
 104 H     1.0000    0     1.008   19.374909   -0.040289   -2.988583
 105 H     1.0000    0     1.008   14.986832    5.114846   -0.239315
 106 H     1.0000    0     1.008   12.130360    7.985038    1.997648
 107 H     1.0000    0     1.008   11.713864    8.463233    8.940823
 108 H     1.0000    0     1.008   10.208603    9.212698    6.049902
 109 H     1.0000    0     1.008   15.049930   11.668662    8.028369
 110 H     1.0000    0     1.008   12.016391   13.062978    8.039160
 111 H     1.0000    0     1.008   13.551453   12.413649    5.145989
 112 H     1.0000    0     1.008   15.716134    6.124810    8.972533
 113 H     1.0000    0     1.008   18.554730    3.228578    6.753088
 114 H     1.0000    0     1.008   21.779906   -4.945489    5.480433
 115 H     1.0000    0     1.008   29.243795   -5.482814   10.775615
 116 H     1.0000    0     1.008   28.369721   -6.450656   15.220724
 117 H     1.0000    0     1.008   22.928028   -3.901869   18.776924
 118 H     1.0000    0     1.008   25.927534   -5.354463   19.045284
 119 H     1.0000    0     1.008   21.153821   -7.905008   17.021670
 120 H     1.0000    0     1.008   22.498815   -8.406730   20.035935
 121 H     1.0000    0     1.008   24.144464   -9.351801   17.289161
 122 H     1.0000    0     1.008   21.277560   -2.666517   14.648703
 123 H     1.0000    0     1.008   22.157398   -1.661202   10.221094
 124 H     1.0000    0     1.008   30.214945   -2.967002    3.948828
 125 H     1.0000    0     1.008   31.820890   -6.619597    1.612673
 126 H     1.0000    0     1.008   30.107948  -13.210962    2.995726
 127 H     1.0000    0     1.008   32.214993  -11.217868    1.331085
 128 H     1.0000    0     1.008   26.677377  -12.123122   -0.051344
 129 H     1.0000    0     1.008   29.314962  -13.431928   -1.626034
 130 H     1.0000    0     1.008   28.776353  -10.137379   -1.711071
 131 H     1.0000    0     1.008   26.572970  -11.391855    5.434569
 132 H     1.0000    0     1.008   24.984844   -7.748198    7.810767
 133 H     1.0000    0     1.008   23.299681    4.225352    3.623947
 134 H     1.0000    0     1.008   34.455868    4.964235    8.854406
 135 H     1.0000    0     1.008   37.975162   -0.980258   11.433183
 136 H     1.0000    0     1.008   40.588124   10.630560   12.567284
 137 H     1.0000    0     1.008   46.833536    3.578782   12.302873

--------------------------------
INTERNAL COORDINATES (ANGSTROEM)
--------------------------------
 C      0   0   0     0.000000000000     0.00000000     0.00000000
 O      1   0   0     1.216803967614     0.00000000     0.00000000
 C      1   2   0     1.478134910115   125.95872863     0.00000000
 C      3   1   2     1.380516025333   128.34627721     0.74655093
 C      4   3   1     1.385522863074   117.59233593   179.65751724
 F      5   4   3     1.338550765306   119.70474220   180.09315013
 C      5   4   3     1.394993115037   120.59443821     0.02525652
 F      7   5   4     1.337561834496   119.34577628   180.10030475
 C      7   5   4     1.387320717174   121.74851412     0.03779881
 C      9   7   5     1.386097425472   118.02484167   359.95025815
 C     10   9   7     1.464524503926   131.46708461   180.23977878
 C     11  10   9     1.370656781984   124.89618634   359.10973780
 C     12  11  10     1.411127861818   125.97176767   180.17496838
 N     13  12  11     1.148862131241   175.27799970   179.05089878
 C     12  11  10     1.411581743860   124.08373386     0.08807602
 N     15  12  11     1.147646460239   176.33489162   178.74160800
 C     11  10   9     1.449393856824   107.36573598   179.12998238
 C     17  11  10     1.374356337381   125.61312973   181.72819551
 C     18  17  11     1.399724287315   130.67204062   178.39779421
 C     19  18  17     1.399838897302   121.47995230   181.99124303
 C     20  19  18     1.378451892559   112.35366558   178.57033612
 C     21  20  19     1.413999800919   113.36230083     0.50166237
 S     22  21  20     1.719510501451   112.02963858   359.80605530
 C     22  21  20     1.392230142828   111.82826715   181.57630983
 C     24  22  21     1.504760515830   137.39651952   181.82053267
 C     25  24  22     1.515798178453   114.24240364   299.03737295
 C     26  25  24     1.390073999973   119.94881030   160.59483276
 C     27  26  25     1.379419606646   120.36684855   178.32668788
 C     28  27  26     1.392659612863   121.32494049   359.93699352
 C     29  28  27     1.506259740251   118.43307599   179.39598622
 C     30  29  28     1.522980300267   115.57963262   176.84432114
 C     29  28  27     1.386607620706   117.96214695   359.58426101
 C     32  29  28     1.384958937622   120.92599571     0.15969308
 C     25  24  22     1.521097007557   106.81122137    62.74558519
 C     34  25  24     1.389984867867   118.75341099   282.29839686
 C     35  34  25     1.380821924507   120.42372270   177.37946000
 C     36  35  34     1.389636192426   120.90710790   359.78221469
 C     37  36  35     1.501272944171   120.77036684   177.83698303
 C     38  37  36     1.530141994326   110.40081935   271.66108748
 C     37  36  35     1.387807487838   118.35160756     0.00000000
 C     40  37  36     1.383726188919   121.04369643   359.77438704
 C     25  24  22     1.518024493808   100.81026724   181.80058063
 C     42  25  24     1.416298921909   110.96333437   356.81411059
 C     24  22  21     1.386043298241   112.03171630   359.77946049
 S     44  24  22     1.730881266581   114.30302967   359.79516103
 C     43  42  25     1.392804294580   122.00509072   180.09914169
 C     46  43  42     1.374832378947   117.15985776   359.17431791
 C     47  46  43     1.518689719462   128.13848198   181.38433098
 C     48  47  46     1.520205133724   113.94824313   289.61383133
 C     49  48  47     1.389907913101   118.78474842   171.09281271
 C     50  49  48     1.380595328291   120.47642883   177.22280271
 C     51  50  49     1.389630284500   120.86173121   359.78267576
 C     52  51  50     1.501004037136   120.65959763   177.88785566
 C     53  52  51     1.530192064481   110.41145356   273.46309930
 C     52  51  50     1.387720349566   118.36029959     0.00000000
 C     55  52  51     1.383696406297   121.06027728   359.72988505
 C     48  47  46     1.516497891162   108.93597643    55.04599780
 C     57  48  47     1.387278938246   121.18280514    89.49691614
 C     58  57  48     1.382869134987   120.43920419   181.86093865
 C     59  58  57     1.388008370688   120.96308725     0.39232190
 C     60  59  58     1.501147465241   120.92192041   177.96925673
 C     61  60  59     1.530035922977   110.36268045   269.30658453
 C     60  59  58     1.389156338250   118.33879911     0.31797116
 C     63  60  59     1.381390531168   120.93708167   359.51425964
 C     48  47  46     1.504706015971   100.76964526   175.38329517
 C     65  48  47     1.386020146282   110.62469719     2.96864261
 C     47  46  43     1.416015296598   120.81762190   358.97247602
 C     42  25  24     1.375011721550   128.20725405   174.84238235
 S     66  65  48     1.729924246983   114.30223749   178.70096196
 C     69  66  65     1.739753598588    89.26613381   359.96588447
 C     65  48  47     1.391500866331   137.71069198   180.90792695
 S     71  65  48     1.716411282298   136.57773330     3.79936531
 C     72  71  65     1.761915722105    91.06408692   179.28674857
 C     70  69  66     1.385644882104   133.46991423   180.01604057
 C     73  72  71     1.406200060944   118.23267605   182.87339484
 C     75  73  72     1.367345907845   130.08802424   192.28435544
 C     76  75  73     1.443254578340   133.36137070    16.69023075
 C     77  76  75     1.371392051530   126.82315997    28.64473030
 C     78  77  76     1.409784579289   123.97696301   175.84465709
 N     79  78  77     1.147737396141   177.04330447   160.34133614
 C     78  77  76     1.409220806297   123.55832762     0.00000000
 N     81  78  77     1.147780503842   177.12888334   144.20173891
 C     77  76  75     1.464657466338   107.22354338   196.80013172
 C     83  77  76     1.385128157753   131.12090677   171.67172012
 C     84  83  77     1.387256925807   117.90394113   178.44509985
 F     85  84  83     1.337420778065   118.95927570   179.31085194
 C     85  84  83     1.395242916234   121.65583460   359.52258254
 F     87  85  84     1.338294229831   119.60682802   180.33550405
 C     87  85  84     1.385962869488   120.71919439     0.55617936
 C     89  87  85     1.380682959299   117.66067927     0.00000000
 C     90  89  87     1.481382556870   128.66987708   178.37049389
 O     91  90  89     1.208612435895   127.72141551     3.80300801
 H      4   3   1     1.078288733874   121.48458088   359.73700971
 H      9   7   5     1.077428997429   118.71872572   180.03753520
 H     18  17  11     1.083263051710   116.48794994   359.33165789
 H     20  19  18     1.075203329794   122.60559141   359.06724237
 H     27  26  25     1.080429814148   119.81863206   357.43187195
 H     28  27  26     1.081011034079   119.42710460   179.73449272
 H     30  29  28     1.094363572996   108.09352341    54.37978539
 H     30  29  28     1.094570079894   108.02786648   299.19071265
 H     31  30  29     1.087744532921   110.88206595   300.55502365
 H     31  30  29     1.087777130482   109.68144639   181.13666014
 H     31  30  29     1.087505712123   110.95598390    61.78415785
 H     32  29  28     1.078273699299   120.49498341   180.16312035
 H     33  32  29     1.080574485864   119.23743961   180.42007287
 H     35  34  25     1.080186389379   119.76693339   357.14557326
 H     36  35  34     1.080224625946   119.39842697   180.12458617
 H     38  37  36     1.091824507007   109.86975460   151.12442557
 H     38  37  36     1.091724395120   109.78728597    32.13432489
 H     39  38  37     1.087740292395   110.35419982   300.05552226
 H     39  38  37     1.087400916314   110.47703568   179.90547748
 H     39  38  37     1.087692475151   110.33308952    59.74787323
 H     40  37  36     1.080741935431   119.59078207   180.12959841
 H     41  40  37     1.080285787975   119.54374907   180.53855346
 H     46  43  42     1.078936575383   120.87355233   179.68875706
 H     50  49  48     1.080701951742   119.62283765   356.84995526
 H     51  50  49     1.080334772420   119.50537288   180.13356424
 H     53  52  51     1.091588116736   109.86408391   152.87533975
 H     53  52  51     1.091654576228   109.75847704    33.92998931
 H     54  53  52     1.087831833787   110.36407574   300.07224842
 H     54  53  52     1.087366001584   110.46729552   179.92792649
 H     54  53  52     1.087760099103   110.36667679    59.77926201
 H     55  52  51     1.080668880555   119.57853617   180.17866330
 H     56  55  52     1.080241748915   119.61248328   180.63656273
 H     58  57  48     1.080542778329   120.03387636     1.89035843
 H     59  58  57     1.080613870770   119.45144276   180.48991112
 H     61  60  59     1.091819366150   109.82033151   148.88150597
 H     61  60  59     1.091695519731   109.88477610    29.87500633
 H     62  61  60     1.087733201617   110.37744659   300.23728822
 H     62  61  60     1.087352757112   110.45582093   180.05510998
 H     62  61  60     1.087788321136   110.33114450    59.89092018
 H     63  60  59     1.080602364240   119.54565730   179.84650732
 H     64  63  60     1.080406639974   119.78843174   180.86215389
 H     68  42  25     1.078902302018   121.94866135     0.62667055
 H     74  70  69     1.074701593979   124.09956042   357.00203540
 H     75  73  72     1.086290427970   115.51602940    17.78860975
 H     84  83  77     1.077882482184   123.09412095   357.82084486
 H     89  87  85     1.078299079569   120.81825555   179.96235041

---------------------------
INTERNAL COORDINATES (A.U.)
---------------------------
 C      0   0   0     0.000000000000     0.00000000     0.00000000
 O      1   0   0     2.299426257458     0.00000000     0.00000000
 C      1   2   0     2.793270169105   125.95872863     0.00000000
 C      3   1   2     2.608797211368   128.34627721     0.74655093
 C      4   3   1     2.618258763496   117.59233593   179.65751724
 F      5   4   3     2.529494362778   119.70474220   180.09315013
 C      5   4   3     2.636154946125   120.59443821     0.02525652
 F      7   5   4     2.527625554383   119.34577628   180.10030475
 C      7   5   4     2.621656215374   121.74851412     0.03779881
 C      9   7   5     2.619344529075   118.02484167   359.95025815
 C     10   9   7     2.767550228837   131.46708461   180.23977878
 C     11  10   9     2.590165941552   124.89618634   359.10973780
 C     12  11  10     2.666645198783   125.97176767   180.17496838
 N     13  12  11     2.171034793679   175.27799970   179.05089878
 C     12  11  10     2.667502911539   124.08373386     0.08807602
 N     15  12  11     2.168737508417   176.33489162   178.74160800
 C     11  10   9     2.738957449586   107.36573598   179.12998238
 C     17  11  10     2.597157088070   125.61312973   181.72819551
 C     18  17  11     2.645095566024   130.67204062   178.39779421
 C     19  18  17     2.645312147511   121.47995230   181.99124303
 C     20  19  18     2.604896565722   112.35366558   178.57033612
 C     21  20  19     2.672072377157   113.36230083     0.50166237
 S     22  21  20     3.249403932144   112.02963858   359.80605530
 C     22  21  20     2.630933685336   111.82826715   181.57630983
 C     24  22  21     2.843585272056   137.39651952   181.82053267
 C     25  24  22     2.864443431572   114.24240364   299.03737295
 C     26  25  24     2.626859165833   119.94881030   160.59483276
 C     27  26  25     2.606725280323   120.36684855   178.32668788
 C     28  27  26     2.631745266084   121.32494049   359.93699352
 C     29  28  27     2.846418395625   118.43307599   179.39598622
 C     30  29  28     2.878015674861   115.57963262   176.84432114
 C     29  28  27     2.620308658343   117.96214695   359.58426101
 C     32  29  28     2.617193098833   120.92599571     0.15969308
 C     25  24  22     2.874456767411   106.81122137    62.74558519
 C     34  25  24     2.626690730564   118.75341099   282.29839686
 C     35  34  25     2.609375277033   120.42372270   177.37946000
 C     36  35  34     2.626031829470   120.90710790   359.78221469
 C     37  36  35     2.836994716749   120.77036684   177.83698303
 C     38  37  36     2.891549315288   110.40081935   271.66108748
 C     37  36  35     2.622576078620   118.35160756     0.00000000
 C     40  37  36     2.614863541391   121.04369643   359.77438704
 C     25  24  22     2.868650557881   100.81026724   181.80058063
 C     42  25  24     2.676417086176   110.96333437   356.81411059
 C     24  22  21     2.619242243433   112.03171630   359.77946049
 S     44  24  22     3.270891564172   114.30302967   359.79516103
 C     43  42  25     2.632018674905   122.00509072   180.09914169
 C     46  43  42     2.598056676257   117.15985776   359.17431791
 C     47  46  43     2.869907652185   128.13848198   181.38433098
 C     48  47  46     2.872771370119   113.94824313   289.61383133
 C     49  48  47     2.626545307130   118.78474842   171.09281271
 C     50  49  48     2.608947072242   120.47642883   177.22280271
 C     51  50  49     2.626020665108   120.86173121   359.78267576
 C     52  51  50     2.836486556098   120.65959763   177.88785566
 C     53  52  51     2.891643934168   110.41145356   273.46309930
 C     52  51  50     2.622411411149   118.36029959     0.00000000
 C     55  52  51     2.614807260393   121.06027728   359.72988505
 C     48  47  46     2.865765696966   108.93597643    55.04599780
 C     57  48  47     2.621577264641   121.18280514    89.49691614
 C     58  57  48     2.613243944178   120.43920419   181.86093865
 C     59  58  57     2.622955692191   120.96308725     0.39232190
 C     60  59  58     2.836757595936   120.92192041   177.96925673
 C     61  60  59     2.891348869488   110.36268045   269.30658453
 C     60  59  58     2.625125036493   118.33879911     0.31797116
 C     63  60  59     2.610449787899   120.93708167   359.51425964
 C     48  47  46     2.843482282249   100.76964526   175.38329517
 C     65  48  47     2.619198492571   110.62469719     2.96864261
 C     47  46  43     2.675881112014   120.81762190   358.97247602
 C     42  25  24     2.598395584661   128.20725405   174.84238235
 S     66  65  48     3.269083059228   114.30223749   178.70096196
 C     69  66  65     3.287657841835    89.26613381   359.96588447
 C     65  48  47     2.629555552480   137.71069198   180.90792695
 S     71  65  48     3.243547256716   136.57773330     3.79936531
 C     72  71  65     3.329538185828    91.06408692   179.28674857
 C     70  69  66     2.618489346045   133.46991423   180.01604057
 C     73  72  71     2.657333004688   118.23267605   182.87339484
 C     75  73  72     2.583909296165   130.08802424   192.28435544
 C     76  75  73     2.727355894591   133.36137070    16.69023075
 C     77  76  75     2.591555399628   126.82315997    28.64473030
 C     78  77  76     2.664106762681   123.97696301   175.84465709
 N     79  78  77     2.168909352366   177.04330447   160.34133614
 C     78  77  76     2.663041386125   123.55832762     0.00000000
 N     81  78  77     2.168990814116   177.12888334   144.20173891
 C     77  76  75     2.767801491382   107.22354338   196.80013172
 C     83  77  76     2.617512878536   131.12090677   171.67172012
 C     84  83  77     2.621535667161   117.90394113   178.44509985
 F     85  84  83     2.527358996359   118.95927570   179.31085194
 C     85  84  83     2.636627001975   121.65583460   359.52258254
 F     87  85  84     2.529009580988   119.60682802   180.33550405
 C     87  85  84     2.619090255116   120.71919439     0.55617936
 C     89  87  85     2.609112670848   117.66067927     0.00000000
 C     90  89  87     2.799407332053   128.66987708   178.37049389
 O     91  90  89     2.283946505893   127.72141551     3.80300801
 H      4   3   1     2.037670400315   121.48458088   359.73700971
 H      9   7   5     2.036045733885   118.71872572   180.03753520
 H     18  17  11     2.047070498728   116.48794994   359.33165789
 H     20  19  18     2.031839831591   122.60559141   359.06724237
 H     27  26  25     2.041716455663   119.81863206   357.43187195
 H     28  27  26     2.042814802156   119.42710460   179.73449272
 H     30  29  28     2.068047443901   108.09352341    54.37978539
 H     30  29  28     2.068437685385   108.02786648   299.19071265
 H     31  30  29     2.055539270891   110.88206595   300.55502365
 H     31  30  29     2.055600871354   109.68144639   181.13666014
 H     31  30  29     2.055087964987   110.95598390    61.78415785
 H     32  29  28     2.037641989085   120.49498341   180.16312035
 H     33  32  29     2.041989845586   119.23743961   180.42007287
 H     35  34  25     2.041256449516   119.76693339   357.14557326
 H     36  35  34     2.041328706155   119.39842697   180.12458617
 H     38  37  36     2.063249304546   109.86975460   151.12442557
 H     38  37  36     2.063060120498   109.78728597    32.13432489
 H     39  38  37     2.055531257458   110.35419982   300.05552226
 H     39  38  37     2.054889929608   110.47703568   179.90547748
 H     39  38  37     2.055440895962   110.33308952    59.74787323
 H     40  37  36     2.042306279409   119.59078207   180.12959841
 H     41  40  37     2.041444285639   119.54374907   180.53855346
 H     46  43  42     2.038894643345   120.87355233   179.68875706
 H     50  49  48     2.042230721187   119.62283765   356.84995526
 H     51  50  49     2.041536852826   119.50537288   180.13356424
 H     53  52  51     2.062802591675   109.86408391   152.87533975
 H     53  52  51     2.062928181913   109.75847704    33.92998931
 H     54  53  52     2.055704245618   110.36407574   300.07224842
 H     54  53  52     2.054823950330   110.46729552   179.92792649
 H     54  53  52     2.055568686711   110.36667679    59.77926201
 H     55  52  51     2.042168225700   119.57853617   180.17866330
 H     56  55  52     2.041361063878   119.61248328   180.63656273
 H     58  57  48     2.041929927029   120.03387636     1.89035843
 H     59  58  57     2.042064272271   119.45144276   180.48991112
 H     61  60  59     2.063239589735   109.82033151   148.88150597
 H     61  60  59     2.063005553920   109.88477610    29.87500633
 H     62  61  60     2.055517857830   110.37744659   300.23728822
 H     62  61  60     2.054798921907   110.45582093   180.05510998
 H     62  61  60     2.055622018625   110.33114450    59.89092018
 H     63  60  59     2.042042528080   119.54565730   179.84650732
 H     64  63  60     2.041672662821   119.78843174   180.86215389
 H     68  42  25     2.038829876071   121.94866135     0.62667055
 H     74  70  69     2.030891688308   124.09956042   357.00203540
 H     75  73  72     2.052791410764   115.51602940    17.78860975
 H     84  83  77     2.036902695880   123.09412095   357.82084486
 H     89  87  85     2.037689950845   120.81825555   179.96235041

---------------------
BASIS SET INFORMATION
---------------------
There are 6 groups of distinct atoms

 Group   1 Type C   : 11s6p2d1f contracted to 5s3p2d1f pattern {62111/411/11/1}
 Group   2 Type O   : 11s6p2d1f contracted to 5s3p2d1f pattern {62111/411/11/1}
 Group   3 Type F   : 11s6p2d1f contracted to 5s3p2d1f pattern {62111/411/11/1}
 Group   4 Type N   : 11s6p2d1f contracted to 5s3p2d1f pattern {62111/411/11/1}
 Group   5 Type S   : 14s9p3d1f contracted to 5s5p2d1f pattern {73211/51111/21/1}
 Group   6 Type H   : 5s1p contracted to 3s1p pattern {311/1}

Atom   0C    basis set group =>   1
Atom   1O    basis set group =>   2
Atom   2C    basis set group =>   1
Atom   3C    basis set group =>   1
Atom   4C    basis set group =>   1
Atom   5F    basis set group =>   3
Atom   6C    basis set group =>   1
Atom   7F    basis set group =>   3
Atom   8C    basis set group =>   1
Atom   9C    basis set group =>   1
Atom  10C    basis set group =>   1
Atom  11C    basis set group =>   1
Atom  12C    basis set group =>   1
Atom  13N    basis set group =>   4
Atom  14C    basis set group =>   1
Atom  15N    basis set group =>   4
Atom  16C    basis set group =>   1
Atom  17C    basis set group =>   1
Atom  18C    basis set group =>   1
Atom  19C    basis set group =>   1
Atom  20C    basis set group =>   1
Atom  21C    basis set group =>   1
Atom  22S    basis set group =>   5
Atom  23C    basis set group =>   1
Atom  24C    basis set group =>   1
Atom  25C    basis set group =>   1
Atom  26C    basis set group =>   1
Atom  27C    basis set group =>   1
Atom  28C    basis set group =>   1
Atom  29C    basis set group =>   1
Atom  30C    basis set group =>   1
Atom  31C    basis set group =>   1
Atom  32C    basis set group =>   1
Atom  33C    basis set group =>   1
Atom  34C    basis set group =>   1
Atom  35C    basis set group =>   1
Atom  36C    basis set group =>   1
Atom  37C    basis set group =>   1
Atom  38C    basis set group =>   1
Atom  39C    basis set group =>   1
Atom  40C    basis set group =>   1
Atom  41C    basis set group =>   1
Atom  42C    basis set group =>   1
Atom  43C    basis set group =>   1
Atom  44S    basis set group =>   5
Atom  45C    basis set group =>   1
Atom  46C    basis set group =>   1
Atom  47C    basis set group =>   1
Atom  48C    basis set group =>   1
Atom  49C    basis set group =>   1
Atom  50C    basis set group =>   1
Atom  51C    basis set group =>   1
Atom  52C    basis set group =>   1
Atom  53C    basis set group =>   1
Atom  54C    basis set group =>   1
Atom  55C    basis set group =>   1
Atom  56C    basis set group =>   1
Atom  57C    basis set group =>   1
Atom  58C    basis set group =>   1
Atom  59C    basis set group =>   1
Atom  60C    basis set group =>   1
Atom  61C    basis set group =>   1
Atom  62C    basis set group =>   1
Atom  63C    basis set group =>   1
Atom  64C    basis set group =>   1
Atom  65C    basis set group =>   1
Atom  66C    basis set group =>   1
Atom  67C    basis set group =>   1
Atom  68S    basis set group =>   5
Atom  69C    basis set group =>   1
Atom  70C    basis set group =>   1
Atom  71S    basis set group =>   5
Atom  72C    basis set group =>   1
Atom  73C    basis set group =>   1
Atom  74C    basis set group =>   1
Atom  75C    basis set group =>   1
Atom  76C    basis set group =>   1
Atom  77C    basis set group =>   1
Atom  78C    basis set group =>   1
Atom  79N    basis set group =>   4
Atom  80C    basis set group =>   1
Atom  81N    basis set group =>   4
Atom  82C    basis set group =>   1
Atom  83C    basis set group =>   1
Atom  84C    basis set group =>   1
Atom  85F    basis set group =>   3
Atom  86C    basis set group =>   1
Atom  87F    basis set group =>   3
Atom  88C    basis set group =>   1
Atom  89C    basis set group =>   1
Atom  90C    basis set group =>   1
Atom  91O    basis set group =>   2
Atom  92H    basis set group =>   6
Atom  93H    basis set group =>   6
Atom  94H    basis set group =>   6
Atom  95H    basis set group =>   6
Atom  96H    basis set group =>   6
Atom  97H    basis set group =>   6
Atom  98H    basis set group =>   6
Atom  99H    basis set group =>   6
Atom 100H    basis set group =>   6
Atom 101H    basis set group =>   6
Atom 102H    basis set group =>   6
Atom 103H    basis set group =>   6
Atom 104H    basis set group =>   6
Atom 105H    basis set group =>   6
Atom 106H    basis set group =>   6
Atom 107H    basis set group =>   6
Atom 108H    basis set group =>   6
Atom 109H    basis set group =>   6
Atom 110H    basis set group =>   6
Atom 111H    basis set group =>   6
Atom 112H    basis set group =>   6
Atom 113H    basis set group =>   6
Atom 114H    basis set group =>   6
Atom 115H    basis set group =>   6
Atom 116H    basis set group =>   6
Atom 117H    basis set group =>   6
Atom 118H    basis set group =>   6
Atom 119H    basis set group =>   6
Atom 120H    basis set group =>   6
Atom 121H    basis set group =>   6
Atom 122H    basis set group =>   6
Atom 123H    basis set group =>   6
Atom 124H    basis set group =>   6
Atom 125H    basis set group =>   6
Atom 126H    basis set group =>   6
Atom 127H    basis set group =>   6
Atom 128H    basis set group =>   6
Atom 129H    basis set group =>   6
Atom 130H    basis set group =>   6
Atom 131H    basis set group =>   6
Atom 132H    basis set group =>   6
Atom 133H    basis set group =>   6
Atom 134H    basis set group =>   6
Atom 135H    basis set group =>   6
Atom 136H    basis set group =>   6
Atom 137H    basis set group =>   6
---------------------------------
AUXILIARY/J BASIS SET INFORMATION
---------------------------------
There are 6 groups of distinct atoms

 Group   1 Type C   : 12s5p4d2f1g contracted to 6s4p3d1f1g pattern {711111/2111/211/2/1}
 Group   2 Type O   : 12s5p4d2f1g contracted to 6s4p3d1f1g pattern {711111/2111/211/2/1}
 Group   3 Type F   : 12s5p4d2f1g contracted to 6s4p3d1f1g pattern {711111/2111/211/2/1}
 Group   4 Type N   : 12s5p4d2f1g contracted to 6s4p3d1f1g pattern {711111/2111/211/2/1}
 Group   5 Type S   : 14s5p5d2f1g contracted to 8s4p3d1f1g pattern {71111111/2111/311/2/1}
 Group   6 Type H   : 5s2p1d contracted to 3s1p1d pattern {311/2/1}

Atom   0C    basis set group =>   1
Atom   1O    basis set group =>   2
Atom   2C    basis set group =>   1
Atom   3C    basis set group =>   1
Atom   4C    basis set group =>   1
Atom   5F    basis set group =>   3
Atom   6C    basis set group =>   1
Atom   7F    basis set group =>   3
Atom   8C    basis set group =>   1
Atom   9C    basis set group =>   1
Atom  10C    basis set group =>   1
Atom  11C    basis set group =>   1
Atom  12C    basis set group =>   1
Atom  13N    basis set group =>   4
Atom  14C    basis set group =>   1
Atom  15N    basis set group =>   4
Atom  16C    basis set group =>   1
Atom  17C    basis set group =>   1
Atom  18C    basis set group =>   1
Atom  19C    basis set group =>   1
Atom  20C    basis set group =>   1
Atom  21C    basis set group =>   1
Atom  22S    basis set group =>   5
Atom  23C    basis set group =>   1
Atom  24C    basis set group =>   1
Atom  25C    basis set group =>   1
Atom  26C    basis set group =>   1
Atom  27C    basis set group =>   1
Atom  28C    basis set group =>   1
Atom  29C    basis set group =>   1
Atom  30C    basis set group =>   1
Atom  31C    basis set group =>   1
Atom  32C    basis set group =>   1
Atom  33C    basis set group =>   1
Atom  34C    basis set group =>   1
Atom  35C    basis set group =>   1
Atom  36C    basis set group =>   1
Atom  37C    basis set group =>   1
Atom  38C    basis set group =>   1
Atom  39C    basis set group =>   1
Atom  40C    basis set group =>   1
Atom  41C    basis set group =>   1
Atom  42C    basis set group =>   1
Atom  43C    basis set group =>   1
Atom  44S    basis set group =>   5
Atom  45C    basis set group =>   1
Atom  46C    basis set group =>   1
Atom  47C    basis set group =>   1
Atom  48C    basis set group =>   1
Atom  49C    basis set group =>   1
Atom  50C    basis set group =>   1
Atom  51C    basis set group =>   1
Atom  52C    basis set group =>   1
Atom  53C    basis set group =>   1
Atom  54C    basis set group =>   1
Atom  55C    basis set group =>   1
Atom  56C    basis set group =>   1
Atom  57C    basis set group =>   1
Atom  58C    basis set group =>   1
Atom  59C    basis set group =>   1
Atom  60C    basis set group =>   1
Atom  61C    basis set group =>   1
Atom  62C    basis set group =>   1
Atom  63C    basis set group =>   1
Atom  64C    basis set group =>   1
Atom  65C    basis set group =>   1
Atom  66C    basis set group =>   1
Atom  67C    basis set group =>   1
Atom  68S    basis set group =>   5
Atom  69C    basis set group =>   1
Atom  70C    basis set group =>   1
Atom  71S    basis set group =>   5
Atom  72C    basis set group =>   1
Atom  73C    basis set group =>   1
Atom  74C    basis set group =>   1
Atom  75C    basis set group =>   1
Atom  76C    basis set group =>   1
Atom  77C    basis set group =>   1
Atom  78C    basis set group =>   1
Atom  79N    basis set group =>   4
Atom  80C    basis set group =>   1
Atom  81N    basis set group =>   4
Atom  82C    basis set group =>   1
Atom  83C    basis set group =>   1
Atom  84C    basis set group =>   1
Atom  85F    basis set group =>   3
Atom  86C    basis set group =>   1
Atom  87F    basis set group =>   3
Atom  88C    basis set group =>   1
Atom  89C    basis set group =>   1
Atom  90C    basis set group =>   1
Atom  91O    basis set group =>   2
Atom  92H    basis set group =>   6
Atom  93H    basis set group =>   6
Atom  94H    basis set group =>   6
Atom  95H    basis set group =>   6
Atom  96H    basis set group =>   6
Atom  97H    basis set group =>   6
Atom  98H    basis set group =>   6
Atom  99H    basis set group =>   6
Atom 100H    basis set group =>   6
Atom 101H    basis set group =>   6
Atom 102H    basis set group =>   6
Atom 103H    basis set group =>   6
Atom 104H    basis set group =>   6
Atom 105H    basis set group =>   6
Atom 106H    basis set group =>   6
Atom 107H    basis set group =>   6
Atom 108H    basis set group =>   6
Atom 109H    basis set group =>   6
Atom 110H    basis set group =>   6
Atom 111H    basis set group =>   6
Atom 112H    basis set group =>   6
Atom 113H    basis set group =>   6
Atom 114H    basis set group =>   6
Atom 115H    basis set group =>   6
Atom 116H    basis set group =>   6
Atom 117H    basis set group =>   6
Atom 118H    basis set group =>   6
Atom 119H    basis set group =>   6
Atom 120H    basis set group =>   6
Atom 121H    basis set group =>   6
Atom 122H    basis set group =>   6
Atom 123H    basis set group =>   6
Atom 124H    basis set group =>   6
Atom 125H    basis set group =>   6
Atom 126H    basis set group =>   6
Atom 127H    basis set group =>   6
Atom 128H    basis set group =>   6
Atom 129H    basis set group =>   6
Atom 130H    basis set group =>   6
Atom 131H    basis set group =>   6
Atom 132H    basis set group =>   6
Atom 133H    basis set group =>   6
Atom 134H    basis set group =>   6
Atom 135H    basis set group =>   6
Atom 136H    basis set group =>   6
Atom 137H    basis set group =>   6
------------------------------------------------------------------------------
                           ORCA GTO INTEGRAL CALCULATION
                           -- RI-GTO INTEGRALS CHOSEN --
------------------------------------------------------------------------------

                         BASIS SET STATISTICS AND STARTUP INFO

Gaussian basis set:
 # of primitive gaussian shells          ... 2144
 # of primitive gaussian functions       ... 4668
 # of contracted shells                  ... 1204
 # of contracted basis functions         ... 3152
 Highest angular momentum                ...    3
 Maximum contraction depth               ...    7
Auxiliary gaussian basis set:
 # of primitive gaussian shells          ... 2588
 # of primitive gaussian functions       ... 7204
 # of contracted shells                  ... 1618
 # of contracted aux-basis functions     ... 5022
 Highest angular momentum                ...    4
 Maximum contraction depth               ...    7
Ratio of auxiliary to basis functions    ...  1.59
Integral package used                  ... LIBINT
 One Electron integrals                  ... done
 Ordering auxiliary basis shells         ... done
 Integral threshhold             Thresh  ...  2.500e-11
 Primitive cut-off               TCut    ...  2.500e-12
 Pre-screening matrix                    ... done
 Shell pair data                         ... 
 Ordering of the shell pairs             ... done (   0.053 sec) 217027 of 725410 pairs
 Determination of significant pairs      ... done (   0.002 sec)
 Creation of shell pair data             ... done (   0.025 sec)
 Storage of shell pair data              ... done (   0.033 sec)
 Shell pair data done in (   0.113 sec)
 Computing two index integrals           ... done
 Cholesky decomposition of the V-matrix  ... done


Timings:
 Total evaluation time                   ...  11.529 sec (  0.192 min)
 One electron matrix time                ...   4.137 sec (  0.069 min) = 35.9%
 Schwartz matrix evaluation time         ...   5.691 sec (  0.095 min) = 49.4%
 Two index repulsion integral time       ...   0.618 sec (  0.010 min) =  5.4%
 Cholesky decomposition of V             ...   0.951 sec (  0.016 min) =  8.2%
 Three index repulsion integral time     ...   0.000 sec (  0.000 min) =  0.0%

-------------------------------------------------------------------------------
                                 ORCA SCF
-------------------------------------------------------------------------------

------------
SCF SETTINGS
------------
Hamiltonian:
 Density Functional     Method          .... DFT(GTOs)
 Exchange Functional    Exchange        .... B88
   X-Alpha parameter    XAlpha          ....  0.666667
   Becke's b parameter  XBeta           ....  0.004200
 Correlation Functional Correlation     .... LYP
 LDA part of GGA corr.  LDAOpt          .... VWN-5
 Gradients option       PostSCFGGA      .... off
 Hybrid DFT is turned on
   Fraction HF Exchange ScalHFX         ....  0.200000
   Scaling of DF-GGA-X  ScalDFX         ....  0.720000
   Scaling of DF-GGA-C  ScalDFC         ....  0.810000
   Scaling of DF-LDA-C  ScalLDAC        ....  1.000000
   Perturbative correction              ....  0.000000
   Density functional embedding theory  .... OFF
   NL short-range parameter             ....  4.800000
 RI-approximation to the Coulomb term is turned on
   Number of auxiliary basis functions  .... 5022
   RIJ-COSX (HFX calculated with COS-X)).... on


General Settings:
 Integral files         IntName         .... IT-4F
 Hartree-Fock type      HFTyp           .... RHF
 Total Charge           Charge          ....    0
 Multiplicity           Mult            ....    1
 Number of Electrons    NEL             ....  658
 Basis Dimension        Dim             .... 3152
 Nuclear Repulsion      ENuc            ....  15972.0584865891 Eh

Convergence Acceleration:
 DIIS                   CNVDIIS         .... on
   Start iteration      DIISMaxIt       ....    12
   Startup error        DIISStart       ....  0.200000
   # of expansion vecs  DIISMaxEq       ....     5
   Bias factor          DIISBfac        ....   1.050
   Max. coefficient     DIISMaxC        ....  10.000
 Newton-Raphson         CNVNR           .... off
 SOSCF                  CNVSOSCF        .... on
   Start iteration      SOSCFMaxIt      ....   150
   Startup grad/error   SOSCFStart      ....  0.003300
 Level Shifting         CNVShift        .... on
   Level shift para.    LevelShift      ....    0.2500
   Turn off err/grad.   ShiftErr        ....    0.0010
 Zerner damping         CNVZerner       .... off
 Static damping         CNVDamp         .... on
   Fraction old density DampFac         ....    0.7000
   Max. Damping (<1)    DampMax         ....    0.9800
   Min. Damping (>=0)   DampMin         ....    0.0000
   Turn off err/grad.   DampErr         ....    0.1000
 Fernandez-Rico         CNVRico         .... off

SCF Procedure:
 Maximum # iterations   MaxIter         ....   125
 SCF integral mode      SCFMode         .... Direct
   Integral package                     .... LIBINT
 Reset frequency        DirectResetFreq ....    20
 Integral Threshold     Thresh          ....  2.500e-11 Eh
 Primitive CutOff       TCut            ....  2.500e-12 Eh

Convergence Tolerance:
 Convergence Check Mode ConvCheckMode   .... Total+1el-Energy
 Convergence forced     ConvForced      .... 1
 Energy Change          TolE            ....  1.000e-08 Eh
 1-El. energy change                    ....  1.000e-05 Eh
 Orbital Gradient       TolG            ....  1.000e-05
 Orbital Rotation angle TolX            ....  1.000e-05
 DIIS Error             TolErr          ....  5.000e-07


Diagonalization of the overlap matrix:
Smallest eigenvalue                        ... 1.836e-06
Time for diagonalization                   ...    6.810 sec
Threshold for overlap eigenvalues          ... 1.000e-08
Number of eigenvalues below threshold      ... 0
Time for construction of square roots      ...    2.142 sec
Total time needed                          ...    8.978 sec

-------------------
DFT GRID GENERATION
-------------------

General Integration Accuracy     IntAcc      ...  4.670
Radial Grid Type                 RadialGrid  ... Gauss-Chebyshev
Angular Grid (max. acc.)         AngularGrid ... Lebedev-302
Angular grid pruning method      GridPruning ... 3 (G Style)
Weight generation scheme         WeightScheme... Becke
Basis function cutoff            BFCut       ...    1.0000e-11
Integration weight cutoff        WCut        ...    1.0000e-14
Grids for H and He will be reduced by one unit

# of grid points (after initial pruning)     ... 730404 (   2.4 sec)
# of grid points (after weights+screening)   ... 613952 (  51.8 sec)
nearest neighbour list constructed           ...    0.0 sec
Grid point re-assignment to atoms done       ...    0.1 sec
Grid point division into batches done        ...    2.1 sec
Reduced shell lists constructed in   25.5 sec

Total number of grid points                  ...   613952
Total number of batches                      ...     9660
Average number of points per batch           ...       63
Average number of grid points per atom       ...     4449
Average number of shells per batch           ...   183.97 (15.28%)
Average number of basis functions per batch  ...   453.28 (14.38%)
Average number of large shells per batch     ...   104.77 (56.95%)
Average number of large basis fcns per batch ...   265.61 (58.60%)
Maximum spatial batch extension              ...  18.41, 21.50, 21.72 au
Average spatial batch extension              ...   2.07,  2.05,  2.14 au

Time for grid setup =   79.812 sec

------------------------------
INITIAL GUESS: MODEL POTENTIAL
------------------------------
Loading Hartree-Fock densities                     ... done
Calculating cut-offs                               ... done
Setting up the integral package                    ... done
Initializing the effective Hamiltonian             ... done
Starting the Coulomb interaction                   ... done (  53.5 sec)
Reading the grid                                   ... done
Mapping shells                                     ... done
Starting the XC term evaluation                    ... done (  37.3 sec)
  promolecular density results
     # of electrons  =    657.977978241
     EX              =   -598.141466322
     EC              =    -23.108880122
     EX+EC           =   -621.250346444
Transforming the Hamiltonian                       ... done (   2.0 sec)
Diagonalizing the Hamiltonian                      ... done (   6.4 sec)
Back transforming the eigenvectors                 ... done (   0.9 sec)
Now organizing SCF variables                       ... done
                      ------------------
                      INITIAL GUESS DONE ( 181.2 sec)
                      ------------------
--------------------
COSX GRID GENERATION
--------------------

General Integration Accuracy     IntAcc      ...  3.340
Radial Grid Type                 RadialGrid  ... Gauss-Chebyshev
Angular Grid (max. acc.)         AngularGrid ... Lebedev-50
Angular grid pruning method      GridPruning ... 3 (G Style)
Weight generation scheme         WeightScheme... Becke
Basis function cutoff            BFCut       ...    1.0000e-11
Integration weight cutoff        WCut        ...    1.0000e-14
Grids for H and He will be reduced by one unit

# of grid points (after initial pruning)     ...  68528 (   0.1 sec)
# of grid points (after weights+screening)   ...  60569 (   4.8 sec)
nearest neighbour list constructed           ...    0.0 sec
Grid point re-assignment to atoms done       ...    0.0 sec
Grid point division into batches done        ...    0.0 sec
Reduced shell lists constructed in    3.9 sec

Total number of grid points                  ...    60569
Total number of batches                      ...     1025
Average number of points per batch           ...       59
Average number of grid points per atom       ...      439
Average number of shells per batch           ...   226.00 (18.77%)
Average number of basis functions per batch  ...   561.45 (17.81%)
Average number of large shells per batch     ...   128.56 (56.89%)
Average number of large basis fcns per batch ...   330.57 (58.88%)
Maximum spatial batch extension              ...  19.12, 20.00, 30.36 au
Average spatial batch extension              ...   4.28,  4.18,  4.73 au

Overlap Fitting                  UseSFitting ... on
Constructing numerical overlap ... done (      3.2 sec)
Inverting numerical overlap    ... done (      0.7 sec)
Obtaining analytic overlap     ... done (      0.0 sec)
Final contraction and storage  ... done (      1.0 sec)


General Integration Accuracy     IntAcc      ...  3.670
Radial Grid Type                 RadialGrid  ... Gauss-Chebyshev
Angular Grid (max. acc.)         AngularGrid ... Lebedev-50
Angular grid pruning method      GridPruning ... 3 (G Style)
Weight generation scheme         WeightScheme... Becke
Basis function cutoff            BFCut       ...    1.0000e-11
Integration weight cutoff        WCut        ...    1.0000e-14
Grids for H and He will be reduced by one unit

# of grid points (after initial pruning)     ...  85712 (   0.1 sec)
# of grid points (after weights+screening)   ...  75347 (   6.0 sec)
nearest neighbour list constructed           ...    0.0 sec
Grid point re-assignment to atoms done       ...    0.0 sec
Grid point division into batches done        ...    0.0 sec
Reduced shell lists constructed in    5.1 sec

Total number of grid points                  ...    75347
Total number of batches                      ...     1241
Average number of points per batch           ...       60
Average number of grid points per atom       ...      546
Average number of shells per batch           ...   220.62 (18.32%)
Average number of basis functions per batch  ...   547.71 (17.38%)
Average number of large shells per batch     ...   125.18 (56.74%)
Average number of large basis fcns per batch ...   321.35 (58.67%)
Maximum spatial batch extension              ...  22.74, 21.95, 22.01 au
Average spatial batch extension              ...   4.08,  3.95,  4.39 au

Overlap Fitting                  UseSFitting ... on
Constructing numerical overlap ... done (      4.3 sec)
Inverting numerical overlap    ... done (      0.7 sec)
Obtaining analytic overlap     ... done (      0.0 sec)
Final contraction and storage  ... done (      1.1 sec)


General Integration Accuracy     IntAcc      ...  4.010
Radial Grid Type                 RadialGrid  ... Gauss-Chebyshev
Angular Grid (max. acc.)         AngularGrid ... Lebedev-110
Angular grid pruning method      GridPruning ... 3 (G Style)
Weight generation scheme         WeightScheme... Becke
Basis function cutoff            BFCut       ...    1.0000e-11
Integration weight cutoff        WCut        ...    1.0000e-14
Grids for H and He will be reduced by one unit

# of grid points (after initial pruning)     ... 166260 (   0.3 sec)
# of grid points (after weights+screening)   ... 144511 (  11.7 sec)
nearest neighbour list constructed           ...    0.0 sec
Grid point re-assignment to atoms done       ...    0.0 sec
Grid point division into batches done        ...    0.1 sec
Reduced shell lists constructed in    7.5 sec

Total number of grid points                  ...   144511
Total number of batches                      ...     2332
Average number of points per batch           ...       61
Average number of grid points per atom       ...     1047
Average number of shells per batch           ...   208.86 (17.35%)
Average number of basis functions per batch  ...   518.42 (16.45%)
Average number of large shells per batch     ...   119.59 (57.26%)
Average number of large basis fcns per batch ...   306.36 (59.09%)
Maximum spatial batch extension              ...  25.50, 19.84, 24.31 au
Average spatial batch extension              ...   3.34,  3.25,  3.56 au

Overlap Fitting                  UseSFitting ... on
Constructing numerical overlap ... done (      6.0 sec)
Inverting numerical overlap    ... done (      0.6 sec)
Obtaining analytic overlap     ... done (      0.0 sec)
Final contraction and storage  ... done (      1.0 sec)

Time for X-Grid setup             =   58.755 sec
--------------
SCF ITERATIONS
--------------
ITER       Energy         Delta-E        Max-DP      RMS-DP      [F,P]     Damp
               ***  Starting incremental Fock matrix formation  ***
  0  -5358.2642282554   0.000000000000 0.60573737  0.00086524  0.2996369 0.7000
  1  -5359.3208000486  -1.056571793180 0.42541222  0.00069559  0.1078915 0.7000
                               ***Turning on DIIS***
  2  -5359.7219909824  -0.401190933759 0.47186712  0.00101395  0.0430536 0.0000
  3  -5360.3646676462  -0.642676663841 0.34753822  0.00063180  0.0574414 0.0000
  4  -5360.5068879872  -0.142220341000 0.06197884  0.00019035  0.0337992 0.0000
  5  -5360.5202834563  -0.013395469059 0.02126932  0.00008579  0.0131399 0.0000
                      *** Initiating the SOSCF procedure ***
                           *** Shutting down DIIS ***
                      *** Re-Reading the Fockian *** 
                      *** Removing any level shift *** 
ITER      Energy       Delta-E        Grad      Rot      Max-DP    RMS-DP
  6  -5360.52174122  -0.0014577636  0.000872  0.000872  0.018864  0.000030
               *** Restarting incremental Fock matrix formation ***
  7  -5360.52183044  -0.0000892185  0.000347  0.004140  0.034493  0.000092
  8  -5360.52181657   0.0000138694  0.000543  0.003159  0.018099  0.000032
  9  -5360.52186093  -0.0000443624  0.000146  0.001594  0.017666  0.000035
 10  -5360.52185783   0.0000031014  0.000191  0.000374  0.002594  0.000004
 11  -5360.52186443  -0.0000066029  0.000069  0.000985  0.006448  0.000013
 12  -5360.52186329   0.0000011434  0.000064  0.000306  0.001110  0.000003
 13  -5360.52186492  -0.0000016336  0.000024  0.000322  0.002642  0.000005
 14  -5360.52186482   0.0000001072  0.000040  0.000127  0.002077  0.000002
 15  -5360.52186511  -0.0000002969  0.000011  0.000169  0.001876  0.000003
 16  -5360.52186508   0.0000000280  0.000023  0.000107  0.000885  0.000001
                  ***Gradient check signals convergence***
              ***Rediagonalizing the Fockian in SOSCF/NRSCF***

               *****************************************************
               *                     SUCCESS                       *
               *           SCF CONVERGED AFTER  17 CYCLES          *
               *****************************************************

Setting up the final grid:

General Integration Accuracy     IntAcc      ...  5.010
Radial Grid Type                 RadialGrid  ... Gauss-Chebyshev
Angular Grid (max. acc.)         AngularGrid ... Lebedev-434
Angular grid pruning method      GridPruning ... 3 (G Style)
Weight generation scheme         WeightScheme... Becke
Basis function cutoff            BFCut       ...    1.0000e-11
Integration weight cutoff        WCut        ...    1.0000e-14
Grids for H and He will be reduced by one unit

# of grid points (after initial pruning)     ... 1296552 (   3.3 sec)
# of grid points (after weights+screening)   ... 1086194 (  92.8 sec)
nearest neighbour list constructed           ...    0.0 sec
Grid point re-assignment to atoms done       ...    0.2 sec
Grid point division into batches done        ...    7.0 sec
Reduced shell lists constructed in   46.8 sec

Total number of grid points                  ...  1086194
Total number of batches                      ...    17047
Average number of points per batch           ...       63
Average number of grid points per atom       ...     7871
Average number of shells per batch           ...   176.95 (14.70%)
Average number of basis functions per batch  ...   434.39 (13.78%)
Average number of large shells per batch     ...   100.64 (56.88%)
Average number of large basis fcns per batch ...   254.33 (58.55%)
Maximum spatial batch extension              ...  22.27, 22.29, 21.05 au
Average spatial batch extension              ...   1.69,  1.67,  1.73 au

Final grid set up in  143.0 sec
Final integration                            ... done (  87.3 sec)
Change in XC energy                          ...    -0.000041206
Integrated number of electrons               ...   658.000138637
Previous integrated no of electrons          ...   658.000315835
Old exchange energy                            =   -120.972407610 Eh
New exchange energy                            =   -120.973673850 Eh
Exchange energy change after final integration =     -0.001266240 Eh
Total energy after final integration           =  -5360.523172514 Eh
Final COS-X integration done in                =  2869.676 sec

----------------
TOTAL SCF ENERGY
----------------

Total Energy       :        -5360.52317251 Eh         -145867.25127 eV

Components:
Nuclear Repulsion  :        15972.05848659 Eh          434621.80717 eV
Electronic Energy  :       -21332.58165910 Eh         -580489.05844 eV
One Electron Energy:       -39162.11240777 Eh        -1065655.25548 eV
Two Electron Energy:        17829.53074867 Eh          485166.19704 eV

Virial components:
Potential Energy   :       -10704.15842388 Eh         -291274.95885 eV
Kinetic Energy     :         5343.63525137 Eh          145407.70757 eV
Virial Ratio       :            2.00316038


DFT components:
N(Alpha)           :      329.000069318524 electrons
N(Beta)            :      329.000069318524 electrons
N(Total)           :      658.000138637049 electrons
E(X)               :     -480.780684956687 Eh       
[...]
   318a -> 330a  :     0.040181 (c= -0.20045158)
   320a -> 330a  :     0.018371 (c= -0.13554083)
   328a -> 335a  :     0.068476 (c=  0.26167940)

STATE 44:  E=   0.134841 au      3.669 eV    29594.1 cm**-1
   314a -> 329a  :     0.057672 (c=  0.24015074)
   317a -> 330a  :     0.202908 (c=  0.45045352)
   317a -> 332a  :     0.017021 (c= -0.13046532)
   320a -> 329a  :     0.026430 (c=  0.16257455)
   320a -> 331a  :     0.029395 (c=  0.17144980)
   321a -> 331a  :     0.022410 (c=  0.14969955)
   322a -> 331a  :     0.025882 (c=  0.16087970)
   322a -> 332a  :     0.026743 (c= -0.16353238)
   323a -> 331a  :     0.015618 (c=  0.12497374)
   323a -> 332a  :     0.038108 (c=  0.19521171)
   324a -> 331a  :     0.069454 (c= -0.26354211)
   324a -> 332a  :     0.293684 (c= -0.54192647)
   328a -> 333a  :     0.030679 (c= -0.17515494)

STATE 45:  E=   0.135770 au      3.694 eV    29798.1 cm**-1
   312a -> 329a  :     0.017945 (c=  0.13395812)
   314a -> 329a  :     0.011623 (c= -0.10781018)
   315a -> 330a  :     0.016245 (c=  0.12745474)
   317a -> 330a  :     0.223918 (c=  0.47319947)
   317a -> 332a  :     0.024151 (c= -0.15540521)
   320a -> 330a  :     0.011792 (c= -0.10858901)
   320a -> 331a  :     0.010073 (c=  0.10036445)
   322a -> 331a  :     0.090945 (c=  0.30157137)
   323a -> 331a  :     0.303065 (c= -0.55051315)
   324a -> 332a  :     0.226144 (c=  0.47554548)

STATE 46:  E=   0.136125 au      3.704 eV    29876.0 cm**-1
   311a -> 329a  :     0.020319 (c= -0.14254514)
   312a -> 329a  :     0.075427 (c=  0.27463952)
   314a -> 329a  :     0.299573 (c= -0.54733276)
   315a -> 330a  :     0.013260 (c=  0.11515255)
   317a -> 330a  :     0.158623 (c=  0.39827490)
   318a -> 330a  :     0.019567 (c=  0.13988230)
   319a -> 330a  :     0.011815 (c= -0.10869609)
   322a -> 331a  :     0.090511 (c= -0.30084990)
   323a -> 330a  :     0.010388 (c= -0.10192012)
   323a -> 331a  :     0.050199 (c=  0.22405118)
   323a -> 332a  :     0.042102 (c= -0.20518860)
   324a -> 332a  :     0.033704 (c= -0.18358624)
   328a -> 333a  :     0.058480 (c=  0.24182724)

STATE 47:  E=   0.136575 au      3.716 eV    29974.8 cm**-1
   315a -> 329a  :     0.023116 (c=  0.15203900)
   315a -> 330a  :     0.909122 (c= -0.95347880)
   317a -> 330a  :     0.012640 (c=  0.11242815)

STATE 48:  E=   0.137175 au      3.733 eV    30106.3 cm**-1
   311a -> 329a  :     0.018014 (c= -0.13421600)
   314a -> 329a  :     0.031978 (c= -0.17882487)
   315a -> 330a  :     0.014896 (c=  0.12205012)
   317a -> 330a  :     0.033835 (c= -0.18394308)
   317a -> 332a  :     0.029601 (c=  0.17204801)
   320a -> 330a  :     0.012236 (c=  0.11061587)
   320a -> 331a  :     0.015125 (c= -0.12298203)
   321a -> 331a  :     0.179103 (c=  0.42320525)
   321a -> 332a  :     0.058422 (c=  0.24170697)
   322a -> 332a  :     0.237697 (c= -0.48754138)
   323a -> 331a  :     0.078319 (c= -0.27985528)
   323a -> 332a  :     0.156139 (c=  0.39514470)
   324a -> 331a  :     0.016051 (c= -0.12669159)
   328a -> 333a  :     0.014310 (c=  0.11962348)

STATE 49:  E=   0.137990 au      3.755 eV    30285.3 cm**-1
   310a -> 329a  :     0.064218 (c= -0.25341367)
   312a -> 330a  :     0.022049 (c= -0.14848746)
   314a -> 329a  :     0.016935 (c= -0.13013381)
   314a -> 330a  :     0.162742 (c=  0.40341337)
   319a -> 331a  :     0.010195 (c=  0.10097131)
   322a -> 331a  :     0.012480 (c=  0.11171512)
   323a -> 331a  :     0.014673 (c= -0.12113409)
   323a -> 332a  :     0.050328 (c=  0.22433967)
   324a -> 332a  :     0.026553 (c= -0.16295215)
   328a -> 334a  :     0.484815 (c=  0.69628632)

STATE 50:  E=   0.138677 au      3.774 eV    30436.0 cm**-1
   309a -> 329a  :     0.011594 (c=  0.10767560)
   314a -> 329a  :     0.037956 (c= -0.19482338)
   321a -> 331a  :     0.125838 (c= -0.35473610)
   321a -> 332a  :     0.096645 (c= -0.31087772)
   322a -> 331a  :     0.076120 (c=  0.27589915)
   322a -> 332a  :     0.082413 (c=  0.28707688)
   323a -> 332a  :     0.317499 (c=  0.56347047)
   324a -> 331a  :     0.017333 (c= -0.13165611)
   324a -> 332a  :     0.013249 (c= -0.11510399)
   328a -> 333a  :     0.010264 (c=  0.10131120)
   328a -> 334a  :     0.114753 (c= -0.33875148)


-----------------------------
TD-DFT/TDA-EXCITATION SPECTRA
-----------------------------

Center of mass = ( 22.6321,  1.0690,  3.6535)
Calculating the Dipole integrals                  ... done
Transforming integrals                            ... done
Calculating the Linear Momentum integrals         ... done
Transforming integrals                            ... done
Calculating angular momentum integrals            ... done
Transforming integrals                            ... done

-----------------------------------------------------------------------------
         ABSORPTION SPECTRUM VIA TRANSITION ELECTRIC DIPOLE MOMENTS
-----------------------------------------------------------------------------
State   Energy    Wavelength  fosc         T2        TX        TY        TZ  
        (cm-1)      (nm)                 (au**2)    (au)      (au)      (au) 
-----------------------------------------------------------------------------
   1   14899.7    671.2   2.526833428  55.83085  -6.33337  -1.23538  -3.76737
   2   16948.1    590.0   0.199834380   3.88173  -1.65749   0.14664  -1.05497
   3   19195.4    521.0   0.353096182   6.05581  -2.12503   0.12220  -1.23497
   4   19509.8    512.6   0.107821071   1.81939  -1.21840   0.20236  -0.54217
   5   20884.0    478.8   0.009756362   0.15380  -0.14441  -0.36458   0.00486
   6   21113.6    473.6   0.003659048   0.05705   0.12441   0.20352  -0.01257
   7   21552.8    464.0   0.059163125   0.90370   0.41280   0.85436   0.05792
   8   22016.6    454.2   0.006758494   0.10106   0.07656  -0.23328   0.20193
   9   22544.6    443.6   0.390173634   5.69758  -1.92802  -0.48893  -1.31957
  10   23409.4    427.2   0.064849278   0.91199  -0.51165   0.59900  -0.53982
  11   23543.0    424.8   0.007921737   0.11077   0.27916  -0.12948   0.12680
  12   23694.9    422.0   0.022725013   0.31574  -0.30926  -0.45923  -0.09592
  13   24070.5    415.4   0.003403172   0.04655   0.12659   0.03009   0.17209
  14   24323.2    411.1   0.009359206   0.12668   0.01813  -0.35247  -0.04599
  15   24687.6    405.1   0.002075641   0.02768  -0.01101  -0.16190   0.03670
  16   24949.9    400.8   0.016722729   0.22065  -0.35348   0.17640  -0.25415
  17   25283.2    395.5   0.019220934   0.25028  -0.27070   0.09763  -0.40922
  18   25354.6    394.4   0.007931875   0.10299  -0.02845  -0.30715  -0.08853
  19   25659.1    389.7   0.020003175   0.25665  -0.38791  -0.01695  -0.32539
  20   25797.0    387.6   0.006909812   0.08818   0.13032  -0.11895   0.23885
  21   25909.2    386.0   0.072709446   0.92387  -0.89031  -0.04812  -0.35905
  22   26009.7    384.5   0.000116186   0.00147   0.01381  -0.00128   0.03575
  23   26273.0    380.6   0.004646303   0.05822   0.20356  -0.03181   0.12558
  24   26320.9    379.9   0.058403026   0.73048  -0.73597  -0.34108  -0.26924
  25   26588.9    376.1   0.000350511   0.00434  -0.06265  -0.00924   0.01814
  26   26875.5    372.1   0.000532013   0.00652   0.00420   0.03231  -0.07386
  27   27013.7    370.2   0.010972326   0.13372   0.31813   0.17778  -0.03012
  28   27092.1    369.1   0.040210193   0.48862  -0.25176   0.58932  -0.27917
  29   27127.8    368.6   0.006447438   0.07824  -0.27004   0.06760  -0.02741
  30   27192.1    367.8   0.028479356   0.34480  -0.53910   0.16832  -0.16073
  31   27460.2    364.2   0.014019771   0.16808   0.36486  -0.07570   0.17094
  32   27573.8    362.7   0.079240935   0.94608   0.68468  -0.48428   0.49272
  33   27691.7    361.1   0.038317839   0.45554   0.64009   0.10556   0.18625
  34   27902.4    358.4   0.024123812   0.28463  -0.45292  -0.14773   0.24014
  35   28076.3    356.2   0.006750118   0.07915  -0.26428   0.05246  -0.08094
  36   28268.9    353.7   0.004383955   0.05105  -0.21627  -0.04565   0.04690
  37   28487.0    351.0   0.002105661   0.02433   0.07608   0.10975  -0.08062
  38   28556.0    350.2   0.003791802   0.04371  -0.05174  -0.15271   0.13310
  39   28808.5    347.1   0.002971898   0.03396   0.11090   0.13405  -0.06077
  40   28985.2    345.0   0.009692233   0.11008   0.26380   0.17401   0.10107
  41   29192.5    342.6   0.019880895   0.22420   0.14949   0.25374  -0.37077
  42   29372.8    340.5   0.004499569   0.05043  -0.20012  -0.05821  -0.08364
  43   29430.4    339.8   0.004380297   0.04900   0.14354   0.16358  -0.04045
  44   29594.1    337.9   0.033541580   0.37312   0.52785   0.14912   0.26882
  45   29798.1    335.6   0.035882802   0.39644   0.62526   0.04646   0.05763
  46   29876.0    334.7   0.023064898   0.25416   0.22313  -0.44508  -0.07920
  47   29974.8    333.6   0.002289218   0.02514   0.14000  -0.06788   0.03055
  48   30106.3    332.2   0.024179072   0.26440  -0.36091  -0.35944  -0.07029
  49   30285.3    330.2   0.010353041   0.11254   0.00833   0.25287  -0.22029
  50   30436.0    328.6   0.003685073   0.03986  -0.00344  -0.13556  -0.14653

-----------------------------------------------------------------------------
         ABSORPTION SPECTRUM VIA TRANSITION VELOCITY DIPOLE MOMENTS
-----------------------------------------------------------------------------
State   Energy    Wavelength   fosc        P2         PX        PY        PZ  
        (cm-1)      (nm)                 (au**2)     (au)      (au)      (au) 
-----------------------------------------------------------------------------
   1   14899.7    671.2   0.410768300   0.04183   0.18317   0.03986   0.08179
   2   16948.1    590.0   0.023080271   0.00267   0.03514   0.00069   0.03792
   3   19195.4    521.0   0.115441130   0.01514   0.09281   0.06131   0.05265
   4   19509.8    512.6   0.016676664   0.00222   0.01691   0.02260   0.03777
   5   20884.0    478.8   0.004683034   0.00067   0.00391  -0.02291   0.01132
   6   21113.6    473.6   0.011006553   0.00159  -0.00407  -0.03790   0.01162
   7   21552.8    464.0   0.028027804   0.00413  -0.04247  -0.04688   0.01126
   8   22016.6    454.2   0.028979637   0.00436  -0.00761  -0.06373   0.01551
   9   22544.6    443.6   0.203537116   0.03136   0.15849   0.01131   0.07820
  10   23409.4    427.2   0.005955009   0.00095   0.00668  -0.00120   0.03011
  11   23543.0    424.8   0.002707896   0.00044  -0.00854   0.01007  -0.01617
  12   23694.9    422.0   0.089705920   0.01453   0.03399  -0.10447   0.04959
  13   24070.5    415.4   0.001751915   0.00029  -0.01465  -0.00041  -0.00857
  14   24323.2    411.1   0.006243430   0.00104   0.02097  -0.02263   0.00929
  15   24687.6    405.1   0.000753721   0.00013  -0.00166   0.00670  -0.00892
  16   24949.9    400.8   0.008087635   0.00138   0.02144  -0.01210   0.02780
  17   25283.2    395.5   0.026031277   0.00450   0.04793   0.04660   0.00541
  18   25354.6    394.4   0.010771005   0.00187   0.02136  -0.03610   0.01033
  19   25659.1    389.7   0.012478937   0.00219   0.04266   0.00986   0.01648
  20   25797.0    387.6   0.008809121   0.00155  -0.02527  -0.02967   0.00584
  21   25909.2    386.0   0.047940650   0.00849   0.05630   0.06770   0.02712
  22   26009.7    384.5   0.002477226   0.00044   0.00938   0.00410  -0.01832
  23   26273.0    380.6   0.000895994   0.00016  -0.01051   0.00375  -0.00603
  24   26320.9    379.9   0.012037250   0.00217   0.03239  -0.01507   0.02982
  25   26588.9    376.1   0.000566628   0.00010  -0.00735   0.00605  -0.00353
  26   26875.5    372.1   0.000390276   0.00007   0.00806   0.00224   0.00130
  27   27013.7    370.2   0.001025808   0.00019  -0.01058   0.00142  -0.00868
  28   27092.1    369.1   0.001209310   0.00022  -0.00651  -0.01141   0.00716
  29   27127.8    368.6   0.000889420   0.00016   0.00503  -0.01095   0.00443
  30   27192.1    367.8   0.002646455   0.00049   0.00203  -0.01698   0.01412
  31   27460.2    364.2   0.005489523   0.00103  -0.01383   0.01883  -0.02201
  32   27573.8    362.7   0.017146265   0.00323  -0.02706   0.02800  -0.04141
  33   27691.7    361.1   0.016244468   0.00307  -0.03232   0.02733  -0.03582
  34   27902.4    358.4   0.004349514   0.00083  -0.00738   0.02696   0.00694
  35   28076.3    356.2   0.001694936   0.00033   0.00662  -0.00979   0.01363
  36   28268.9    353.7   0.000676405   0.00013   0.00874  -0.00248   0.00694
  37   28487.0    351.0   0.000276557   0.00005  -0.00630  -0.00345  -0.00150
  38   28556.0    350.2   0.000968446   0.00019   0.00040   0.01372   0.00074
  39   28808.5    347.1   0.000586443   0.00012  -0.00965   0.00028  -0.00472
  40   28985.2    345.0   0.018188356   0.00360  -0.01733   0.05164  -0.02522
  41   29192.5    342.6   0.003608130   0.00072   0.02204   0.01477  -0.00401
  42   29372.8    340.5   0.003290184   0.00066   0.02064   0.01188   0.00965
  43   29430.4    339.8   0.000977274   0.00020  -0.01041  -0.00833  -0.00435
  44   29594.1    337.9   0.035429656   0.00717  -0.06258  -0.05434  -0.01724
  45   29798.1    335.6   0.008165738   0.00166  -0.02841   0.00378  -0.02901
  46   29876.0    334.7   0.029172764   0.00596   0.04535   0.06176  -0.00924
  47   29974.8    333.6   0.000279738   0.00006   0.00097   0.00573  -0.00486
  48   30106.3    332.2   0.016487144   0.00339   0.04756   0.02494   0.02254
  49   30285.3    330.2   0.006528799   0.00135   0.03292   0.01561   0.00489
  50   30436.0    328.6   0.019573627   0.00407   0.03392   0.05356  -0.00727

-------------------------------------------------------------------
                             CD SPECTRUM
-------------------------------------------------------------------
State  Energy     Wavelength     R         MX        MY        MZ   
       (cm-1)       (nm)     (1e40*cgs)   (au)      (au)      (au)  
-------------------------------------------------------------------
   1   14899.7    671.2    -149.61518   0.52002  -0.28253  -0.69733
   2   16948.1    590.0     -7.24863   0.21397  -0.05728  -0.32955
   3   19195.4    521.0     29.73139   0.11781   0.01269  -0.25253
   4   19509.8    512.6     11.19509   0.16290   0.05618  -0.38891
   5   20884.0    478.8      2.61749   0.10330  -0.05828  -0.16031
   6   21113.6    473.6     -9.86645  -0.20939   0.05185   0.43210
   7   21552.8    464.0     -7.26473  -0.23587   0.06348   0.47854
   8   22016.6    454.2    -15.24604   0.04516  -0.01238  -0.19157
   9   22544.6    443.6     36.05560   0.13525  -0.20551  -0.17943
  10   23409.4    427.2    -20.82107   0.13850  -0.08089  -0.13922
  11   23543.0    424.8    -12.53089  -0.14647   0.08521   0.19986
  12   23694.9    422.0      8.29450   0.10629  -0.07706  -0.15717
  13   24070.5    415.4     -3.28067   0.02347  -0.02178  -0.05389
  14   24323.2    411.1    -24.30335  -0.21037   0.09245   0.32950
  15   24687.6    405.1      0.49689   0.20822  -0.10580  -0.37552
  16   24949.9    400.8     -7.78932   0.02631  -0.02126   0.01367
  17   25283.2    395.5    -13.48704   0.07317  -0.17217  -0.01957
  18   25354.6    394.4     14.67834   0.11695  -0.08823  -0.08315
  19   25659.1    389.7    -17.47612  -0.08741   0.01179   0.21752
  20   25797.0    387.6      6.99398  -0.15379   0.11909   0.20532
  21   25909.2    386.0     32.22821   0.08424   0.10918  -0.41391
  22   26009.7    384.5     -0.26250   0.05601   0.19998  -0.03003
  23   26273.0    380.6     -3.14640   0.08664  -0.04131  -0.20405
  24   26320.9    379.9    -19.68089   0.12494   0.03158  -0.22650
  25   26588.9    376.1     -1.15579   0.04100   0.08082   0.04761
  26   26875.5    372.1      0.53745   0.02356   0.05441   0.00971
  27   27013.7    370.2      2.56825   0.02984  -0.03025  -0.04428
  28   27092.1    369.1     -1.69181  -0.00643   0.02148   0.06399
  29   27127.8    368.6      1.99260  -0.00593   0.03855  -0.00069
  30   27192.1    367.8      4.10036  -0.00819   0.04651   0.02205
  31   27460.2    364.2    -33.87794  -0.18762  -0.04026  -0.03773
  32   27573.8    362.7    -22.70047  -0.06030   0.10106   0.08539
  33   27691.7    361.1     17.60151   0.01881   0.03209   0.11763
  34   27902.4    358.4    -46.73107   0.12976  -0.09581  -0.22698
  35   28076.3    356.2     -3.07838   0.04844  -0.01852  -0.08948
  36   28268.9    353.7     -6.19003   0.04117  -0.00886  -0.09870
  37   28487.0    351.0     -3.32739   0.00238  -0.05021   0.02144
  38   28556.0    350.2     -2.13170  -0.01299   0.03365  -0.00042
  39   28808.5    347.1     -0.81325   0.01607  -0.01517   0.02425
  40   28985.2    345.0      2.07907  -0.04575   0.03595   0.10115
  41   29192.5    342.6      7.03613   0.06402  -0.07471  -0.06557
  42   29372.8    340.5      3.52189  -0.01728  -0.01472  -0.03773
  43   29430.4    339.8     -0.54519   0.02467  -0.02452   0.01700
  44   29594.1    337.9     21.80443  -0.06450   0.08869   0.24949
  45   29798.1    335.6     -8.31744  -0.03894   0.00403   0.11316
  46   29876.0    334.7     16.02126  -0.01708  -0.07848  -0.03620
  47   29974.8    333.6     -1.18080  -0.01866   0.00648   0.01793
  48   30106.3    332.2      3.30681  -0.03448   0.01590  -0.00407
  49   30285.3    330.2    -12.70457  -0.06025  -0.06535   0.04503
  50   30436.0    328.6     21.74491   0.07880  -0.05668  -0.26418

Total run time:   198428.203 sec

           *** ORCA-CIS/TD-DFT FINISHED WITHOUT ERROR ***

-----------------------
CIS/TD-DFT TOTAL ENERGY
-----------------------

    E(SCF)  =  -5360.523172514 Eh
    DE(CIS) =      0.067888100 Eh (Root  1)
    ----------------------------- ---------
    E(tot)  =  -5360.455284414 Eh


-------------------------   --------------------
FINAL SINGLE POINT ENERGY     -5360.455284413984
-------------------------   --------------------


                            ***************************************
                            *     ORCA property calculations      *
                            ***************************************

                                    ---------------------
                                    Active property flags
                                    ---------------------
   (+) Dipole Moment


------------------------------------------------------------------------------
                       ORCA ELECTRIC PROPERTIES CALCULATION
------------------------------------------------------------------------------

Dipole Moment Calculation                       ... on
Quadrupole Moment Calculation                   ... off
Polarizability Calculation                      ... off
GBWName                                         ... IT-4F.gbw
Electron density file                           ... IT-4F.scfp
The origin for moment calculation is the CENTER OF MASS  = (22.632129,  1.069005  3.653548)

-------------
DIPOLE MOMENT
-------------
                                X             Y             Z
Electronic contribution:      8.78680      38.48325     -17.66613
Nuclear contribution   :     -7.16721     -38.68926      17.53427
                        -----------------------------------------
Total Dipole Moment    :      1.61958      -0.20601      -0.13187
                        -----------------------------------------
Magnitude (a.u.)       :      1.63795
Magnitude (Debye)      :      4.16333



--------------------
Rotational spectrum 
--------------------
 
Rotational constants in cm-1:     0.001024     0.000216     0.000202 
Rotational constants in MHz :    30.707515     6.463105     6.068136 

 Dipole components along the rotational axes: 
x,y,z [a.u.] :    -1.311195     0.019164    -0.981465 
x,y,z [Debye]:    -3.332794     0.048711    -2.494686 

 

Timings for individual modules:

Sum of individual times         ...   225253.613 sec (=3754.227 min)
GTO integral calculation        ...       13.065 sec (=   0.218 min)   0.0 %
SCF iterations                  ...    26812.094 sec (= 446.868 min)  11.9 %
CIS module                      ...   198428.455 sec (=3307.141 min)  88.1 %
                             ****ORCA TERMINATED NORMALLY****
TOTAL RUN TIME: 2 days 14 hours 34 minutes 15 seconds 990 msec
