
                                 *****************
                                 * O   R   C   A *
                                 *****************

           --- An Ab Initio, DFT and Semiempirical electronic structure package ---

                  #######################################################
                  #                        -***-                        #
                  #          Department of theory and spectroscopy      #
                  #               Directorship: Frank Neese             #
                  #        Max Planck Institute fuer Kohlenforschung    #
                  #                Kaiser Wilhelm Platz 1               #
                  #                 D-45470 Muelheim/Ruhr               #
                  #                      Germany                        #
                  #                                                     #
                  #                  All rights reserved                #
                  #                        -***-                        #
                  #######################################################


                         Program Version 4.2.0 -  RELEASE  -


 With contributions from (in alphabetic order):
   Daniel Aravena         : Magnetic Suceptibility
   Michael Atanasov       : Ab Initio Ligand Field Theory (pilot matlab implementation)
   Alexander A. Auer      : GIAO ZORA, VPT2
   Ute Becker             : Parallelization
   Giovanni Bistoni       : ED, misc. LED, open-shell LED, HFLED
   Martin Brehm           : Molecular dynamics
   Dmytro Bykov           : SCF Hessian
   Vijay G. Chilkuri      : MRCI spin determinant printing, contributions to CSF-ICE
   Dipayan Datta          : RHF DLPNO-CCSD density
   Achintya Kumar Dutta   : EOM-CC, STEOM-CC
   Dmitry Ganyushin       : Spin-Orbit,Spin-Spin,Magnetic field MRCI
   Miquel Garcia          : C-PCM Hessian, Gaussian charge scheme
   Yang Guo               : DLPNO-NEVPT2, CIM, IAO-localization
   Andreas Hansen         : Spin unrestricted coupled pair/coupled cluster methods
   Benjamin Helmich-Paris : CASSCF linear response (MC-RPA)
   Lee Huntington         : MR-EOM, pCC
   Robert Izsak           : Overlap fitted RIJCOSX, COSX-SCS-MP3, EOM
   Christian Kollmar      : KDIIS, OOCD, Brueckner-CCSD(T), CCSD density
   Simone Kossmann        : Meta GGA functionals, TD-DFT gradient, OOMP2, MP2 Hessian
   Martin Krupicka        : AUTO-CI
   Lucas Lang             : DCDCAS
   Dagmar Lenk            : GEPOL surface, SMD
   Dimitrios Liakos       : Extrapolation schemes; Compound Job, initial MDCI parallelization
   Dimitrios Manganas     : Further ROCIS development; embedding schemes
   Dimitrios Pantazis     : SARC Basis sets
   Taras Petrenko         : DFT Hessian,TD-DFT gradient, ASA, ECA, R-Raman, ABS, FL, XAS/XES, NRVS
   Peter Pinski           : DLPNO-MP2, DLPNO-MP2 Gradient
   Christoph Reimann      : Effective Core Potentials
   Marius Retegan         : Local ZFS, SOC
   Christoph Riplinger    : Optimizer, TS searches, QM/MM, DLPNO-CCSD(T), (RO)-DLPNO pert. Triples
   Tobias Risthaus        : Range-separated hybrids, TD-DFT gradient, RPA, STAB
   Michael Roemelt        : Original ROCIS implementation
   Masaaki Saitow         : Open-shell DLPNO-CCSD energy and density
   Barbara Sandhoefer     : DKH picture change effects
   Avijit Sen             : IP-ROCIS
   Kantharuban Sivalingam : CASSCF convergence, NEVPT2, FIC-MRCI
   Bernardo de Souza      : ESD, SOC TD-DFT
   Georgi Stoychev        : AutoAux, RI-MP2 NMR
   Willem Van den Heuvel  : Paramagnetic NMR
   Boris Wezisla          : Elementary symmetry handling
   Frank Wennmohs         : Technical directorship


 We gratefully acknowledge several colleagues who have allowed us to
 interface, adapt or use parts of their codes:
   Stefan Grimme, W. Hujo, H. Kruse,             : VdW corrections, initial TS optimization,
                  C. Bannwarth                     DFT functionals, gCP, sTDA/sTD-DF
   Ed Valeev, F. Pavosevic, A. Kumar             : LibInt (2-el integral package), F12 methods
   Garnet Chan, S. Sharma, J. Yang, R. Olivares  : DMRG
   Ulf Ekstrom                                   : XCFun DFT Library
   Mihaly Kallay                                 : mrcc  (arbitrary order and MRCC methods)
   Andreas Klamt, Michael Diedenhofen            : otool_cosmo (COSMO solvation model)
   Jiri Pittner, Ondrej Demel                    : Mk-CCSD
   Frank Weinhold                                : gennbo (NPA and NBO analysis)
   Christopher J. Cramer and Donald G. Truhlar   : smd solvation model
   Lars Goerigk                                  : TD-DFT with DH, B97 family of functionals
   V. Asgeirsson, H. Jonsson                     : NEB implementation
   FAccTs GmbH                                   : IRC, NEB, NEB-TS, Multilevel, MM, QM/MM, CI optimization
   S Lehtola, MJT Oliveira, MAL Marques          : LibXC Library


 Your calculation uses the libint2 library for the computation of 2-el integrals
 For citations please refer to: http://libint.valeyev.net

 Your ORCA version has been built with support for libXC version: 4.2.3
 For citations please refer to: https://tddft.org/programs/libxc/

 This ORCA versions uses:
   CBLAS   interface :  Fast vector & matrix operations
   LAPACKE interface :  Fast linear algebra routines
   SCALAPACK package :  Parallel linear algebra routines


----- Orbital basis set information -----
Your calculation utilizes the basis: def2-TZVP
   F. Weigend and R. Ahlrichs, Phys. Chem. Chem. Phys. 7, 3297 (2005).

----- AuxJ basis set information -----
Your calculation utilizes the auxiliary basis: def2/J
   F. Weigend, Phys. Chem. Chem. Phys. 8, 1057 (2006).

================================================================================
                                        WARNINGS
                       Please study these warnings very carefully!
================================================================================

INFO   : Checking CIS options ...

WARNING: CIS/ROCIS methods need fully converged wavefunctions
  ===> : Setting SCFConvForced true
         You can overwrite this default with %scf ConvForced false 


INFO   : the flag for use of LIBINT has been found!

================================================================================
                                       INPUT FILE
================================================================================
NAME = ITIC.inp
|  1> # ORCA input file
|  2> # ITIC.out: Geometry 45
|  3> ! B3LYP def2-TZVP def2/J RIJCOSX Grid4 TightSCF
|  4> 
|  5> %maxcore 6000
|  6> %tddft
|  7>   maxdim 5
|  8>   nroots 50
|  9>   end
| 10> %pal
| 11>   nprocs 6
| 12>   end
| 13> 
| 14> 
| 15> * xyz 0 1
| 16>    C       -2.43342         0.51405         1.19871
| 17>    O       -2.96620         0.98486         2.18211
| 18>    C       -1.27233         1.06481         0.44706
| 19>    C       -0.51399         2.19310         0.73849
| 20>    C        0.56259         2.49875        -0.10135
| 21>    C        0.85608         1.67989        -1.20192
| 22>    C        0.08178         0.55214        -1.50405
| 23>    C       -0.99592         0.24025        -0.66651
| 24>    C       -2.01972        -0.83340        -0.72923
| 25>    C       -2.36070        -1.54400        -1.86658
| 26>    C       -3.56607        -2.30682        -1.97335
| 27>    N       -4.56151        -2.88872        -2.11708
| 28>    C       -1.60156        -1.49160        -3.07605
| 29>    N       -1.00053        -1.49487        -4.07139
| 30>    C       -2.76300        -0.78845         0.52705
| 31>    C       -3.55451        -1.69272         1.18974
| 32>    C       -3.65822        -3.10397         1.03016
| 33>    C       -4.72326        -3.91077         1.44351
| 34>    C       -4.52509        -5.25843         1.09769
| 35>    C       -3.28533        -5.50043         0.45985
| 36>    S       -2.36584        -4.05105         0.28410
| 37>    C       -3.10275        -6.84681         0.10293
| 38>    C       -2.09082        -7.64728        -0.70029
| 39>    C       -0.71729        -7.75335        -0.03511
| 40>    C       -0.50116        -7.35913         1.28953
| 41>    C        0.75407        -7.51322         1.88403
| 42>    C        1.82781        -8.07457         1.18285
| 43>    C        3.16053        -8.30637         1.85437
| 44>    C        3.23134        -9.67744         2.54328
| 45>    C        1.60621        -8.46553        -0.14738
| 46>    C        0.36061        -8.29855        -0.74913
| 47>    C       -2.02790        -6.96942        -2.08153
| 48>    C       -2.92786        -7.30060        -3.10365
| 49>    C       -2.98342        -6.54403        -4.27470
| 50>    C       -2.15255        -5.42797        -4.46471
| 51>    C       -2.24648        -4.58183        -5.71646
| 52>    C       -3.64730        -4.00251        -5.96113
| 53>    C       -1.24109        -5.11476        -3.44625
| 54>    C       -1.17554        -5.87369        -2.27596
| 55>    C       -2.77840        -9.02816        -0.70693
| 56>    C       -4.02573        -8.98206        -0.01972
| 57>    C       -4.20162        -7.62156         0.44509
| 58>    S       -5.47617        -6.73173         1.23558
| 59>    C       -4.84045       -10.11942         0.09985
| 60>    C       -4.38829       -11.30616        -0.45725
| 61>    C       -5.08443       -12.68296        -0.48348
| 62>    C       -5.27261       -13.32589         0.90068
| 63>    C       -6.16068       -14.40202         1.04428
| 64>    C       -6.27538       -15.08271         2.25524
| 65>    C       -5.51237       -14.71189         3.37346
| 66>    C       -5.62601       -15.45136         4.69036
| 67>    C       -7.04560       -15.88241         5.06719
| 68>    C       -4.62541       -13.63496         3.22135
| 69>    C       -4.49986       -12.95576         2.00690
| 70>    C       -6.41314       -12.56416        -1.23932
| 71>    C       -6.55713       -12.97890        -2.56715
| 72>    C       -7.77588       -12.82393        -3.23400
| 73>    C       -8.88204       -12.24232        -2.60334
| 74>    C      -10.17289       -12.00826        -3.35141
| 75>    C      -10.18225       -10.65236        -4.07295
| 76>    C       -8.73130       -11.82815        -1.27031
| 77>    C       -7.52328       -11.99434        -0.59742
| 78>    C       -4.03961       -13.50034        -1.22484
| 79>    C       -2.94166       -12.72279        -1.56501
| 80>    C       -3.13379       -11.35530        -1.12967
| 81>    C       -2.32358       -10.21589        -1.25843
| 82>    S       -1.64687       -13.61373        -2.31786
| 83>    C       -2.58575       -15.09222        -2.16710
| 84>    C       -3.83880       -14.85145        -1.55477
| 85>    S       -4.74319       -16.31014        -1.36724
| 86>    C       -3.42432       -17.25567        -2.06958
| 87>    C       -2.36447       -16.44366        -2.48276
| 88>    C       -3.49482       -18.67539        -2.17377
| 89>    C       -4.25186       -19.56674        -1.45589
| 90>    C       -4.97189       -19.47112        -0.18896
| 91>    C       -4.62548       -18.68364         0.89493
| 92>    C       -5.37518       -18.66096         2.10991
| 93>    N       -5.97797       -18.60706         3.10255
| 94>    C       -3.42496       -17.90695         0.92584
| 95>    N       -2.42504       -17.31892         0.98839
| 96>    C       -5.96089       -20.57742        -0.16461
| 97>    C       -7.00108       -20.88033         0.72255
| 98>    C       -7.73340       -22.05638         0.51437
| 99>    C       -7.43466       -22.92977        -0.54214
|100>    C       -6.39723       -22.63192        -1.43262
|101>    C       -5.68025       -21.45715        -1.23433
|102>    C       -4.55664       -20.91316        -2.04669
|103>    O       -4.03261       -21.42254        -3.01547
|104>    H       -0.76909         2.81076         1.60209
|105>    H        1.18247         3.37510         0.10068
|106>    H        1.70493         1.92730        -1.84348
|107>    H        0.33368        -0.06243        -2.36661
|108>    H       -4.12264        -1.26113         2.02397
|109>    H       -5.60995        -3.50370         1.92996
|110>    H       -1.31749        -6.92612         1.86928
|111>    H        0.90022        -7.18507         2.91678
|112>    H        3.34201        -7.51291         2.59777
|113>    H        3.96747        -8.22218         1.10704
|114>    H        2.45907        -9.76826         3.32334
|115>    H        4.21210        -9.84099         3.01830
|116>    H        3.05968       -10.48881         1.81854
|117>    H        2.42716        -8.90112        -0.72394
|118>    H        0.22539        -8.57775        -1.79595
|119>    H       -3.60200        -8.14941        -2.97770
|120>    H       -3.69595        -6.82364        -5.05505
|121>    H       -1.94349        -5.19234        -6.58695
|122>    H       -1.52031        -3.75788        -5.64353
|123>    H       -4.38496        -4.79504        -6.16291
|124>    H       -3.64670        -3.32252        -6.82765
|125>    H       -3.99956        -3.43900        -5.08309
|126>    H       -0.58216        -4.25221        -3.56801
|127>    H       -0.45959        -5.60093        -1.49763
|128>    H       -5.79666       -10.06618         0.62007
|129>    H       -6.78109       -14.70884         0.19976
|130>    H       -6.96961       -15.92128         2.32858
|131>    H       -5.19699       -14.81832         5.48465
|132>    H       -4.98968       -16.35298         4.64374
|133>    H       -7.73545       -15.02328         5.08170
|134>    H       -7.05652       -16.35149         6.06397
|135>    H       -7.43432       -16.63083         4.36210
|136>    H       -4.01747       -13.31682         4.07286
|137>    H       -3.79476       -12.12673         1.92359
|138>    H       -5.71379       -13.43101        -3.09110
|139>    H       -7.86693       -13.16957        -4.26733
|140>    H      -11.01986       -12.06204        -2.64681
|141>    H      -10.32714       -12.81555        -4.08623
|142>    H      -10.03687        -9.82769        -3.35736
|143>    H      -11.13234       -10.48325        -4.60489
|144>    H       -9.36590       -10.59283        -4.81024
|145>    H       -9.57910       -11.37436        -0.74925
|146>    H       -7.44506       -11.69654         0.44978
|147>    H       -1.36499       -10.27039        -1.77413
|148>    H       -1.46235       -16.84846        -2.94200
|149>    H       -2.92433       -19.12889        -2.99466
|150>    H       -7.25345       -20.22441         1.55401
|151>    H       -8.55185       -22.29927         1.19602
|152>    H       -8.01847       -23.84407        -0.66849
|153>    H       -6.13867       -23.29233        -2.26308
|154> *
|155> 
|156>                          ****END OF INPUT****
================================================================================

                       ****************************
                       * Single Point Calculation *
                       ****************************

---------------------------------
CARTESIAN COORDINATES (ANGSTROEM)
---------------------------------
  C     -2.433420    0.514050    1.198710
  O     -2.966200    0.984860    2.182110
  C     -1.272330    1.064810    0.447060
  C     -0.513990    2.193100    0.738490
  C      0.562590    2.498750   -0.101350
  C      0.856080    1.679890   -1.201920
  C      0.081780    0.552140   -1.504050
  C     -0.995920    0.240250   -0.666510
  C     -2.019720   -0.833400   -0.729230
  C     -2.360700   -1.544000   -1.866580
  C     -3.566070   -2.306820   -1.973350
  N     -4.561510   -2.888720   -2.117080
  C     -1.601560   -1.491600   -3.076050
  N     -1.000530   -1.494870   -4.071390
  C     -2.763000   -0.788450    0.527050
  C     -3.554510   -1.692720    1.189740
  C     -3.658220   -3.103970    1.030160
  C     -4.723260   -3.910770    1.443510
  C     -4.525090   -5.258430    1.097690
  C     -3.285330   -5.500430    0.459850
  S     -2.365840   -4.051050    0.284100
  C     -3.102750   -6.846810    0.102930
  C     -2.090820   -7.647280   -0.700290
  C     -0.717290   -7.753350   -0.035110
  C     -0.501160   -7.359130    1.289530
  C      0.754070   -7.513220    1.884030
  C      1.827810   -8.074570    1.182850
  C      3.160530   -8.306370    1.854370
  C      3.231340   -9.677440    2.543280
  C      1.606210   -8.465530   -0.147380
  C      0.360610   -8.298550   -0.749130
  C     -2.027900   -6.969420   -2.081530
  C     -2.927860   -7.300600   -3.103650
  C     -2.983420   -6.544030   -4.274700
  C     -2.152550   -5.427970   -4.464710
  C     -2.246480   -4.581830   -5.716460
  C     -3.647300   -4.002510   -5.961130
  C     -1.241090   -5.114760   -3.446250
  C     -1.175540   -5.873690   -2.275960
  C     -2.778400   -9.028160   -0.706930
  C     -4.025730   -8.982060   -0.019720
  C     -4.201620   -7.621560    0.445090
  S     -5.476170   -6.731730    1.235580
  C     -4.840450  -10.119420    0.099850
  C     -4.388290  -11.306160   -0.457250
  C     -5.084430  -12.682960   -0.483480
  C     -5.272610  -13.325890    0.900680
  C     -6.160680  -14.402020    1.044280
  C     -6.275380  -15.082710    2.255240
  C     -5.512370  -14.711890    3.373460
  C     -5.626010  -15.451360    4.690360
  C     -7.045600  -15.882410    5.067190
  C     -4.625410  -13.634960    3.221350
  C     -4.499860  -12.955760    2.006900
  C     -6.413140  -12.564160   -1.239320
  C     -6.557130  -12.978900   -2.567150
  C     -7.775880  -12.823930   -3.234000
  C     -8.882040  -12.242320   -2.603340
  C    -10.172890  -12.008260   -3.351410
  C    -10.182250  -10.652360   -4.072950
  C     -8.731300  -11.828150   -1.270310
  C     -7.523280  -11.994340   -0.597420
  C     -4.039610  -13.500340   -1.224840
  C     -2.941660  -12.722790   -1.565010
  C     -3.133790  -11.355300   -1.129670
  C     -2.323580  -10.215890   -1.258430
  S     -1.646870  -13.613730   -2.317860
  C     -2.585750  -15.092220   -2.167100
  C     -3.838800  -14.851450   -1.554770
  S     -4.743190  -16.310140   -1.367240
  C     -3.424320  -17.255670   -2.069580
  C     -2.364470  -16.443660   -2.482760
  C     -3.494820  -18.675390   -2.173770
  C     -4.251860  -19.566740   -1.455890
  C     -4.971890  -19.471120   -0.188960
  C     -4.625480  -18.683640    0.894930
  C     -5.375180  -18.660960    2.109910
  N     -5.977970  -18.607060    3.102550
  C     -3.424960  -17.906950    0.925840
  N     -2.425040  -17.318920    0.988390
  C     -5.960890  -20.577420   -0.164610
  C     -7.001080  -20.880330    0.722550
  C     -7.733400  -22.056380    0.514370
  C     -7.434660  -22.929770   -0.542140
  C     -6.397230  -22.631920   -1.432620
  C     -5.680250  -21.457150   -1.234330
  C     -4.556640  -20.913160   -2.046690
  O     -4.032610  -21.422540   -3.015470
  H     -0.769090    2.810760    1.602090
  H      1.182470    3.375100    0.100680
  H      1.704930    1.927300   -1.843480
  H      0.333680   -0.062430   -2.366610
  H     -4.122640   -1.261130    2.023970
  H     -5.609950   -3.503700    1.929960
  H     -1.317490   -6.926120    1.869280
  H      0.900220   -7.185070    2.916780
  H      3.342010   -7.512910    2.597770
  H      3.967470   -8.222180    1.107040
  H      2.459070   -9.768260    3.323340
  H      4.212100   -9.840990    3.018300
  H      3.059680  -10.488810    1.818540
  H      2.427160   -8.901120   -0.723940
  H      0.225390   -8.577750   -1.795950
  H     -3.602000   -8.149410   -2.977700
  H     -3.695950   -6.823640   -5.055050
  H     -1.943490   -5.192340   -6.586950
  H     -1.520310   -3.757880   -5.643530
  H     -4.384960   -4.795040   -6.162910
  H     -3.646700   -3.322520   -6.827650
  H     -3.999560   -3.439000   -5.083090
  H     -0.582160   -4.252210   -3.568010
  H     -0.459590   -5.600930   -1.497630
  H     -5.796660  -10.066180    0.620070
  H     -6.781090  -14.708840    0.199760
  H     -6.969610  -15.921280    2.328580
  H     -5.196990  -14.818320    5.484650
  H     -4.989680  -16.352980    4.643740
  H     -7.735450  -15.023280    5.081700
  H     -7.056520  -16.351490    6.063970
  H     -7.434320  -16.630830    4.362100
  H     -4.017470  -13.316820    4.072860
  H     -3.794760  -12.126730    1.923590
  H     -5.713790  -13.431010   -3.091100
  H     -7.866930  -13.169570   -4.267330
  H    -11.019860  -12.062040   -2.646810
  H    -10.327140  -12.815550   -4.086230
  H    -10.036870   -9.827690   -3.357360
  H    -11.132340  -10.483250   -4.604890
  H     -9.365900  -10.592830   -4.810240
  H     -9.579100  -11.374360   -0.749250
  H     -7.445060  -11.696540    0.449780
  H     -1.364990  -10.270390   -1.774130
  H     -1.462350  -16.848460   -2.942000
  H     -2.924330  -19.128890   -2.994660
  H     -7.253450  -20.224410    1.554010
  H     -8.551850  -22.299270    1.196020
  H     -8.018470  -23.844070   -0.668490
  H     -6.138670  -23.292330   -2.263080

----------------------------
CARTESIAN COORDINATES (A.U.)
----------------------------
  NO LB      ZA    FRAG     MASS         X           Y           Z
   0 C     6.0000    0    12.011   -4.598497    0.971414    2.265234
   1 O     8.0000    0    15.999   -5.605306    1.861116    4.123590
   2 C     6.0000    0    12.011   -2.404355    2.012199    0.844821
   3 C     6.0000    0    12.011   -0.971300    4.144358    1.395544
   4 C     6.0000    0    12.011    1.063141    4.721953   -0.191524
   5 C     6.0000    0    12.011    1.617757    3.174532   -2.271300
   6 C     6.0000    0    12.011    0.154542    1.043393   -2.842243
   7 C     6.0000    0    12.011   -1.882016    0.454007   -1.259521
   8 C     6.0000    0    12.011   -3.816718   -1.574898   -1.378045
   9 C     6.0000    0    12.011   -4.461076   -2.917737   -3.527325
  10 C     6.0000    0    12.011   -6.738896   -4.359258   -3.729091
  11 N     7.0000    0    14.007   -8.620005   -5.458890   -4.000701
  12 C     6.0000    0    12.011   -3.026510   -2.818716   -5.812892
  13 N     7.0000    0    14.007   -1.890728   -2.824895   -7.693812
  14 C     6.0000    0    12.011   -5.221313   -1.489955    0.995980
  15 C     6.0000    0    12.011   -6.717050   -3.198777    2.248283
  16 C     6.0000    0    12.011   -6.913034   -5.865653    1.946720
  17 C     6.0000    0    12.011   -8.925668   -7.390284    2.727839
  18 C     6.0000    0    12.011   -8.551181   -9.936993    2.074333
  19 C     6.0000    0    12.011   -6.208374  -10.394306    0.868991
  20 S    16.0000    0    32.060   -4.470790   -7.655375    0.536871
  21 C     6.0000    0    12.011   -5.863348  -12.938596    0.194510
  22 C     6.0000    0    12.011   -3.951077  -14.451265   -1.323356
  23 C     6.0000    0    12.011   -1.355482  -14.651708   -0.066348
  24 C     6.0000    0    12.011   -0.947055  -13.906740    2.436859
  25 C     6.0000    0    12.011    1.424986  -14.197928    3.560301
  26 C     6.0000    0    12.011    3.454060  -15.258726    2.235263
  27 C     6.0000    0    12.011    5.972536  -15.696764    3.504251
  28 C     6.0000    0    12.011    6.106348  -18.287711    4.806103
  29 C     6.0000    0    12.011    3.035297  -15.997533   -0.278508
  30 C     6.0000    0    12.011    0.681454  -15.681987   -1.415651
  31 C     6.0000    0    12.011   -3.832176  -13.170295   -3.933522
  32 C     6.0000    0    12.011   -5.532854  -13.796135   -5.865049
  33 C     6.0000    0    12.011   -5.637847  -12.366425   -8.078012
  34 C     6.0000    0    12.011   -4.067730  -10.257377   -8.437079
  35 C     6.0000    0    12.011   -4.245232   -8.658404  -10.802544
  36 C     6.0000    0    12.011   -6.892398   -7.563648  -11.264903
  37 C     6.0000    0    12.011   -2.345320   -9.665496   -6.512469
  38 C     6.0000    0    12.011   -2.221449  -11.099665   -4.300941
  39 C     6.0000    0    12.011   -5.250415  -17.060750   -1.335904
  40 C     6.0000    0    12.011   -7.607527  -16.973634   -0.037265
  41 C     6.0000    0    12.011   -7.939911  -14.402661    0.841098
  42 S    16.0000    0    32.060  -10.348462  -12.721126    2.334908
  43 C     6.0000    0    12.011   -9.147125  -19.122932    0.188689
  44 C     6.0000    0    12.011   -8.292666  -21.365546   -0.864077
  45 C     6.0000    0    12.011   -9.608180  -23.967321   -0.913645
  46 C     6.0000    0    12.011   -9.963789  -25.182283    1.702039
  47 C     6.0000    0    12.011  -11.641998  -27.215874    1.973403
  48 C     6.0000    0    12.011  -11.858750  -28.502191    4.261786
  49 C     6.0000    0    12.011  -10.416870  -27.801443    6.374916
  50 C     6.0000    0    12.011  -10.631618  -29.198839    8.863496
  51 C     6.0000    0    12.011  -13.314254  -30.013405    9.575601
  52 C     6.0000    0    12.011   -8.740758  -25.766340    6.087469
  53 C     6.0000    0    12.011   -8.503503  -24.482838    3.792491
  54 C     6.0000    0    12.011  -12.119078  -23.742822   -2.341975
  55 C     6.0000    0    12.011  -12.391180  -24.526567   -4.851210
  56 C     6.0000    0    12.011  -14.694284  -24.233716   -6.111374
  57 C     6.0000    0    12.011  -16.784623  -23.134632   -4.919600
  58 C     6.0000    0    12.011  -19.223976  -22.692323   -6.333247
  59 C     6.0000    0    12.011  -19.241664  -20.130043   -7.696760
  60 C     6.0000    0    12.011  -16.499766  -22.351964   -2.400538
  61 C     6.0000    0    12.011  -14.216939  -22.666018   -1.128960
  62 C     6.0000    0    12.011   -7.633757  -25.511945   -2.314612
  63 C     6.0000    0    12.011   -5.558932  -24.042589   -2.957440
  64 C     6.0000    0    12.011   -5.922005  -21.458407   -2.134767
  65 C     6.0000    0    12.011   -4.390930  -19.305234   -2.378088
  66 S    16.0000    0    32.060   -3.112133  -25.726221   -4.380121
  67 C     6.0000    0    12.011   -4.886359  -28.520163   -4.095226
  68 C     6.0000    0    12.011   -7.254281  -28.065173   -2.938090
  69 S    16.0000    0    32.060   -8.963330  -30.821698   -2.583709
  70 C     6.0000    0    12.011   -6.471027  -32.608491   -3.910939
  71 C     6.0000    0    12.011   -4.468201  -31.074014   -4.691736
  72 C     6.0000    0    12.011   -6.604253  -35.291373   -4.107830
  73 C     6.0000    0    12.011   -8.034851  -36.975780   -2.751233
  74 C     6.0000    0    12.011   -9.395510  -36.795084   -0.357083
  75 C     6.0000    0    12.011   -8.740890  -35.306963    1.691173
  76 C     6.0000    0    12.011  -10.157618  -35.264104    3.987152
  77 N     7.0000    0    14.007  -11.296726  -35.162248    5.862970
  78 C     6.0000    0    12.011   -6.472236  -33.839231    1.749584
  79 N     7.0000    0    14.007   -4.582661  -32.728016    1.867786
  80 C     6.0000    0    12.011  -11.264450  -38.885688   -0.311068
  81 C     6.0000    0    12.011  -13.230124  -39.458105    1.365422
  82 C     6.0000    0    12.011  -14.614008  -41.680518    0.972018
  83 C     6.0000    0    12.011  -14.049471  -43.330986   -1.024496
  84 C     6.0000    0    12.011  -12.089013  -42.768131   -2.707259
  85 C     6.0000    0    12.011  -10.734117  -40.548137   -2.332546
  86 C     6.0000    0    12.011   -8.610802  -39.520145   -3.867684
  87 O     8.0000    0    15.999   -7.620529  -40.482734   -5.698412
  88 H     1.0000    0     1.008   -1.453369    5.311567    3.027511
  89 H     1.0000    0     1.008    2.234544    6.378015    0.190258
  90 H     1.0000    0     1.008    3.221851    3.642069   -3.483672
  91 H     1.0000    0     1.008    0.630564   -0.117976   -4.472245
  92 H     1.0000    0     1.008   -7.790661   -2.383190    3.824749
  93 H     1.0000    0     1.008  -10.601269   -6.621033    3.647096
  94 H     1.0000    0     1.008   -2.489695  -13.088470    3.532427
  95 H     1.0000    0     1.008    1.701169  -13.577815    5.511915
  96 H     1.0000    0     1.008    6.315484  -14.197342    4.909074
  97 H     1.0000    0     1.008    7.497432  -15.537668    2.092002
  98 H     1.0000    0     1.008    4.646969  -18.459336    6.280202
  99 H     1.0000    0     1.008    7.959715  -18.596776    5.703760
 100 H     1.0000    0     1.008    5.781957  -19.820978    3.436543
 101 H     1.0000    0     1.008    4.586668  -16.820679   -1.368048
 102 H     1.0000    0     1.008    0.425925  -16.209598   -3.393854
 103 H     1.0000    0     1.008   -6.806794  -15.400153   -5.627038
 104 H     1.0000    0     1.008   -6.984333  -12.894811   -9.552660
 105 H     1.0000    0     1.008   -3.672664   -9.812101  -12.447532
 106 H     1.0000    0     1.008   -2.872970   -7.101364  -10.664726
 107 H     1.0000    0     1.008   -8.286374   -9.061312  -11.646212
 108 H     1.0000    0     1.008   -6.891264   -6.278653  -12.902389
 109 H     1.0000    0     1.008   -7.558073   -6.498768   -9.605648
 110 H     1.0000    0     1.008   -1.100123   -8.035512   -6.742562
 111 H     1.0000    0     1.008   -0.868499  -10.584224   -2.830111
 112 H     1.0000    0     1.008  -10.954100  -19.022323    1.171762
 113 H     1.0000    0     1.008  -12.814403  -27.795679    0.377492
 114 H     1.0000    0     1.008  -13.170654  -30.086859    4.400378
 115 H     1.0000    0     1.008   -9.820888  -28.002567   10.364486
 116 H     1.0000    0     1.008   -9.429129  -30.902654    8.775397
 117 H     1.0000    0     1.008  -14.617882  -28.389885    9.603021
 118 H     1.0000    0     1.008  -13.334890  -30.899838   11.459243
 119 H     1.0000    0     1.008  -14.048829  -31.427714    8.243174
 120 H     1.0000    0     1.008   -7.591918  -25.165143    7.696590
 121 H     1.0000    0     1.008   -7.171057  -22.916199    3.635058
 122 H     1.0000    0     1.008  -10.797498  -25.380931   -5.841332
 123 H     1.0000    0     1.008  -14.866343  -24.886881   -8.064085
 124 H     1.0000    0     1.008  -20.824517  -22.793952   -5.001746
 125 H     1.0000    0     1.008  -19.515466  -24.217880   -7.721856
 126 H     1.0000    0     1.008  -18.966936  -18.571643   -6.344491
 127 H     1.0000    0     1.008  -21.037074  -19.810471   -8.701981
 128 H     1.0000    0     1.008  -17.698986  -20.017548   -9.090036
 129 H     1.0000    0     1.008  -18.101876  -21.494425   -1.415877
 130 H     1.0000    0     1.008  -14.069124  -22.103257    0.849961
 131 H     1.0000    0     1.008   -2.579457  -19.408224   -3.352620
 132 H     1.0000    0     1.008   -2.763441  -31.838975   -5.559574
 133 H     1.0000    0     1.008   -5.526183  -36.148363   -5.659087
 134 H     1.0000    0     1.008  -13.707034  -38.218596    2.936653
 135 H     1.0000    0     1.008  -16.160654  -42.139513    2.260150
 136 H     1.0000    0     1.008  -15.152712  -45.058762   -1.263263
 137 H     1.0000    0     1.008  -11.600405  -44.016125   -4.276601

--------------------------------
INTERNAL COORDINATES (ANGSTROEM)
--------------------------------
 C      0   0   0     0.000000000000     0.00000000     0.00000000
 O      1   0   0     1.213504076837     0.00000000     0.00000000
 C      1   2   0     1.488772745653   127.44673540     0.00000000
 C      3   1   2     1.390341441733   128.29938267     3.20367518
 C      4   3   1     1.399206076495   118.10756548   178.32166030
 C      5   4   3     1.402826576808   120.28900815   359.97451404
 C      6   5   4     1.400943642478   121.56426261     0.79775538
 C      7   6   5     1.400066396176   118.40847038   359.14678331
 C      8   7   6     1.484865165899   131.80068584   177.63764484
 C      9   8   7     1.383757472572   125.16499518   339.68108841
 C     10   9   8     1.430458325922   122.87719045   196.84726630
 N     11  10   9     1.161966745006   176.53390378   123.59206247
 C     10   9   8     1.428935611041   123.08948938    11.36132427
 N     13  10   9     1.162733619278   177.53047619   153.21681479
 C      9   8   7     1.460385257150   106.99764667   171.28454583
 C     15   9   8     1.372352122853   133.52428933   199.80570093
 C     16  15   9     1.424025316840   129.85890821    17.37314293
 C     17  16  15     1.398604541713   126.44317698   199.71704044
 C     18  17  16     1.405364826976   111.90510275   178.27433042
 C     19  18  17     1.415064918369   113.48145001     2.13912843
 S     20  19  18     1.725413662575   111.66297566   359.80468305
 C     20  19  18     1.404801212699   113.09737287   180.74136964
 C     22  20  19     1.519841081890   136.51761896   172.10631987
 C     23  22  20     1.529803888804   113.86114303    69.45588852
 C     24  23  22     1.398854072053   122.06814253    10.98841277
 C     25  24  23     1.397417736756   120.70153780   177.67969338
 C     26  25  24     1.399887424938   121.33908436   359.42657393
 C     27  26  25     1.510236057310   121.04383656   183.32246713
 C     28  27  26     1.536048172780   112.15432396    88.13486896
 C     27  26  25     1.404089788618   117.71899163     0.70796110
 C     30  27  26     1.393378894235   121.12214956     0.08971885
 C     23  22  20     1.539895140456   105.62859139   305.42933802
 C     32  23  22     1.401548246904   121.59339009   274.11041235
 C     33  32  23     1.395293224021   120.63159454   170.53276760
 C     34  33  32     1.404292946860   121.39517271   359.56789264
 C     35  34  33     1.513820929635   121.29134866   182.03938649
 C     36  35  34     1.535503742653   113.53083823    57.08612334
 C     35  34  33     1.402184227304   117.63555129     1.34563264
 C     38  35  34     1.396370377622   121.18818818   359.06896895
 C     23  22  20     1.542608155171   100.19317123   186.66694826
 C     40  23  22     1.424856106068   111.04822000     1.19715416
 C     22  20  19     1.387381095806   111.69107857     0.97614364
 S     42  22  20     1.743889208493   113.93698627   359.04052911
 C     41  40  23     1.404155772306   121.51977848   179.61946394
 C     44  41  40     1.386780769696   118.01909475     0.88044380
 C     45  44  41     1.543009122624   128.55761556   180.78053404
 C     46  45  44     1.537748224808   114.39155920   295.01173341
 C     47  46  45     1.402620783320   119.36766420   164.80824002
 C     48  47  46     1.393886325243   121.04509263   174.58393795
 C     49  48  47     1.403605251094   121.22351235     0.31016414
 C     50  49  48     1.514580978522   121.52842704   180.33467982
 C     51  50  49     1.530699421670   114.90550735   321.21378654
 C     50  49  48     1.403429270965   117.38311666   359.64943647
 C     53  50  49     1.397127139884   121.60422986   359.88184670
 C     46  45  44     1.533257254899   109.28176128    61.10641686
 C     55  46  45     1.398525972801   122.29573491   100.89232088
 C     56  55  46     1.397875597433   120.65179192   181.60709763
 C     57  56  55     1.399854340030   121.33778517     0.54057549
 C     58  57  56     1.510194203075   121.10829870   176.61056012
 C     59  58  57     1.535959762233   112.00719872   272.42976204
 C     58  57  56     1.404004386532   117.74051399   359.46625368
 C     61  58  57     1.392735577416   121.10738369   359.80452382
 C     46  45  44     1.519662313279   100.25551846   180.49398413
 C     63  46  45     1.387729740944   111.23414827   359.83969574
 C     45  44  41     1.424195789209   120.42407383   359.90766589
 C     40  23  22     1.386259728658   128.49416441   182.10144209
 S     64  63  46     1.742710059132   114.03384952   175.82671308
 C     67  64  63     1.757884214646    89.77731947   359.46852549
 C     63  46  45     1.405231900115   136.88162801   172.93343735
 S     69  63  46     1.726518256231   135.39597261     4.61464131
 C     70  69  63     1.768255222925    91.02762276   182.88272458
 C     71  70  69     1.397626550621   111.86077925   357.25796620
 C     71  70  69     1.425282668280   121.65344563   177.27002573
 C     73  71  70     1.372212111337   129.50027767   337.25188520
 C     74  73  71     1.460375982478   133.10473252   343.05519959
 C     75  74  73     1.383814355541   126.39479244   328.94028884
 C     76  75  74     1.427844834987   122.96280510   180.91832253
 N     77  76  75     1.162581250365   178.20586790   214.95481632
 C     76  75  74     1.430192663455   122.41841021   355.77068386
 N     79  76  75     1.161693500800   176.93857778   256.71261758
 C     75  74  73     1.484120484496   107.09667218   160.92922162
 C     81  75  74     1.400286602735   131.81020028   187.85627862
 C     82  81  75     1.400972910980   118.40790301   183.34985312
 C     83  82  81     1.402950127339   121.54626570     0.80549283
 C     84  83  82     1.399260611109   120.30503965   359.12247094
 C     85  84  83     1.390490488065   118.12404589     0.15035855
 C     86  85  84     1.489413751044   128.30049668   180.97174260
 O     87  86  85     1.213511480663   127.43680792   357.58887368
 H      4   3   1     1.091963756541   119.82692068   358.22368102
 H      5   4   3     1.092271329753   120.05965195   180.28589808
 H      6   5   4     1.092408927188   119.41399216   180.49792430
 H      7   6   5     1.088650379369   119.82972951   179.86052717
 H     16  15   9     1.097716410509   113.97971588   191.41698721
 H     18  17  16     1.090210412489   122.39982171     1.07186983
 H     25  24  23     1.090872307605   119.96715289   357.67215632
 H     26  25  24     1.093441725699   119.26058838   179.20998105
 H     28  27  26     1.102341744651   109.55205588   326.43273575
 H     28  27  26     1.103060401157   109.42631740   210.19895502
 H     29  28  27     1.101427632167   111.03351941   299.56393394
 H     29  28  27     1.101944998854   111.52100399   179.25682549
 H     29  28  27     1.101379362481   110.80903051    58.60327303
 H     30  27  26     1.093672247156   119.46402321   179.58904392
 H     31  30  27     1.091819216171   119.61258681   177.79080874
 H     33  32  23     1.091240834188   119.75626365   351.41285234
 H     34  33  32     1.093081367282   119.10553942   180.10179915
 H     36  35  34     1.105566931624   108.98980180   294.82064200
 H     36  35  34     1.100697622556   108.82541515   179.00589517
 H     37  36  35     1.101345197883   111.63743676   294.71874401
 H     37  36  35     1.101473408894   110.96332320   174.84115209
 H     37  36  35     1.101174313767   110.96829347    54.56905559
 H     38  35  34     1.092248481345   119.18142224   179.96244045
 H     39  38  35     1.092144683181   119.49273589   180.40655472
 H     44  41  40     1.089862794163   120.67345522   180.60788526
 H     48  47  46     1.091907098109   119.74575110   353.98258939
 H     49  48  47     1.091115802012   119.08201862   180.57007788
 H     51  50  49     1.102585328263   108.47280091   197.40866041
 H     51  50  49     1.104539685887   108.57914231    82.69612900
 H     52  51  50     1.101911030664   111.36382207   304.27142644
 H     52  51  50     1.101692180784   110.59941665   183.80373363
 H     52  51  50     1.099266866098   111.20890620    65.46578615
 H     53  50  49     1.093559958713   119.35300623   179.80446490
 H     54  53  50     1.091511478181   119.57955001   180.40081358
 H     56  55  46     1.090939691367   119.95397448     1.78464264
 H     57  56  55     1.093402030819   119.23501541   180.88219298
 H     59  58  57     1.103046521820   109.41147019   150.46103716
 H     59  58  57     1.102483849768   109.64899620    34.10171998
 H     60  59  58     1.101492170376   110.78897320   301.39882187
 H     60  59  58     1.101920761126   111.56185097   180.77172982
 H     60  59  58     1.101620482517   110.95232274    60.41216350
 H     61  58  57     1.093706417509   119.43945449   180.27606552
 H     62  61  58     1.091526934345   119.54608194   182.22411579
 H     66  40  23     1.089867665407   121.30957220   359.93576583
 H     72  71  70     1.090222414006   122.43149118   180.11875807
 H     73  71  70     1.097716485346   116.13435820   151.94498157
 H     82  81  75     1.088690679165   121.71747667     3.87708103
 H     83  82  81     1.092475481235   119.04697383   180.43365206
 H     84  83  82     1.092127707093   119.63462834   179.28596985
 H     85  84  83     1.092089031764   122.05590519   179.84441921

---------------------------
INTERNAL COORDINATES (A.U.)
---------------------------
 C      0   0   0     0.000000000000     0.00000000     0.00000000
 O      1   0   0     2.293190367619     0.00000000     0.00000000
 C      1   2   0     2.813372764931   127.44673540     0.00000000
 C      3   1   2     2.627364557516   128.29938267     3.20367518
 C      4   3   1     2.644116289494   118.10756548   178.32166030
 C      5   4   3     2.650958043554   120.28900815   359.97451404
 C      6   5   4     2.647399813342   121.56426261     0.79775538
 C      7   6   5     2.645742058078   118.40847038   359.14678331
 C      8   7   6     2.805988509348   131.80068584   177.63764484
 C      9   8   7     2.614922658929   125.16499518   339.68108841
 C     10   9   8     2.703174481980   122.87719045   196.84726630
 N     11  10   9     2.195798924785   176.53390378   123.59206247
 C     10   9   8     2.700296967874   123.08948938    11.36132427
 N     13  10   9     2.197248107139   177.53047619   153.21681479
 C      9   8   7     2.759728186029   106.99764667   171.28454583
 C     15   9   8     2.593369671498   133.52428933   199.80570093
 C     16  15   9     2.691017856597   129.85890821    17.37314293
 C     17  16  15     2.642979553496   126.44317698   199.71704044
 C     18  17  16     2.655754641229   111.90510275   178.27433042
 C     19  18  17     2.674085157438   113.48145001     2.13912843
 S     20  19  18     3.260559289993   111.66297566   359.80468305
 C     20  19  18     2.654689564601   113.09737287   180.74136964
 C     22  20  19     2.872083411854   136.51761896   172.10631987
 C     23  22  20     2.890910388447   113.86114303    69.45588852
 C     24  23  22     2.643451097501   122.06814253    10.98841277
 C     25  24  23     2.640736817153   120.70153780   177.67969338
 C     26  25  24     2.645403851453   121.33908436   359.42657393
 C     27  26  25     2.853932545889   121.04383656   183.32246713
 C     28  27  26     2.902710375064   112.15432396    88.13486896
 C     27  26  25     2.653345167922   117.71899163     0.70796110
 C     30  27  26     2.633104510890   121.12214956     0.08971885
 C     23  22  20     2.909980090418   105.62859139   305.42933802
 C     32  23  22     2.648542350126   121.59339009   274.11041235
 C     33  32  23     2.636722069916   120.63159454   170.53276760
 C     34  33  32     2.653729081362   121.39517271   359.56789264
 C     35  34  33     2.860706972808   121.29134866   182.03938649
 C     36  35  34     2.901681551224   113.53083823    57.08612334
 C     35  34  33     2.649744178908   117.63555129     1.34563264
 C     38  35  34     2.638757595226   121.18818818   359.06896895
 C     23  22  20     2.915106945227   100.19317123   186.66694826
 C     40  23  22     2.692587820714   111.04822000     1.19715416
 C     22  20  19     2.621770314453   111.69107857     0.97614364
 S     42  22  20     3.295473011953   113.93698627   359.04052911
 C     41  40  23     2.653469859023   121.51977848   179.61946394
 C     44  41  40     2.620635862515   118.01909475     0.88044380
 C     45  44  41     2.915864663901   128.55761556   180.78053404
 C     46  45  44     2.905923007811   114.39155920   295.01173341
 C     47  46  45     2.650569150220   119.36766420   164.80824002
 C     48  47  46     2.634063416528   121.04509263   174.58393795
 C     49  48  47     2.652429524702   121.22351235     0.31016414
 C     50  49  48     2.862143257053   121.52842704   180.33467982
 C     51  50  49     2.892602700307   114.90550735   321.21378654
 C     50  49  48     2.652096970452   117.38311666   359.64943647
 C     53  50  49     2.640187668649   121.60422986   359.88184670
 C     46  45  44     2.897436304607   109.28176128    61.10641686
 C     55  46  45     2.642831079770   122.29573491   100.89232088
 C     56  55  46     2.641602048441   120.65179192   181.60709763
 C     57  56  55     2.645341330037   121.33778517     0.54057549
 C     58  57  56     2.853853452846   121.10829870   176.61056012
 C     59  58  57     2.902543303344   112.00719872   272.42976204
 C     58  57  56     2.653183781369   117.74051399   359.46625368
 C     61  58  57     2.631888818285   121.10738369   359.80452382
 C     46  45  44     2.871745588138   100.25551846   180.49398413
 C     63  46  45     2.622429158281   111.23414827   359.83969574
 C     45  44  41     2.691340002688   120.42407383   359.90766589
 C     40  23  22     2.619651237648   128.49416441   182.10144209
 S     64  63  46     3.293244742589   114.03384952   175.82671308
 C     67  64  63     3.321919740823    89.77731947   359.46852549
 C     63  46  45     2.655503445867   136.88162801   172.93343735
 S     69  63  46     3.262646669492   135.39597261     4.61464131
 C     70  69  63     3.341518106203    91.02762276   182.88272458
 C     71  70  69     2.641131418170   111.86077925   357.25796620
 C     71  70  69     2.693393906474   121.65344563   177.27002573
 C     73  71  70     2.593105088077   129.50027767   337.25188520
 C     74  73  71     2.759710659441   133.10473252   343.05519959
 C     75  74  73     2.615030152160   126.39479244   328.94028884
 C     76  75  74     2.698235699860   122.96280510   180.91832253
 N     77  76  75     2.196960171621   178.20586790   214.95481632
 C     76  75  74     2.702672452673   122.41841021   355.77068386
 N     79  76  75     2.195282568067   176.93857778   256.71261758
 C     75  74  73     2.804581265440   107.09667218   160.92922162
 C     81  75  74     2.646158188169   131.81020028   187.85627862
 C     82  81  75     2.647455122795   118.40790301   183.34985312
 C     83  82  81     2.651191520220   121.54626570     0.80549283
 C     84  83  82     2.644219344979   120.30503965   359.12247094
 C     85  84  83     2.627646214266   118.12404589     0.15035855
 C     86  85  84     2.814584089570   128.30049668   180.97174260
 O     87  86  85     2.293204358822   127.43680792   357.58887368
 H      4   3   1     2.063512448031   119.82692068   358.22368102
 H      5   4   3     2.064093677167   120.05965195   180.28589808
 H      6   5   4     2.064353698636   119.41399216   180.49792430
 H      7   6   5     2.057251072597   119.82972951   179.86052717
 H     16  15   9     2.074383388572   113.97971588   191.41698721
 H     18  17  16     2.060199107954   122.39982171     1.07186983
 H     25  24  23     2.061449908453   119.96715289   357.67215632
 H     26  25  24     2.066305404974   119.26058838   179.20998105
 H     28  27  26     2.083124003379   109.55205588   326.43273575
 H     28  27  26     2.084482067359   109.42631740   210.19895502
 H     29  28  27     2.081396581128   111.03351941   299.56393394
 H     29  28  27     2.082374262479   111.52100399   179.25682549
 H     29  28  27     2.081305364643   110.80903051    58.60327303
 H     30  27  26     2.066741027396   119.46402321   179.58904392
 H     31  30  27     2.063239306316   119.61258681   177.79080874
 H     33  32  23     2.062146322768   119.75626365   351.41285234
 H     34  33  32     2.065624426256   119.10553942   180.10179915
 H     36  35  34     2.089218723489   108.98980180   294.82064200
 H     36  35  34     2.080017062889   108.82541515   179.00589517
 H     37  36  35     2.081240802908   111.63743676   294.71874401
 H     37  36  35     2.081483086606   110.96332320   174.84115209
 H     37  36  35     2.080917878728   110.96829347    54.56905559
 H     38  35  34     2.064050499933   119.18142224   179.96244045
 H     39  38  35     2.063854349830   119.49273589   180.40655472
 H     44  41  40     2.059542204518   120.67345522   180.60788526
 H     48  47  46     2.063405379110   119.74575110   353.98258939
 H     49  48  47     2.061910046196   119.08201862   180.57007788
 H     51  50  49     2.083584309696   108.47280091   197.40866041
 H     51  50  49     2.087277510374   108.57914231    82.69612900
 H     52  51  50     2.082310071903   111.36382207   304.27142644
 H     52  51  50     2.081896505564   110.59941665   183.80373363
 H     52  51  50     2.077313325018   111.20890620    65.46578615
 H     53  50  49     2.066528832989   119.35300623   179.80446490
 H     54  53  50     2.062657765793   119.57955001   180.40081358
 H     56  55  46     2.061577245308   119.95397448     1.78464264
 H     57  56  55     2.066230392522   119.23501541   180.88219298
 H     59  58  57     2.084455839215   109.41147019   150.46103716
 H     59  58  57     2.083392543133   109.64899620    34.10171998
 H     60  59  58     2.081518540669   110.78897320   301.39882187
 H     60  59  58     2.082328459810   111.56185097   180.77172982
 H     60  59  58     2.081761015474   110.95232274    60.41216350
 H     61  58  57     2.066805600004   119.43945449   180.27606552
 H     62  61  58     2.062686973710   119.54608194   182.22411579
 H     66  40  23     2.059551409836   121.30957220   359.93576583
 H     72  71  70     2.060221787533   122.43149118   180.11875807
 H     73  71  70     2.074383529994   116.13435820   151.94498157
 H     82  81  75     2.057327228174   121.71747667     3.87708103
 H     83  82  81     2.064479467558   119.04697383   180.43365206
 H     84  83  82     2.063822269673   119.63462834   179.28596985
 H     85  84  83     2.063749183894   122.05590519   179.84441921

---------------------
BASIS SET INFORMATION
---------------------
There are 5 groups of distinct atoms

 Group   1 Type C   : 11s6p2d1f contracted to 5s3p2d1f pattern {62111/411/11/1}
 Group   2 Type O   : 11s6p2d1f contracted to 5s3p2d1f pattern {62111/411/11/1}
 Group   3 Type N   : 11s6p2d1f contracted to 5s3p2d1f pattern {62111/411/11/1}
 Group   4 Type S   : 14s9p3d1f contracted to 5s5p2d1f pattern {73211/51111/21/1}
 Group   5 Type H   : 5s1p contracted to 3s1p pattern {311/1}

Atom   0C    basis set group =>   1
Atom   1O    basis set group =>   2
Atom   2C    basis set group =>   1
Atom   3C    basis set group =>   1
Atom   4C    basis set group =>   1
Atom   5C    basis set group =>   1
Atom   6C    basis set group =>   1
Atom   7C    basis set group =>   1
Atom   8C    basis set group =>   1
Atom   9C    basis set group =>   1
Atom  10C    basis set group =>   1
Atom  11N    basis set group =>   3
Atom  12C    basis set group =>   1
Atom  13N    basis set group =>   3
Atom  14C    basis set group =>   1
Atom  15C    basis set group =>   1
Atom  16C    basis set group =>   1
Atom  17C    basis set group =>   1
Atom  18C    basis set group =>   1
Atom  19C    basis set group =>   1
Atom  20S    basis set group =>   4
Atom  21C    basis set group =>   1
Atom  22C    basis set group =>   1
Atom  23C    basis set group =>   1
Atom  24C    basis set group =>   1
Atom  25C    basis set group =>   1
Atom  26C    basis set group =>   1
Atom  27C    basis set group =>   1
Atom  28C    basis set group =>   1
Atom  29C    basis set group =>   1
Atom  30C    basis set group =>   1
Atom  31C    basis set group =>   1
Atom  32C    basis set group =>   1
Atom  33C    basis set group =>   1
Atom  34C    basis set group =>   1
Atom  35C    basis set group =>   1
Atom  36C    basis set group =>   1
Atom  37C    basis set group =>   1
Atom  38C    basis set group =>   1
Atom  39C    basis set group =>   1
Atom  40C    basis set group =>   1
Atom  41C    basis set group =>   1
Atom  42S    basis set group =>   4
Atom  43C    basis set group =>   1
Atom  44C    basis set group =>   1
Atom  45C    basis set group =>   1
Atom  46C    basis set group =>   1
Atom  47C    basis set group =>   1
Atom  48C    basis set group =>   1
Atom  49C    basis set group =>   1
Atom  50C    basis set group =>   1
Atom  51C    basis set group =>   1
Atom  52C    basis set group =>   1
Atom  53C    basis set group =>   1
Atom  54C    basis set group =>   1
Atom  55C    basis set group =>   1
Atom  56C    basis set group =>   1
Atom  57C    basis set group =>   1
Atom  58C    basis set group =>   1
Atom  59C    basis set group =>   1
Atom  60C    basis set group =>   1
Atom  61C    basis set group =>   1
Atom  62C    basis set group =>   1
Atom  63C    basis set group =>   1
Atom  64C    basis set group =>   1
Atom  65C    basis set group =>   1
Atom  66S    basis set group =>   4
Atom  67C    basis set group =>   1
Atom  68C    basis set group =>   1
Atom  69S    basis set group =>   4
Atom  70C    basis set group =>   1
Atom  71C    basis set group =>   1
Atom  72C    basis set group =>   1
Atom  73C    basis set group =>   1
Atom  74C    basis set group =>   1
Atom  75C    basis set group =>   1
Atom  76C    basis set group =>   1
Atom  77N    basis set group =>   3
Atom  78C    basis set group =>   1
Atom  79N    basis set group =>   3
Atom  80C    basis set group =>   1
Atom  81C    basis set group =>   1
Atom  82C    basis set group =>   1
Atom  83C    basis set group =>   1
Atom  84C    basis set group =>   1
Atom  85C    basis set group =>   1
Atom  86C    basis set group =>   1
Atom  87O    basis set group =>   2
Atom  88H    basis set group =>   5
Atom  89H    basis set group =>   5
Atom  90H    basis set group =>   5
Atom  91H    basis set group =>   5
Atom  92H    basis set group =>   5
Atom  93H    basis set group =>   5
Atom  94H    basis set group =>   5
Atom  95H    basis set group =>   5
Atom  96H    basis set group =>   5
Atom  97H    basis set group =>   5
Atom  98H    basis set group =>   5
Atom  99H    basis set group =>   5
Atom 100H    basis set group =>   5
Atom 101H    basis set group =>   5
Atom 102H    basis set group =>   5
Atom 103H    basis set group =>   5
Atom 104H    basis set group =>   5
Atom 105H    basis set group =>   5
Atom 106H    basis set group =>   5
Atom 107H    basis set group =>   5
Atom 108H    basis set group =>   5
Atom 109H    basis set group =>   5
Atom 110H    basis set group =>   5
Atom 111H    basis set group =>   5
Atom 112H    basis set group =>   5
Atom 113H    basis set group =>   5
Atom 114H    basis set group =>   5
Atom 115H    basis set group =>   5
Atom 116H    basis set group =>   5
Atom 117H    basis set group =>   5
Atom 118H    basis set group =>   5
Atom 119H    basis set group =>   5
Atom 120H    basis set group =>   5
Atom 121H    basis set group =>   5
Atom 122H    basis set group =>   5
Atom 123H    basis set group =>   5
Atom 124H    basis set group =>   5
Atom 125H    basis set group =>   5
Atom 126H    basis set group =>   5
Atom 127H    basis set group =>   5
Atom 128H    basis set group =>   5
Atom 129H    basis set group =>   5
Atom 130H    basis set group =>   5
Atom 131H    basis set group =>   5
Atom 132H    basis set group =>   5
Atom 133H    basis set group =>   5
Atom 134H    basis set group =>   5
Atom 135H    basis set group =>   5
Atom 136H    basis set group =>   5
Atom 137H    basis set group =>   5
---------------------------------
AUXILIARY/J BASIS SET INFORMATION
---------------------------------
There are 5 groups of distinct atoms

 Group   1 Type C   : 12s5p4d2f1g contracted to 6s4p3d1f1g pattern {711111/2111/211/2/1}
 Group   2 Type O   : 12s5p4d2f1g contracted to 6s4p3d1f1g pattern {711111/2111/211/2/1}
 Group   3 Type N   : 12s5p4d2f1g contracted to 6s4p3d1f1g pattern {711111/2111/211/2/1}
 Group   4 Type S   : 14s5p5d2f1g contracted to 8s4p3d1f1g pattern {71111111/2111/311/2/1}
 Group   5 Type H   : 5s2p1d contracted to 3s1p1d pattern {311/2/1}

Atom   0C    basis set group =>   1
Atom   1O    basis set group =>   2
Atom   2C    basis set group =>   1
Atom   3C    basis set group =>   1
Atom   4C    basis set group =>   1
Atom   5C    basis set group =>   1
Atom   6C    basis set group =>   1
Atom   7C    basis set group =>   1
Atom   8C    basis set group =>   1
Atom   9C    basis set group =>   1
Atom  10C    basis set group =>   1
Atom  11N    basis set group =>   3
Atom  12C    basis set group =>   1
Atom  13N    basis set group =>   3
Atom  14C    basis set group =>   1
Atom  15C    basis set group =>   1
Atom  16C    basis set group =>   1
Atom  17C    basis set group =>   1
Atom  18C    basis set group =>   1
Atom  19C    basis set group =>   1
Atom  20S    basis set group =>   4
Atom  21C    basis set group =>   1
Atom  22C    basis set group =>   1
Atom  23C    basis set group =>   1
Atom  24C    basis set group =>   1
Atom  25C    basis set group =>   1
Atom  26C    basis set group =>   1
Atom  27C    basis set group =>   1
Atom  28C    basis set group =>   1
Atom  29C    basis set group =>   1
Atom  30C    basis set group =>   1
Atom  31C    basis set group =>   1
Atom  32C    basis set group =>   1
Atom  33C    basis set group =>   1
Atom  34C    basis set group =>   1
Atom  35C    basis set group =>   1
Atom  36C    basis set group =>   1
Atom  37C    basis set group =>   1
Atom  38C    basis set group =>   1
Atom  39C    basis set group =>   1
Atom  40C    basis set group =>   1
Atom  41C    basis set group =>   1
Atom  42S    basis set group =>   4
Atom  43C    basis set group =>   1
Atom  44C    basis set group =>   1
Atom  45C    basis set group =>   1
Atom  46C    basis set group =>   1
Atom  47C    basis set group =>   1
Atom  48C    basis set group =>   1
Atom  49C    basis set group =>   1
Atom  50C    basis set group =>   1
Atom  51C    basis set group =>   1
Atom  52C    basis set group =>   1
Atom  53C    basis set group =>   1
Atom  54C    basis set group =>   1
Atom  55C    basis set group =>   1
Atom  56C    basis set group =>   1
Atom  57C    basis set group =>   1
Atom  58C    basis set group =>   1
Atom  59C    basis set group =>   1
Atom  60C    basis set group =>   1
Atom  61C    basis set group =>   1
Atom  62C    basis set group =>   1
Atom  63C    basis set group =>   1
Atom  64C    basis set group =>   1
Atom  65C    basis set group =>   1
Atom  66S    basis set group =>   4
Atom  67C    basis set group =>   1
Atom  68C    basis set group =>   1
Atom  69S    basis set group =>   4
Atom  70C    basis set group =>   1
Atom  71C    basis set group =>   1
Atom  72C    basis set group =>   1
Atom  73C    basis set group =>   1
Atom  74C    basis set group =>   1
Atom  75C    basis set group =>   1
Atom  76C    basis set group =>   1
Atom  77N    basis set group =>   3
Atom  78C    basis set group =>   1
Atom  79N    basis set group =>   3
Atom  80C    basis set group =>   1
Atom  81C    basis set group =>   1
Atom  82C    basis set group =>   1
Atom  83C    basis set group =>   1
Atom  84C    basis set group =>   1
Atom  85C    basis set group =>   1
Atom  86C    basis set group =>   1
Atom  87O    basis set group =>   2
Atom  88H    basis set group =>   5
Atom  89H    basis set group =>   5
Atom  90H    basis set group =>   5
Atom  91H    basis set group =>   5
Atom  92H    basis set group =>   5
Atom  93H    basis set group =>   5
Atom  94H    basis set group =>   5
Atom  95H    basis set group =>   5
Atom  96H    basis set group =>   5
Atom  97H    basis set group =>   5
Atom  98H    basis set group =>   5
Atom  99H    basis set group =>   5
Atom 100H    basis set group =>   5
Atom 101H    basis set group =>   5
Atom 102H    basis set group =>   5
Atom 103H    basis set group =>   5
Atom 104H    basis set group =>   5
Atom 105H    basis set group =>   5
Atom 106H    basis set group =>   5
Atom 107H    basis set group =>   5
Atom 108H    basis set group =>   5
Atom 109H    basis set group =>   5
Atom 110H    basis set group =>   5
Atom 111H    basis set group =>   5
Atom 112H    basis set group =>   5
Atom 113H    basis set group =>   5
Atom 114H    basis set group =>   5
Atom 115H    basis set group =>   5
Atom 116H    basis set group =>   5
Atom 117H    basis set group =>   5
Atom 118H    basis set group =>   5
Atom 119H    basis set group =>   5
Atom 120H    basis set group =>   5
Atom 121H    basis set group =>   5
Atom 122H    basis set group =>   5
Atom 123H    basis set group =>   5
Atom 124H    basis set group =>   5
Atom 125H    basis set group =>   5
Atom 126H    basis set group =>   5
Atom 127H    basis set group =>   5
Atom 128H    basis set group =>   5
Atom 129H    basis set group =>   5
Atom 130H    basis set group =>   5
Atom 131H    basis set group =>   5
Atom 132H    basis set group =>   5
Atom 133H    basis set group =>   5
Atom 134H    basis set group =>   5
Atom 135H    basis set group =>   5
Atom 136H    basis set group =>   5
Atom 137H    basis set group =>   5


           ************************************************************
           *        Program running with 6 parallel MPI-processes     *
           *              working on a common directory               *
           ************************************************************
------------------------------------------------------------------------------
                           ORCA GTO INTEGRAL CALCULATION
                           -- RI-GTO INTEGRALS CHOSEN --
------------------------------------------------------------------------------

                         BASIS SET STATISTICS AND STARTUP INFO

Gaussian basis set:
 # of primitive gaussian shells          ... 2088
 # of primitive gaussian functions       ... 4516
 # of contracted shells                  ... 1176
 # of contracted basis functions         ... 3052
 Highest angular momentum                ...    3
 Maximum contraction depth               ...    7
Auxiliary gaussian basis set:
 # of primitive gaussian shells          ... 2524
 # of primitive gaussian functions       ... 6988
 # of contracted shells                  ... 1578
 # of contracted aux-basis functions     ... 4870
 Highest angular momentum                ...    4
 Maximum contraction depth               ...    7
Ratio of auxiliary to basis functions    ...  1.60
Integral package used                  ... LIBINT
 One Electron integrals                  ... done
 Ordering auxiliary basis shells         ... done
 Integral threshhold             Thresh  ...  2.500e-11
 Primitive cut-off               TCut    ...  2.500e-12
 Pre-screening matrix                    ... done
 Shell pair data                         ... 
 Ordering of the shell pairs             ... done (   0.052 sec) 230572 of 692076 pairs
 Determination of significant pairs      ... done (   0.001 sec)
 Creation of shell pair data             ... done (   0.023 sec)
 Storage of shell pair data              ... done (   0.036 sec)
 Shell pair data done in (   0.112 sec)
 Computing two index integrals           ... done
 Cholesky decomposition of the V-matrix  ... done


Timings:
 Total evaluation time                   ...  11.073 sec (  0.185 min)
 One electron matrix time                ...   4.349 sec (  0.072 min) = 39.3%
 Schwartz matrix evaluation time         ...   4.999 sec (  0.083 min) = 45.1%
 Two index repulsion integral time       ...   0.557 sec (  0.009 min) =  5.0%
 Cholesky decomposition of V             ...   1.039 sec (  0.017 min) =  9.4%
 Three index repulsion integral time     ...   0.000 sec (  0.000 min) =  0.0%



           ************************************************************
           *        Program running with 6 parallel MPI-processes     *
           *              working on a common directory               *
           ************************************************************
-------------------------------------------------------------------------------
                                 ORCA SCF
-------------------------------------------------------------------------------

------------
SCF SETTINGS
------------
Hamiltonian:
 Density Functional     Method          .... DFT(GTOs)
 Exchange Functional    Exchange        .... B88
   X-Alpha parameter    XAlpha          ....  0.666667
   Becke's b parameter  XBeta           ....  0.004200
 Correlation Functional Correlation     .... LYP
 LDA part of GGA corr.  LDAOpt          .... VWN-5
 Gradients option       PostSCFGGA      .... off
 Hybrid DFT is turned on
   Fraction HF Exchange ScalHFX         ....  0.200000
   Scaling of DF-GGA-X  ScalDFX         ....  0.720000
   Scaling of DF-GGA-C  ScalDFC         ....  0.810000
   Scaling of DF-LDA-C  ScalLDAC        ....  1.000000
   Perturbative correction              ....  0.000000
   Density functional embedding theory  .... OFF
   NL short-range parameter             ....  4.800000
 RI-approximation to the Coulomb term is turned on
   Number of auxiliary basis functions  .... 4870
   RIJ-COSX (HFX calculated with COS-X)).... on


General Settings:
 Integral files         IntName         .... ITIC
 Hartree-Fock type      HFTyp           .... RHF
 Total Charge           Charge          ....    0
 Multiplicity           Mult            ....    1
 Number of Electrons    NEL             ....  626
 Basis Dimension        Dim             .... 3052
 Nuclear Repulsion      ENuc            ....  15334.0957068177 Eh

Convergence Acceleration:
 DIIS                   CNVDIIS         .... on
   Start iteration      DIISMaxIt       ....    12
   Startup error        DIISStart       ....  0.200000
   # of expansion vecs  DIISMaxEq       ....     5
   Bias factor          DIISBfac        ....   1.050
   Max. coefficient     DIISMaxC        ....  10.000
 Newton-Raphson         CNVNR           .... off
 SOSCF                  CNVSOSCF        .... on
   Start iteration      SOSCFMaxIt      ....   150
   Startup grad/error   SOSCFStart      ....  0.003300
 Level Shifting         CNVShift        .... on
   Level shift para.    LevelShift      ....    0.2500
   Turn off err/grad.   ShiftErr        ....    0.0010
 Zerner damping         CNVZerner       .... off
 Static damping         CNVDamp         .... on
   Fraction old density DampFac         ....    0.7000
   Max. Damping (<1)    DampMax         ....    0.9800
   Min. Damping (>=0)   DampMin         ....    0.0000
   Turn off err/grad.   DampErr         ....    0.1000
 Fernandez-Rico         CNVRico         .... off

SCF Procedure:
 Maximum # iterations   MaxIter         ....   125
 SCF integral mode      SCFMode         .... Direct
   Integral package                     .... LIBINT
 Reset frequency        DirectResetFreq ....    20
 Integral Threshold     Thresh          ....  2.500e-11 Eh
 Primitive CutOff       TCut            ....  2.500e-12 Eh

Convergence Tolerance:
 Convergence Check Mode ConvCheckMode   .... Total+1el-Energy
 Convergence forced     ConvForced      .... 1
 Energy Change          TolE            ....  1.000e-08 Eh
 1-El. energy change                    ....  1.000e-05 Eh
 Orbital Gradient       TolG            ....  1.000e-05
 Orbital Rotation angle TolX            ....  1.000e-05
 DIIS Error             TolErr          ....  5.000e-07


Diagonalization of the overlap matrix:
Smallest eigenvalue                        ... 2.531e-06
Time for diagonalization                   ...    1.982 sec
Threshold for overlap eigenvalues          ... 1.000e-08
Number of eigenvalues below threshold      ... 0
Time for construction of square roots      ...    1.189 sec
Total time needed                          ...    3.192 sec

-------------------
DFT GRID GENERATION
-------------------

General Integration Accuracy     IntAcc      ...  4.670
Radial Grid Type                 RadialGrid  ... Gauss-Chebyshev
Angular Grid (max. acc.)         AngularGrid ... Lebedev-302
Angular grid pruning method      GridPruning ... 3 (G Style)
Weight generation scheme         WeightScheme... Becke
Basis function cutoff            BFCut       ...    1.0000e-11
Integration weight cutoff        WCut        ...    1.0000e-14
Grids for H and He will be reduced by one unit

# of grid points (after initial pruning)     ... 718892 (   0.0 sec)
# of grid points (after weights+screening)   ... 600372 (  12.2 sec)
nearest neighbour list constructed           ...    0.0 sec
Grid point re-assignment to atoms done       ...    0.1 sec
Grid point division into batches done        ...    1.9 sec
Reduced shell lists constructed in    4.9 sec

Total number of grid points                  ...   600372
Total number of batches                      ...     9453
Average number of points per batch           ...       63
Average number of grid points per atom       ...     4351
Average number of shells per batch           ...   200.66 (17.06%)
Average number of basis functions per batch  ...   504.29 (16.52%)
Average number of large shells per batch     ...   116.86 (58.24%)
Average number of large basis fcns per batch ...   302.68 (60.02%)
Maximum spatial batch extension              ...  19.18, 17.71, 17.80 au
Average spatial batch extension              ...   0.31,  0.29,  0.30 au

Time for grid setup =   17.904 sec

------------------------------
INITIAL GUESS: MODEL POTENTIAL
------------------------------
Loading Hartree-Fock densities                     ... done
Calculating cut-offs                               ... done
Setting up the integral package                    ... done
Initializing the effective Hamiltonian             ... done
Starting the Coulomb interaction                   ... done (   9.0 sec)
Reading the grid                                   ... done
Mapping shells                                     ... done
Starting the XC term evaluation                    ... done (   5.9 sec)
  promolecular density results
     # of electrons  =    625.973917194
     EX              =   -558.545695638
     EC              =    -21.764017330
     EX+EC           =   -580.309712968
Transforming the Hamiltonian                       ... done (   1.2 sec)
Diagonalizing the Hamiltonian                      ... done (   1.9 sec)
Back transforming the eigenvectors                 ... done (   0.5 sec)
Now organizing SCF variables                       ... done
                      ------------------
                      INITIAL GUESS DONE (  36.8 sec)
                      ------------------
--------------------
COSX GRID GENERATION
--------------------

General Integration Accuracy     IntAcc      ...  3.340
Radial Grid Type                 RadialGrid  ... Gauss-Chebyshev
Angular Grid (max. acc.)         AngularGrid ... Lebedev-50
Angular grid pruning method      GridPruning ... 3 (G Style)
Weight generation scheme         WeightScheme... Becke
Basis function cutoff            BFCut       ...    1.0000e-11
Integration weight cutoff        WCut        ...    1.0000e-14
Grids for H and He will be reduced by one unit

# of grid points (after initial pruning)     ...  67488 (   0.0 sec)
# of grid points (after weights+screening)   ...  59239 (   1.1 sec)
nearest neighbour list constructed           ...    0.0 sec
Grid point re-assignment to atoms done       ...    0.0 sec
Grid point division into batches done        ...    0.0 sec
Reduced shell lists constructed in    0.4 sec

Total number of grid points                  ...    59239
Total number of batches                      ...     1001
Average number of points per batch           ...       59
Average number of grid points per atom       ...      429
Average number of shells per batch           ...   234.66 (19.95%)
Average number of basis functions per batch  ...   595.23 (19.50%)
Average number of large shells per batch     ...   137.15 (58.45%)
Average number of large basis fcns per batch ...   359.42 (60.38%)
Maximum spatial batch extension              ...  15.72, 19.16, 16.94 au
Average spatial batch extension              ...   0.66,  0.66,  0.63 au

Overlap Fitting                  UseSFitting ... on
Constructing numerical overlap ... done (      0.6 sec)
Inverting numerical overlap    ... done (      0.4 sec)
Obtaining analytic overlap     ... done (      0.0 sec)
Final contraction and storage  ... done (      0.9 sec)


General Integration Accuracy     IntAcc      ...  3.670
Radial Grid Type                 RadialGrid  ... Gauss-Chebyshev
Angular Grid (max. acc.)         AngularGrid ... Lebedev-50
Angular grid pruning method      GridPruning ... 3 (G Style)
Weight generation scheme         WeightScheme... Becke
Basis function cutoff            BFCut       ...    1.0000e-11
Integration weight cutoff        WCut        ...    1.0000e-14
Grids for H and He will be reduced by one unit

# of grid points (after initial pruning)     ...  84632 (   0.0 sec)
# of grid points (after weights+screening)   ...  73953 (   1.4 sec)
nearest neighbour list constructed           ...    0.0 sec
Grid point re-assignment to atoms done       ...    0.0 sec
Grid point division into batches done        ...    0.0 sec
Reduced shell lists constructed in    0.5 sec

Total number of grid points                  ...    73953
Total number of batches                      ...     1215
Average number of points per batch           ...       60
Average number of grid points per atom       ...      536
Average number of shells per batch           ...   231.50 (19.69%)
Average number of basis functions per batch  ...   586.92 (19.23%)
Average number of large shells per batch     ...   134.84 (58.25%)
Average number of large basis fcns per batch ...   352.39 (60.04%)
Maximum spatial batch extension              ...  15.80, 16.01, 18.71 au
Average spatial batch extension              ...   0.62,  0.60,  0.60 au

Overlap Fitting                  UseSFitting ... on
Constructing numerical overlap ... done (      0.7 sec)
Inverting numerical overlap    ... done (      0.4 sec)
Obtaining analytic overlap     ... done (      0.0 sec)
Final contraction and storage  ... done (      0.9 sec)


General Integration Accuracy     IntAcc      ...  4.010
Radial Grid Type                 RadialGrid  ... Gauss-Chebyshev
Angular Grid (max. acc.)         AngularGrid ... Lebedev-110
Angular grid pruning method      GridPruning ... 3 (G Style)
Weight generation scheme         WeightScheme... Becke
Basis function cutoff            BFCut       ...    1.0000e-11
Integration weight cutoff        WCut        ...    1.0000e-14
Grids for H and He will be reduced by one unit

# of grid points (after initial pruning)     ... 163148 (   0.0 sec)
# of grid points (after weights+screening)   ... 141032 (   2.9 sec)
nearest neighbour list constructed           ...    0.0 sec
Grid point re-assignment to atoms done       ...    0.0 sec
Grid point division into batches done        ...    0.1 sec
Reduced shell lists constructed in    0.9 sec

Total number of grid points                  ...   141032
Total number of batches                      ...     2276
Average number of points per batch           ...       61
Average number of grid points per atom       ...     1022
Average number of shells per batch           ...   217.89 (18.53%)
Average number of basis functions per batch  ...   551.86 (18.08%)
Average number of large shells per batch     ...   127.80 (58.65%)
Average number of large basis fcns per batch ...   333.45 (60.42%)
Maximum spatial batch extension              ...  19.88, 16.41, 20.90 au
Average spatial batch extension              ...   0.51,  0.48,  0.49 au

Overlap Fitting                  UseSFitting ... on
Constructing numerical overlap ... done (      1.2 sec)
Inverting numerical overlap    ... done (      0.4 sec)
Obtaining analytic overlap     ... done (      0.0 sec)
Final contraction and storage  ... done (      0.9 sec)

Time for X-Grid setup             =   14.337 sec
--------------
SCF ITERATIONS
--------------
ITER       Energy         Delta-E        Max-DP      RMS-DP      [F,P]     Damp
               ***  Starting incremental Fock matrix formation  ***
  0  -4961.3641985592   0.000000000000 0.33186105  0.00076039  0.3113162 0.7000
  1  -4962.3829867120  -1.018788152795 0.19591631  0.00059939  0.0994351 0.7000
                               ***Turning on DIIS***
  2  -4962.7558966450  -0.372909932999 0.19374225  0.00089323  0.0513649 0.0000
  3  -4963.3885886816  -0.632692036563 0.20040488  0.00054729  0.0554797 0.0000
  4  -4963.5096805997  -0.121091918127 0.04739736  0.00017855  0.0418276 0.0000
  5  -4963.5260726366  -0.016392036927 0.01925148  0.00007733  0.0106595 0.0000
                      *** Initiating the SOSCF procedure ***
                           *** Shutting down DIIS ***
                      *** Re-Reading the Fockian *** 
                      *** Removing any level shift *** 
ITER      Energy       Delta-E        Grad      Rot      Max-DP    RMS-DP
  6  -4963.52705846  -0.0009858243  0.001077  0.001077  0.013842  0.000026
               *** Restarting incremental Fock matrix formation ***
  7  -4963.52714478  -0.0000863191  0.000494  0.006000  0.012755  0.000072
  8  -4963.52712462   0.0000201638  0.000562  0.004653  0.004169  0.000024
  9  -4963.52718280  -0.0000581841  0.000213  0.002599  0.004712  0.000026
 10  -4963.52718102   0.0000017814  0.000165  0.000498  0.000932  0.000003
 11  -4963.52718553  -0.0000045103  0.000075  0.000651  0.002139  0.000009
 12  -4963.52718476   0.0000007677  0.000074  0.000143  0.000485  0.000002
 13  -4963.52718606  -0.0000012984  0.000035  0.000527  0.000766  0.000004
 14  -4963.52718580   0.0000002573  0.000057  0.000282  0.000786  0.000002
 15  -4963.52718616  -0.0000003525  0.000007  0.000137  0.002190  0.000002
 16  -4963.52718614   0.0000000130  0.000015  0.000087  0.000582  0.000001
                  ***Gradient check signals convergence***
              ***Rediagonalizing the Fockian in SOSCF/NRSCF***

               *****************************************************
               *                     SUCCESS                       *
               *           SCF CONVERGED AFTER  17 CYCLES          *
               *****************************************************

Setting up the final grid:

General Integration Accuracy     IntAcc      ...  5.010
Radial Grid Type                 RadialGrid  ... Gauss-Chebyshev
Angular Grid (max. acc.)         AngularGrid ... Lebedev-434
Angular grid pruning method      GridPruning ... 3 (G Style)
Weight generation scheme         WeightScheme... Becke
Basis function cutoff            BFCut       ...    1.0000e-11
Integration weight cutoff        WCut        ...    1.0000e-14
Grids for H and He will be reduced by one unit

# of grid points (after initial pruning)     ... 1280048 (   0.1 sec)
# of grid points (after weights+screening)   ... 1065785 (  22.3 sec)
nearest neighbour list constructed           ...    0.0 sec
Grid point re-assignment to atoms done       ...    0.1 sec
Grid point division into batches done        ...    6.4 sec
Reduced shell lists constructed in   11.1 sec

Total number of grid points                  ...  1065785
Total number of batches                      ...    16720
Average number of points per batch           ...       63
Average number of grid points per atom       ...     7723
Average number of shells per batch           ...   197.28 (16.78%)
Average number of basis functions per batch  ...   494.45 (16.20%)
Average number of large shells per batch     ...   114.79 (58.19%)
Average number of large basis fcns per batch ...   297.16 (60.10%)
Maximum spatial batch extension              ...  28.31, 15.81, 18.79 au
Average spatial batch extension              ...   0.25,  0.23,  0.24 au

Final grid set up in   35.2 sec
Final integration                            ... done (  16.9 sec)
Change in XC energy                          ...    -0.000088051
Integrated number of electrons               ...   625.999943008
Previous integrated no of electrons          ...   625.999017950
Old exchange energy                            =   -113.016107062 Eh
New exchange energy                            =   -113.016866003 Eh
Exchange energy change after final integration =     -0.000758941 Eh
Total energy after final integration           =  -4963.528033037 Eh
Final COS-X integration done in                =   459.876 sec

----------------
TOTAL SCF ENERGY
----------------

Total Energy       :        -4963.52803304 Eh         -135064.46432 eV

Components:
Nuclear Repulsion  :        15334.09570682 Eh          417261.95737 eV
Electronic Energy  :       -20297.62373985 Eh         -552326.42169 eV
One Electron Energy:       -37338.75165158 Eh        -1016039.08687 eV
[...]
   298a -> 313a  :     0.034477 (c= -0.18568029)
   301a -> 314a  :     0.372675 (c= -0.61047082)
   301a -> 316a  :     0.017915 (c= -0.13384692)
   302a -> 315a  :     0.011229 (c= -0.10596872)
   304a -> 315a  :     0.031838 (c= -0.17843276)
   305a -> 316a  :     0.011677 (c= -0.10805928)
   306a -> 315a  :     0.064961 (c= -0.25487516)
   308a -> 315a  :     0.252153 (c=  0.50214878)

STATE 45:  E=   0.134088 au      3.649 eV    29428.9 cm**-1
   295a -> 313a  :     0.017352 (c=  0.13172825)
   298a -> 313a  :     0.121162 (c= -0.34808293)
   301a -> 314a  :     0.184100 (c= -0.42906915)
   301a -> 316a  :     0.013692 (c= -0.11701085)
   302a -> 315a  :     0.011581 (c= -0.10761645)
   305a -> 316a  :     0.037520 (c=  0.19369987)
   306a -> 315a  :     0.325018 (c=  0.57010361)
   307a -> 316a  :     0.166593 (c= -0.40815749)
   308a -> 315a  :     0.063987 (c= -0.25295709)

STATE 46:  E=   0.135256 au      3.680 eV    29685.2 cm**-1
   293a -> 313a  :     0.027567 (c=  0.16603335)
   294a -> 314a  :     0.015972 (c= -0.12637979)
   296a -> 313a  :     0.023228 (c= -0.15240731)
   298a -> 313a  :     0.107635 (c=  0.32807850)
   304a -> 315a  :     0.011559 (c= -0.10751142)
   305a -> 315a  :     0.075232 (c=  0.27428406)
   306a -> 315a  :     0.021981 (c=  0.14826086)
   306a -> 316a  :     0.109489 (c=  0.33089081)
   307a -> 315a  :     0.129634 (c= -0.36004664)
   308a -> 316a  :     0.323383 (c= -0.56866747)
   312a -> 317a  :     0.022977 (c=  0.15158254)

STATE 47:  E=   0.135474 au      3.686 eV    29733.2 cm**-1
   293a -> 313a  :     0.063248 (c=  0.25149060)
   294a -> 314a  :     0.032422 (c= -0.18006072)
   295a -> 313a  :     0.019324 (c=  0.13900914)
   296a -> 313a  :     0.068863 (c= -0.26241803)
   296a -> 315a  :     0.013286 (c= -0.11526565)
   297a -> 316a  :     0.012854 (c= -0.11337492)
   298a -> 313a  :     0.166318 (c=  0.40782064)
   302a -> 315a  :     0.011807 (c= -0.10865841)
   304a -> 315a  :     0.037036 (c= -0.19244731)
   305a -> 315a  :     0.023209 (c= -0.15234583)
   305a -> 316a  :     0.011900 (c=  0.10908721)
   306a -> 315a  :     0.088015 (c=  0.29667313)
   306a -> 316a  :     0.043624 (c= -0.20886477)
   307a -> 315a  :     0.078372 (c=  0.27994911)
   308a -> 316a  :     0.146651 (c=  0.38295080)
   311a -> 316a  :     0.016337 (c=  0.12781821)
   312a -> 317a  :     0.043863 (c=  0.20943466)

STATE 48:  E=   0.136744 au      3.721 eV    30011.9 cm**-1
   293a -> 313a  :     0.040659 (c= -0.20164045)
   293a -> 314a  :     0.156846 (c=  0.39603849)
   294a -> 313a  :     0.470989 (c= -0.68628625)
   294a -> 314a  :     0.019387 (c= -0.13923567)
   298a -> 314a  :     0.108073 (c=  0.32874420)
   301a -> 313a  :     0.018594 (c=  0.13636035)
   304a -> 316a  :     0.012722 (c= -0.11279209)
   305a -> 315a  :     0.013658 (c= -0.11686710)
   306a -> 316a  :     0.018940 (c= -0.13762319)
   311a -> 317a  :     0.019762 (c=  0.14057752)
   312a -> 318a  :     0.026539 (c= -0.16290761)

STATE 49:  E=   0.137524 au      3.742 eV    30183.0 cm**-1
   293a -> 313a  :     0.442210 (c=  0.66498889)
   293a -> 314a  :     0.017232 (c= -0.13127238)
   294a -> 313a  :     0.037035 (c= -0.19244572)
   294a -> 314a  :     0.134287 (c= -0.36645234)
   296a -> 313a  :     0.033978 (c=  0.18433014)
   298a -> 313a  :     0.029080 (c= -0.17052957)
   298a -> 315a  :     0.010328 (c=  0.10162811)
   301a -> 314a  :     0.011492 (c=  0.10720126)
   304a -> 315a  :     0.011738 (c=  0.10834370)
   306a -> 315a  :     0.051970 (c= -0.22796979)
   307a -> 316a  :     0.078050 (c= -0.27937433)
   308a -> 315a  :     0.041589 (c= -0.20393482)
   311a -> 316a  :     0.016360 (c= -0.12790588)
   312a -> 317a  :     0.012954 (c= -0.11381631)

STATE 50:  E=   0.137692 au      3.747 eV    30219.8 cm**-1
   298a -> 314a  :     0.051680 (c= -0.22733156)
   302a -> 316a  :     0.011394 (c=  0.10674254)
   303a -> 315a  :     0.012012 (c=  0.10960086)
   305a -> 315a  :     0.256906 (c= -0.50685891)
   306a -> 316a  :     0.281479 (c= -0.53054576)
   307a -> 315a  :     0.170086 (c= -0.41241464)
   308a -> 316a  :     0.132321 (c= -0.36375992)
   312a -> 318a  :     0.018194 (c=  0.13488559)


-----------------------------
TD-DFT/TDA-EXCITATION SPECTRA
-----------------------------

Center of mass = ( -6.8140,-19.1786, -1.0147)
Calculating the Dipole integrals                  ... done
Transforming integrals                            ... done
Calculating the Linear Momentum integrals         ... done
Transforming integrals                            ... done
Calculating angular momentum integrals            ... done
Transforming integrals                            ... done

-----------------------------------------------------------------------------
         ABSORPTION SPECTRUM VIA TRANSITION ELECTRIC DIPOLE MOMENTS
-----------------------------------------------------------------------------
State   Energy    Wavelength  fosc         T2        TX        TY        TZ  
        (cm-1)      (nm)                 (au**2)    (au)      (au)      (au) 
-----------------------------------------------------------------------------
   1   14516.7    688.9   1.836578196  41.65029  -1.08892  -6.34900   0.39341
   2   16359.6    611.3   0.000367301   0.00739  -0.04600  -0.06215  -0.03759
   3   19549.8    511.5   0.002164084   0.03644  -0.01027   0.18929  -0.02253
   4   19769.5    505.8   0.474932073   7.90880   0.31045   2.78060   0.28402
   5   19936.9    501.6   0.034039735   0.56209   0.16735   0.70728   0.18394
   6   20012.1    499.7   0.008684768   0.14287   0.11697   0.33915   0.11901
   7   21268.5    470.2   0.001212749   0.01877  -0.06959  -0.02921  -0.11435
   8   21533.5    464.4   0.033480119   0.51186   0.31587   0.49989  -0.40273
   9   21606.1    462.8   0.072437740   1.10374  -0.21384  -0.84294   0.58945
  10   21843.7    457.8   0.003497585   0.05271   0.04736   0.21352  -0.06986
  11   22540.9    443.6   0.003559682   0.05199  -0.08599  -0.07220   0.19845
  12   22604.7    442.4   0.003318299   0.04833  -0.10291  -0.06720   0.18227
  13   22888.6    436.9   0.075717819   1.08907  -0.58782  -0.85111   0.13834
  14   23729.6    421.4   0.004415437   0.06126  -0.09641  -0.22767  -0.01130
  15   24079.5    415.3   0.000632593   0.00865   0.02798   0.08845   0.00656
  16   24193.6    413.3   0.059064015   0.80371   0.34432   0.79860   0.21768
  17   24433.7    409.3   0.000257744   0.00347  -0.02822  -0.05025   0.01230
  18   24493.3    408.3   0.006768201   0.09097   0.14320   0.22217   0.14527
  19   24682.3    405.1   0.000146398   0.00195   0.01441  -0.01129  -0.04022
  20   24827.3    402.8   0.017873401   0.23700  -0.08483   0.10955   0.46670
  21   25409.5    393.6   0.000140692   0.00182   0.01221   0.04067   0.00447
  22   25849.8    386.9   0.000225597   0.00287   0.02426  -0.04045   0.02547
  23   26058.5    383.8   0.000332389   0.00420   0.01003   0.00694  -0.06364
  24   26119.4    382.9   0.002527711   0.03186  -0.11248   0.12821  -0.05262
  25   26244.3    381.0   0.130929138   1.64239  -0.14122  -1.26967  -0.10187
  26   26303.4    380.2   0.014456546   0.18094  -0.04297  -0.42258  -0.02266
  27   26358.6    379.4   0.051589149   0.64433  -0.11431  -0.79147  -0.06959
  28   26521.8    377.0   0.001235580   0.01534   0.09628  -0.03849  -0.06772
  29   26626.9    375.6   0.002688854   0.03324  -0.15962  -0.03203   0.08210
  30   26841.0    372.6   0.000153033   0.00188   0.00620  -0.04284  -0.00184
  31   27019.0    370.1   0.059715772   0.72761  -0.24231  -0.81338  -0.08543
  32   27061.8    369.5   0.033236423   0.40433   0.18855   0.59748   0.10861
  33   27125.6    368.7   0.004991680   0.06058  -0.08834  -0.22395  -0.05122
  34   27585.9    362.5   0.264463032   3.15612   0.26336   1.54708   0.83265
  35   27810.1    359.6   0.001581088   0.01872  -0.02173  -0.09472  -0.09629
  36   28041.9    356.6   0.016639626   0.19535  -0.15221   0.33936   0.23878
  37   28076.7    356.2   0.004989267   0.05850  -0.11275   0.17747   0.11955
  38   28281.8    353.6   0.004377577   0.05096  -0.06443   0.17149   0.13190
  39   28357.1    352.6   0.004607978   0.05350   0.07137  -0.16163  -0.14927
  40   28498.8    350.9   0.000023031   0.00027  -0.00442   0.01566  -0.00105
  41   28582.0    349.9   0.001401582   0.01614  -0.00347  -0.10686  -0.06864
  42   28914.3    345.8   0.005744292   0.06540   0.02818  -0.22852  -0.11129
  43   29006.2    344.8   0.000262436   0.00298  -0.03215   0.03278  -0.02950
  44   29165.3    342.9   0.155841446   1.75911   0.50024   1.17125   0.37018
  45   29428.9    339.8   0.076636131   0.85731  -0.06299   0.76335   0.52023
  46   29685.2    336.9   0.017903184   0.19855   0.22626  -0.05550  -0.37983
  47   29733.2    336.3   0.029527540   0.32694   0.31152   0.10720  -0.46733
  48   30011.9    333.2   0.000047615   0.00052  -0.01297  -0.01882  -0.00015
  49   30183.0    331.3   0.038794667   0.42314  -0.43528  -0.47202   0.10424
  50   30219.8    330.9   0.000178424   0.00194   0.00623   0.03867  -0.02024

-----------------------------------------------------------------------------
         ABSORPTION SPECTRUM VIA TRANSITION VELOCITY DIPOLE MOMENTS
-----------------------------------------------------------------------------
State   Energy    Wavelength   fosc        P2         PX        PY        PZ  
        (cm-1)      (nm)                 (au**2)     (au)      (au)      (au) 
-----------------------------------------------------------------------------
   1   14516.7    688.9   0.147490280   0.01463   0.04219   0.11218   0.01636
   2   16359.6    611.3   0.000036959   0.00000   0.00156  -0.00129   0.00018
   3   19549.8    511.5   0.001663450   0.00022  -0.00943  -0.01152   0.00086
   4   19769.5    505.8   0.128400703   0.01735  -0.06772  -0.09990   0.05276
   5   19936.9    501.6   0.006738158   0.00092   0.00532  -0.01316   0.02677
   6   20012.1    499.7   0.001875484   0.00026   0.00673  -0.00321   0.01417
   7   21268.5    470.2   0.000292913   0.00004  -0.00118  -0.00480  -0.00426
   8   21533.5    464.4   0.050023295   0.00736   0.06721  -0.02114  -0.04897
   9   21606.1    462.8   0.060288374   0.00890   0.01378   0.06539   0.06661
  10   21843.7    457.8   0.001151320   0.00017  -0.00250  -0.01139  -0.00600
  11   22540.9    443.6   0.003452895   0.00053  -0.01096   0.00939   0.01799
  12   22604.7    442.4   0.002905759   0.00045  -0.01177   0.00816   0.01561
  13   22888.6    436.9   0.051137414   0.00800  -0.07455   0.04275   0.02479
  14   23729.6    421.4   0.001696333   0.00028  -0.01260   0.01079  -0.00018
  15   24079.5    415.3   0.000183291   0.00003   0.00328  -0.00440   0.00007
  16   24193.6    413.3   0.016510544   0.00273   0.03752  -0.03451   0.01146
  17   24433.7    409.3   0.000224027   0.00004  -0.00418   0.00239   0.00378
  18   24493.3    408.3   0.001599478   0.00027  -0.00063  -0.01008   0.01287
  19   24682.3    405.1   0.000297749   0.00005   0.00328  -0.00182  -0.00601
  20   24827.3    402.8   0.026040602   0.00442  -0.03675   0.00471   0.05519
  21   25409.5    393.6   0.000028526   0.00000  -0.00064  -0.00210   0.00038
  22   25849.8    386.9   0.000074671   0.00001  -0.00228   0.00248  -0.00135
  23   26058.5    383.8   0.000443784   0.00008  -0.00649  -0.00251   0.00553
  24   26119.4    382.9   0.000785927   0.00014  -0.00750  -0.00361   0.00843
  25   26244.3    381.0   0.033615909   0.00603   0.01763   0.07211  -0.02277
  26   26303.4    380.2   0.004487763   0.00081   0.01154   0.02375  -0.01046
  27   26358.6    379.4   0.022779585   0.00410   0.03585   0.04648  -0.02565
  28   26521.8    377.0   0.002513072   0.00046   0.01940   0.00651  -0.00606
  29   26626.9    375.6   0.002957876   0.00054  -0.02157  -0.00336   0.00785
  30   26841.0    372.6   0.000206322   0.00004   0.00430   0.00309  -0.00313
  31   27019.0    370.1   0.017845574   0.00330   0.01482   0.05471  -0.00907
  32   27061.8    369.5   0.009676090   0.00179  -0.01447  -0.03854   0.00972
  33   27125.6    368.7   0.002348509   0.00044   0.01315   0.00768  -0.01427
  34   27585.9    362.5   0.100282236   0.01891  -0.05814  -0.08720   0.08901
  35   27810.1    359.6   0.001014583   0.00019   0.01064   0.00683  -0.00574
  36   28041.9    356.6   0.029389138   0.00563  -0.06192  -0.02623   0.03332
  37   28076.7    356.2   0.010934061   0.00210  -0.03853  -0.01295   0.02111
  38   28281.8    353.6   0.005092938   0.00098  -0.02482  -0.01154   0.01533
  39   28357.1    352.6   0.004564782   0.00088   0.02362   0.01125  -0.01415
  40   28498.8    350.9   0.000012821   0.00000   0.00002   0.00011   0.00158
  41   28582.0    349.9   0.000603351   0.00012   0.00705   0.00488  -0.00667
  42   28914.3    345.8   0.005430600   0.00107   0.02323   0.02068  -0.01030
  43   29006.2    344.8   0.000157838   0.00003   0.00405   0.00042   0.00383
  44   29165.3    342.9   0.035621906   0.00710  -0.00512  -0.08158   0.02048
  45   29428.9    339.8   0.048988801   0.00985  -0.06692  -0.04999   0.05363
  46   29685.2    336.9   0.015186618   0.00308   0.03478  -0.01036  -0.04200
  47   29733.2    336.3   0.023113946   0.00470   0.03867  -0.02731  -0.04956
  48   30011.9    333.2   0.000105563   0.00002   0.00058   0.00404   0.00224
  49   30183.0    331.3   0.032781277   0.00676  -0.04196   0.05810   0.04032
  50   30219.8    330.9   0.000052988   0.00001  -0.00075  -0.00321   0.00026

-------------------------------------------------------------------
                             CD SPECTRUM
-------------------------------------------------------------------
State  Energy     Wavelength     R         MX        MY        MZ   
       (cm-1)       (nm)     (1e40*cgs)   (au)      (au)      (au)  
-------------------------------------------------------------------
   1   14516.7    688.9     60.82940  -0.00486  -0.02228  -0.04501
   2   16359.6    611.3     -7.73880   0.18639   0.05827   0.11226
   3   19549.8    511.5     10.71960  -0.00276   0.11248  -0.06298
   4   19769.5    505.8     10.20189   0.03613   0.00100   0.02691
   5   19936.9    501.6     32.13227   0.01184   0.07703   0.06356
   6   20012.1    499.7    -20.15713  -0.03779  -0.05944  -0.15273
   7   21268.5    470.2    -76.10700   1.08194  -0.12073   0.78412
   8   21533.5    464.4     -1.92444   0.04742  -0.00568   0.04028
   9   21606.1    462.8      4.13850   0.12281  -0.02805   0.01934
  10   21843.7    457.8      7.86317  -0.07863  -0.05241  -0.45224
  11   22540.9    443.6     -1.69540   0.01233  -0.00906  -0.01607
  12   22604.7    442.4      0.27494  -0.00577   0.00316   0.00110
  13   22888.6    436.9      4.05201  -0.01738   0.00165  -0.00157
  14   23729.6    421.4      9.34294  -0.04240  -0.07883   0.19638
  15   24079.5    415.3      0.39338  -0.02315   0.01798  -0.01647
  16   24193.6    413.3     -3.75374   0.01149  -0.02134   0.02355
  17   24433.7    409.3     -2.16795  -0.09833   0.05174  -0.38809
  18   24493.3    408.3      7.95549   0.03860  -0.01848   0.10637
  19   24682.3    405.1     -2.84790  -0.10146   0.12783   0.07798
  20   24827.3    402.8     -1.70957  -0.00438   0.01685  -0.01252
  21   25409.5    393.6     -0.15092  -0.11560   0.03844  -0.10546
  22   25849.8    386.9    -15.93782  -0.74067   0.22457  -0.26526
  23   26058.5    383.8     -0.47816   0.03885  -0.01657   0.02025
  24   26119.4    382.9     -0.48187   0.00451  -0.00083   0.00778
  25   26244.3    381.0     10.15828   0.00766  -0.01856   0.00917
  26   26303.4    380.2      2.94932   0.02908  -0.01633  -0.02666
  27   26358.6    379.4      3.02628  -0.01226  -0.00526  -0.01225
  28   26521.8    377.0      6.49319   0.29264  -0.05488   0.24386
  29   26626.9    375.6     -5.29388   0.14758  -0.02349   0.14100
  30   26841.0    372.6     -0.46727  -0.07702   0.01131   0.01574
  31   27019.0    370.1    -18.07396  -0.02321   0.04137   0.12073
  32   27061.8    369.5     26.23988  -0.00870   0.05636   0.21751
  33   27125.6    368.7      0.08775   0.00215  -0.00377   0.00913
  34   27585.9    362.5     10.85416   0.04856   0.00454   0.00386
  35   27810.1    359.6    -10.79006   0.16772  -0.02601   0.22540
  36   28041.9    356.6      8.13349   0.04868   0.03673   0.05108
  37   28076.7    356.2     -4.31963  -0.06294  -0.04633  -0.06722
  38   28281.8    353.6     -0.41182   0.05970  -0.03723   0.07094
  39   28357.1    352.6     -0.89568   0.03636  -0.01721   0.04875
  40   28498.8    350.9     -0.67873   0.08728  -0.05733   0.14799
  41   28582.0    349.9     -0.50560   0.02215  -0.02041   0.04628
  42   28914.3    345.8     -0.59790   0.03379  -0.00974   0.03995
  43   29006.2    344.8    -15.84920   0.41230  -0.19571   0.47275
  44   29165.3    342.9      2.42268   0.01313   0.00790  -0.02887
  45   29428.9    339.8     -1.44341   0.02400  -0.00757   0.00812
  46   29685.2    336.9     15.62156  -0.05698   0.03005  -0.12557
  47   29733.2    336.3    -14.75617   0.04497  -0.02466   0.09129
  48   30011.9    333.2      1.89963  -0.23306  -0.05283  -0.08623
  49   30183.0    331.3      2.71136  -0.01967   0.00574  -0.00095
  50   30219.8    330.9     -2.89884   0.19253  -0.06648   0.23608

Total run time:    41879.104 sec

           *** ORCA-CIS/TD-DFT FINISHED WITHOUT ERROR ***

-----------------------
CIS/TD-DFT TOTAL ENERGY
-----------------------

    E(SCF)  =  -4963.528033037 Eh
    DE(CIS) =      0.066142811 Eh (Root  1)
    ----------------------------- ---------
    E(tot)  =  -4963.461890226 Eh


-------------------------   --------------------
FINAL SINGLE POINT ENERGY     -4963.461890225788
-------------------------   --------------------


                            ***************************************
                            *     ORCA property calculations      *
                            ***************************************

                                    ---------------------
                                    Active property flags
                                    ---------------------
   (+) Dipole Moment


------------------------------------------------------------------------------
                       ORCA ELECTRIC PROPERTIES CALCULATION
------------------------------------------------------------------------------

Dipole Moment Calculation                       ... on
Quadrupole Moment Calculation                   ... off
Polarizability Calculation                      ... off
GBWName                                         ... ITIC.gbw
Electron density file                           ... ITIC.scfp
The origin for moment calculation is the CENTER OF MASS  = (-6.813979, -19.178618 -1.014679)

-------------
DIPOLE MOMENT
-------------
                                X             Y             Z
Electronic contribution:      8.86948      -1.34777       1.25658
Nuclear contribution   :     -8.93433       1.21924      -1.17047
                        -----------------------------------------
Total Dipole Moment    :     -0.06485      -0.12852       0.08611
                        -----------------------------------------
Magnitude (a.u.)       :      0.16775
Magnitude (Debye)      :      0.42638



--------------------
Rotational spectrum 
--------------------
 
Rotational constants in cm-1:     0.001419     0.000271     0.000266 
Rotational constants in MHz :    42.548130     8.110865     7.966427 

 Dipole components along the rotational axes: 
x,y,z [a.u.] :     0.141943     0.005186    -0.089244 
x,y,z [Debye]:     0.360791     0.013183    -0.226840 

 

Timings for individual modules:

Sum of individual times         ...    46281.608 sec (= 771.360 min)
GTO integral calculation        ...       12.554 sec (=   0.209 min)   0.0 %
SCF iterations                  ...     4387.736 sec (=  73.129 min)   9.5 %
CIS module                      ...    41881.318 sec (= 698.022 min)  90.5 %
                             ****ORCA TERMINATED NORMALLY****
TOTAL RUN TIME: 0 days 12 hours 51 minutes 25 seconds 628 msec
