
                                 *****************
                                 * O   R   C   A *
                                 *****************

           --- An Ab Initio, DFT and Semiempirical electronic structure package ---

                  #######################################################
                  #                        -***-                        #
                  #          Department of theory and spectroscopy      #
                  #               Directorship: Frank Neese             #
                  #        Max Planck Institute fuer Kohlenforschung    #
                  #                Kaiser Wilhelm Platz 1               #
                  #                 D-45470 Muelheim/Ruhr               #
                  #                      Germany                        #
                  #                                                     #
                  #                  All rights reserved                #
                  #                        -***-                        #
                  #######################################################


                         Program Version 4.2.0 -  RELEASE  -


 With contributions from (in alphabetic order):
   Daniel Aravena         : Magnetic Suceptibility
   Michael Atanasov       : Ab Initio Ligand Field Theory (pilot matlab implementation)
   Alexander A. Auer      : GIAO ZORA, VPT2
   Ute Becker             : Parallelization
   Giovanni Bistoni       : ED, misc. LED, open-shell LED, HFLED
   Martin Brehm           : Molecular dynamics
   Dmytro Bykov           : SCF Hessian
   Vijay G. Chilkuri      : MRCI spin determinant printing, contributions to CSF-ICE
   Dipayan Datta          : RHF DLPNO-CCSD density
   Achintya Kumar Dutta   : EOM-CC, STEOM-CC
   Dmitry Ganyushin       : Spin-Orbit,Spin-Spin,Magnetic field MRCI
   Miquel Garcia          : C-PCM Hessian, Gaussian charge scheme
   Yang Guo               : DLPNO-NEVPT2, CIM, IAO-localization
   Andreas Hansen         : Spin unrestricted coupled pair/coupled cluster methods
   Benjamin Helmich-Paris : CASSCF linear response (MC-RPA)
   Lee Huntington         : MR-EOM, pCC
   Robert Izsak           : Overlap fitted RIJCOSX, COSX-SCS-MP3, EOM
   Christian Kollmar      : KDIIS, OOCD, Brueckner-CCSD(T), CCSD density
   Simone Kossmann        : Meta GGA functionals, TD-DFT gradient, OOMP2, MP2 Hessian
   Martin Krupicka        : AUTO-CI
   Lucas Lang             : DCDCAS
   Dagmar Lenk            : GEPOL surface, SMD
   Dimitrios Liakos       : Extrapolation schemes; Compound Job, initial MDCI parallelization
   Dimitrios Manganas     : Further ROCIS development; embedding schemes
   Dimitrios Pantazis     : SARC Basis sets
   Taras Petrenko         : DFT Hessian,TD-DFT gradient, ASA, ECA, R-Raman, ABS, FL, XAS/XES, NRVS
   Peter Pinski           : DLPNO-MP2, DLPNO-MP2 Gradient
   Christoph Reimann      : Effective Core Potentials
   Marius Retegan         : Local ZFS, SOC
   Christoph Riplinger    : Optimizer, TS searches, QM/MM, DLPNO-CCSD(T), (RO)-DLPNO pert. Triples
   Tobias Risthaus        : Range-separated hybrids, TD-DFT gradient, RPA, STAB
   Michael Roemelt        : Original ROCIS implementation
   Masaaki Saitow         : Open-shell DLPNO-CCSD energy and density
   Barbara Sandhoefer     : DKH picture change effects
   Avijit Sen             : IP-ROCIS
   Kantharuban Sivalingam : CASSCF convergence, NEVPT2, FIC-MRCI
   Bernardo de Souza      : ESD, SOC TD-DFT
   Georgi Stoychev        : AutoAux, RI-MP2 NMR
   Willem Van den Heuvel  : Paramagnetic NMR
   Boris Wezisla          : Elementary symmetry handling
   Frank Wennmohs         : Technical directorship


 We gratefully acknowledge several colleagues who have allowed us to
 interface, adapt or use parts of their codes:
   Stefan Grimme, W. Hujo, H. Kruse,             : VdW corrections, initial TS optimization,
                  C. Bannwarth                     DFT functionals, gCP, sTDA/sTD-DF
   Ed Valeev, F. Pavosevic, A. Kumar             : LibInt (2-el integral package), F12 methods
   Garnet Chan, S. Sharma, J. Yang, R. Olivares  : DMRG
   Ulf Ekstrom                                   : XCFun DFT Library
   Mihaly Kallay                                 : mrcc  (arbitrary order and MRCC methods)
   Andreas Klamt, Michael Diedenhofen            : otool_cosmo (COSMO solvation model)
   Jiri Pittner, Ondrej Demel                    : Mk-CCSD
   Frank Weinhold                                : gennbo (NPA and NBO analysis)
   Christopher J. Cramer and Donald G. Truhlar   : smd solvation model
   Lars Goerigk                                  : TD-DFT with DH, B97 family of functionals
   V. Asgeirsson, H. Jonsson                     : NEB implementation
   FAccTs GmbH                                   : IRC, NEB, NEB-TS, Multilevel, MM, QM/MM, CI optimization
   S Lehtola, MJT Oliveira, MAL Marques          : LibXC Library


 Your calculation uses the libint2 library for the computation of 2-el integrals
 For citations please refer to: http://libint.valeyev.net

 Your ORCA version has been built with support for libXC version: 4.2.3
 For citations please refer to: https://tddft.org/programs/libxc/

 This ORCA versions uses:
   CBLAS   interface :  Fast vector & matrix operations
   LAPACKE interface :  Fast linear algebra routines
   SCALAPACK package :  Parallel linear algebra routines


----- Orbital basis set information -----
Your calculation utilizes the basis: def2-TZVP
   F. Weigend and R. Ahlrichs, Phys. Chem. Chem. Phys. 7, 3297 (2005).

----- AuxJ basis set information -----
Your calculation utilizes the auxiliary basis: def2/J
   F. Weigend, Phys. Chem. Chem. Phys. 8, 1057 (2006).

================================================================================
                                        WARNINGS
                       Please study these warnings very carefully!
================================================================================

INFO   : Checking CIS options ...

WARNING: CIS/ROCIS methods need fully converged wavefunctions
  ===> : Setting SCFConvForced true
         You can overwrite this default with %scf ConvForced false 


INFO   : the flag for use of LIBINT has been found!

================================================================================
                                       INPUT FILE
================================================================================
NAME = ITIC-Th.inp
|  1> # ORCA input file
|  2> # ../ITIC-Th.out
|  3> ! B3LYP def2-TZVP def2/J RIJCOSX Grid4 TightSCF
|  4> %maxcore 10000
|  5> %tddft
|  6>   maxdim 5
|  7>   nroots 50
|  8>   end
|  9> * xyz 0 1
| 10>    C       -3.67565         0.65567        -0.64580
| 11>    O       -4.66294         1.30151        -0.37999
| 12>    C       -2.27540         1.12117        -0.73002
| 13>    C       -1.75666         2.37248        -0.45884
| 14>    C       -0.38724         2.55774        -0.58877
| 15>    C        0.43452         1.50811        -0.97508
| 16>    C       -0.08172         0.25045        -1.25767
| 17>    C       -1.44813         0.05789        -1.13851
| 18>    C       -2.28420        -1.10939        -1.40754
| 19>    C       -1.95011        -2.14610        -2.23760
| 20>    C       -2.88442        -3.08323        -2.73013
| 21>    N       -3.62370        -3.82235        -3.20416
| 22>    C       -0.66036        -2.35882        -2.76211
| 23>    N        0.37278        -2.60588        -3.19810
| 24>    C       -3.60788        -0.81026        -0.89760
| 25>    C       -4.64862        -1.61333        -0.54922
| 26>    C       -4.63227        -3.01341        -0.33983
| 27>    C       -5.71236        -3.87271        -0.41094
| 28>    C       -5.33929        -5.19912        -0.21374
| 29>    C       -3.96916        -5.36825         0.05782
| 30>    S       -3.14986        -3.85852         0.09142
| 31>    C       -3.61248        -6.70482         0.18922
| 32>    C       -2.34465        -7.51074         0.37016
| 33>    C       -1.44232        -7.23013        -0.80333
| 34>    C       -0.84706        -6.05544        -1.14358
| 35>    C       -0.14092        -6.12352        -2.36478
| 36>    C       -0.21614        -7.33986        -2.96383
| 37>    C        0.41991        -7.79157        -4.23274
| 38>    C        1.59965        -8.72709        -3.96095
| 39>    S       -1.16254        -8.44155        -2.01306
| 40>    C       -1.71999        -7.23212         1.70870
| 41>    C       -1.99691        -7.87168         2.87739
| 42>    C       -1.30281        -7.33307         3.98342
| 43>    C       -0.51210        -6.27693         3.66077
| 44>    C        0.38642        -5.48046         4.54302
| 45>    C        1.85426        -5.85125         4.32174
| 46>    S       -0.60359        -5.93134         1.96314
| 47>    C       -2.89965        -8.92341         0.31513
| 48>    C       -4.29645        -8.91389         0.09976
| 49>    C       -4.70093        -7.54416         0.02298
| 50>    S       -6.18689        -6.71587        -0.28429
| 51>    C       -5.02630       -10.09278        -0.02377
| 52>    C       -4.32447       -11.27122         0.06228
| 53>    C       -4.86072       -12.68562        -0.08787
| 54>    C       -5.87113       -13.03445         0.96801
| 55>    C       -5.73856       -13.86517         2.03502
| 56>    C       -6.92503       -13.97880         2.79540
| 57>    C       -7.95399       -13.23785         2.31009
| 58>    C       -9.32765       -13.07866         2.86374
| 59>    C       -9.46668       -11.76055         3.62850
| 60>    S       -7.47070       -12.36597         0.88894
| 61>    C       -5.43326       -12.93116        -1.45624
| 62>    C       -6.16921       -14.00316        -1.85261
| 63>    C       -6.50450       -13.95759        -3.22388
| 64>    C       -6.01250       -12.86507        -3.86476
| 65>    C       -6.19624       -12.46030        -5.28680
| 66>    C       -7.16000       -11.27800        -5.40555
| 67>    S       -5.11686       -11.85364        -2.77375
| 68>    C       -3.59773       -13.48390         0.08193
| 69>    C       -2.51362       -12.65219         0.30058
| 70>    C       -2.92725       -11.28233         0.28475
| 71>    C       -2.20078       -10.10323         0.42198
| 72>    S       -1.02339       -13.49843         0.53559
| 73>    C       -1.86556       -15.01104         0.34934
| 74>    C       -3.23633       -14.82415         0.09538
| 75>    S       -4.06099       -16.32131        -0.06986
| 76>    C       -2.57276       -17.20117         0.27376
| 77>    C       -1.49316       -16.34926         0.42622
| 78>    C       -2.53198       -18.61408         0.31689
| 79>    C       -3.56003       -19.48591         0.50026
| 80>    C       -4.92059       -19.30040         0.96139
| 81>    C       -5.34059       -18.39905         1.90325
| 82>    C       -6.66562       -18.30130         2.37225
| 83>    N       -7.73161       -18.15634         2.77281
| 84>    C       -4.47098       -17.51329         2.57449
| 85>    N       -3.79440       -16.81503         3.18507
| 86>    C       -5.69516       -20.44146         0.47864
| 87>    C       -7.05819       -20.68720         0.47787
| 88>    C       -7.50903       -21.90370        -0.01750
| 89>    C       -6.62690       -22.86243        -0.49588
| 90>    C       -5.25962       -22.62337        -0.50405
| 91>    C       -4.80558       -21.41157        -0.02083
| 92>    C       -3.42111       -20.90004         0.05505
| 93>    O       -2.39541       -21.47435        -0.22849
| 94>    H       -2.41060         3.17605        -0.15700
| 95>    H        0.04447         3.52621        -0.38579
| 96>    H        1.49864         1.67022        -1.05984
| 97>    H        0.57472        -0.55379        -1.54961
| 98>    H       -5.58938        -1.10925        -0.35078
| 99>    H       -6.70664        -3.54573        -0.65431
|100>    H       -0.89637        -5.16197        -0.54796
|101>    H        0.39185        -5.28758        -2.78228
|102>    H        0.76460        -6.91184        -4.77979
|103>    H       -0.31702        -8.31294        -4.84873
|104>    H        2.35203        -8.22033        -3.36089
|105>    H        2.05464        -9.04276        -4.89646
|106>    H        1.26299        -9.60977        -3.42137
|107>    H       -2.67328        -8.70490         2.95028
|108>    H       -1.39555        -7.71883         4.98316
|109>    H        0.11220        -5.66818         5.58333
|110>    H        0.25162        -4.41536         4.33931
|111>    H        2.01299        -6.90661         4.53126
|112>    H        2.49413        -5.26573         4.97709
|113>    H        2.13965        -5.65673         3.29037
|114>    H       -6.09208       -10.07439        -0.19263
|115>    H       -4.83423       -14.38988         2.28679
|116>    H       -7.00570       -14.60580         3.66533
|117>    H       -9.53243       -13.91639         3.53335
|118>    H      -10.05761       -13.10087         2.05125
|119>    H       -8.75534       -11.72427         4.45050
|120>    H      -10.47122       -11.66314         4.03237
|121>    H       -9.27354       -10.91891         2.96683
|122>    H       -6.46874       -14.79428        -1.18751
|123>    H       -7.09123       -14.71468        -3.71315
|124>    H       -6.58780       -13.31310        -5.84546
|125>    H       -5.23203       -12.18073        -5.71850
|126>    H       -8.12960       -11.53766        -4.98670
|127>    H       -7.29295       -11.00271        -6.44872
|128>    H       -6.76879       -10.41889        -4.86539
|129>    H       -1.13548       -10.12129         0.59178
|130>    H       -0.49767       -16.69834         0.63093
|131>    H       -1.56730       -19.06589         0.10653
|132>    H       -7.76085       -19.95306         0.83888
|133>    H       -8.56968       -22.10547        -0.02855
|134>    H       -7.00927       -23.80136        -0.86696
|135>    H       -4.55881       -23.35545        -0.87476
|136> *
|137> 
|138>                          ****END OF INPUT****
================================================================================

                       ****************************
                       * Single Point Calculation *
                       ****************************

---------------------------------
CARTESIAN COORDINATES (ANGSTROEM)
---------------------------------
  C     -3.675650    0.655670   -0.645800
  O     -4.662940    1.301510   -0.379990
  C     -2.275400    1.121170   -0.730020
  C     -1.756660    2.372480   -0.458840
  C     -0.387240    2.557740   -0.588770
  C      0.434520    1.508110   -0.975080
  C     -0.081720    0.250450   -1.257670
  C     -1.448130    0.057890   -1.138510
  C     -2.284200   -1.109390   -1.407540
  C     -1.950110   -2.146100   -2.237600
  C     -2.884420   -3.083230   -2.730130
  N     -3.623700   -3.822350   -3.204160
  C     -0.660360   -2.358820   -2.762110
  N      0.372780   -2.605880   -3.198100
  C     -3.607880   -0.810260   -0.897600
  C     -4.648620   -1.613330   -0.549220
  C     -4.632270   -3.013410   -0.339830
  C     -5.712360   -3.872710   -0.410940
  C     -5.339290   -5.199120   -0.213740
  C     -3.969160   -5.368250    0.057820
  S     -3.149860   -3.858520    0.091420
  C     -3.612480   -6.704820    0.189220
  C     -2.344650   -7.510740    0.370160
  C     -1.442320   -7.230130   -0.803330
  C     -0.847060   -6.055440   -1.143580
  C     -0.140920   -6.123520   -2.364780
  C     -0.216140   -7.339860   -2.963830
  C      0.419910   -7.791570   -4.232740
  C      1.599650   -8.727090   -3.960950
  S     -1.162540   -8.441550   -2.013060
  C     -1.719990   -7.232120    1.708700
  C     -1.996910   -7.871680    2.877390
  C     -1.302810   -7.333070    3.983420
  C     -0.512100   -6.276930    3.660770
  C      0.386420   -5.480460    4.543020
  C      1.854260   -5.851250    4.321740
  S     -0.603590   -5.931340    1.963140
  C     -2.899650   -8.923410    0.315130
  C     -4.296450   -8.913890    0.099760
  C     -4.700930   -7.544160    0.022980
  S     -6.186890   -6.715870   -0.284290
  C     -5.026300  -10.092780   -0.023770
  C     -4.324470  -11.271220    0.062280
  C     -4.860720  -12.685620   -0.087870
  C     -5.871130  -13.034450    0.968010
  C     -5.738560  -13.865170    2.035020
  C     -6.925030  -13.978800    2.795400
  C     -7.953990  -13.237850    2.310090
  C     -9.327650  -13.078660    2.863740
  C     -9.466680  -11.760550    3.628500
  S     -7.470700  -12.365970    0.888940
  C     -5.433260  -12.931160   -1.456240
  C     -6.169210  -14.003160   -1.852610
  C     -6.504500  -13.957590   -3.223880
  C     -6.012500  -12.865070   -3.864760
  C     -6.196240  -12.460300   -5.286800
  C     -7.160000  -11.278000   -5.405550
  S     -5.116860  -11.853640   -2.773750
  C     -3.597730  -13.483900    0.081930
  C     -2.513620  -12.652190    0.300580
  C     -2.927250  -11.282330    0.284750
  C     -2.200780  -10.103230    0.421980
  S     -1.023390  -13.498430    0.535590
  C     -1.865560  -15.011040    0.349340
  C     -3.236330  -14.824150    0.095380
  S     -4.060990  -16.321310   -0.069860
  C     -2.572760  -17.201170    0.273760
  C     -1.493160  -16.349260    0.426220
  C     -2.531980  -18.614080    0.316890
  C     -3.560030  -19.485910    0.500260
  C     -4.920590  -19.300400    0.961390
  C     -5.340590  -18.399050    1.903250
  C     -6.665620  -18.301300    2.372250
  N     -7.731610  -18.156340    2.772810
  C     -4.470980  -17.513290    2.574490
  N     -3.794400  -16.815030    3.185070
  C     -5.695160  -20.441460    0.478640
  C     -7.058190  -20.687200    0.477870
  C     -7.509030  -21.903700   -0.017500
  C     -6.626900  -22.862430   -0.495880
  C     -5.259620  -22.623370   -0.504050
  C     -4.805580  -21.411570   -0.020830
  C     -3.421110  -20.900040    0.055050
  O     -2.395410  -21.474350   -0.228490
  H     -2.410600    3.176050   -0.157000
  H      0.044470    3.526210   -0.385790
  H      1.498640    1.670220   -1.059840
  H      0.574720   -0.553790   -1.549610
  H     -5.589380   -1.109250   -0.350780
  H     -6.706640   -3.545730   -0.654310
  H     -0.896370   -5.161970   -0.547960
  H      0.391850   -5.287580   -2.782280
  H      0.764600   -6.911840   -4.779790
  H     -0.317020   -8.312940   -4.848730
  H      2.352030   -8.220330   -3.360890
  H      2.054640   -9.042760   -4.896460
  H      1.262990   -9.609770   -3.421370
  H     -2.673280   -8.704900    2.950280
  H     -1.395550   -7.718830    4.983160
  H      0.112200   -5.668180    5.583330
  H      0.251620   -4.415360    4.339310
  H      2.012990   -6.906610    4.531260
  H      2.494130   -5.265730    4.977090
  H      2.139650   -5.656730    3.290370
  H     -6.092080  -10.074390   -0.192630
  H     -4.834230  -14.389880    2.286790
  H     -7.005700  -14.605800    3.665330
  H     -9.532430  -13.916390    3.533350
  H    -10.057610  -13.100870    2.051250
  H     -8.755340  -11.724270    4.450500
  H    -10.471220  -11.663140    4.032370
  H     -9.273540  -10.918910    2.966830
  H     -6.468740  -14.794280   -1.187510
  H     -7.091230  -14.714680   -3.713150
  H     -6.587800  -13.313100   -5.845460
  H     -5.232030  -12.180730   -5.718500
  H     -8.129600  -11.537660   -4.986700
  H     -7.292950  -11.002710   -6.448720
  H     -6.768790  -10.418890   -4.865390
  H     -1.135480  -10.121290    0.591780
  H     -0.497670  -16.698340    0.630930
  H     -1.567300  -19.065890    0.106530
  H     -7.760850  -19.953060    0.838880
  H     -8.569680  -22.105470   -0.028550
  H     -7.009270  -23.801360   -0.866960
  H     -4.558810  -23.355450   -0.874760

----------------------------
CARTESIAN COORDINATES (A.U.)
----------------------------
  NO LB      ZA    FRAG     MASS         X           Y           Z
   0 C     6.0000    0    12.011   -6.945972    1.239037   -1.220385
   1 O     8.0000    0    15.999   -8.811680    2.459497   -0.718077
   2 C     6.0000    0    12.011   -4.299883    2.118704   -1.379538
   3 C     6.0000    0    12.011   -3.319606    4.483337   -0.867082
   4 C     6.0000    0    12.011   -0.731778    4.833428   -1.112614
   5 C     6.0000    0    12.011    0.821124    2.849915   -1.842634
   6 C     6.0000    0    12.011   -0.154428    0.473282   -2.376652
   7 C     6.0000    0    12.011   -2.736569    0.109396   -2.151472
   8 C     6.0000    0    12.011   -4.316512   -2.096443   -2.659865
   9 C     6.0000    0    12.011   -3.685174   -4.055541   -4.228451
  10 C     6.0000    0    12.011   -5.450764   -5.826460   -5.159198
  11 N     7.0000    0    14.007   -6.847801   -7.223195   -6.054985
  12 C     6.0000    0    12.011   -1.247900   -4.457524   -5.219631
  13 N     7.0000    0    14.007    0.704452   -4.924400   -6.043533
  14 C     6.0000    0    12.011   -6.817905   -1.531169   -1.696218
  15 C     6.0000    0    12.011   -8.784619   -3.048752   -1.037875
  16 C     6.0000    0    12.011   -8.753722   -5.694520   -0.642186
  17 C     6.0000    0    12.011  -10.794796   -7.318361   -0.776564
  18 C     6.0000    0    12.011  -10.089796   -9.824913   -0.403910
  19 C     6.0000    0    12.011   -7.500625  -10.144522    0.109264
  20 S    16.0000    0    32.060   -5.952373   -7.291546    0.172759
  21 C     6.0000    0    12.011   -6.826598  -12.670274    0.357574
  22 C     6.0000    0    12.011   -4.430746  -14.193242    0.699501
  23 C     6.0000    0    12.011   -2.725590  -13.662966   -1.518074
  24 C     6.0000    0    12.011   -1.600711  -11.443123   -2.161053
  25 C     6.0000    0    12.011   -0.266300  -11.571776   -4.468787
  26 C     6.0000    0    12.011   -0.408445  -13.870325   -5.600827
  27 C     6.0000    0    12.011    0.793515  -14.723933   -7.998719
  28 C     6.0000    0    12.011    3.022900  -16.491810   -7.485111
  29 S    16.0000    0    32.060   -2.196882  -15.952218   -3.804132
  30 C     6.0000    0    12.011   -3.250310  -13.666726    3.228975
  31 C     6.0000    0    12.011   -3.773613  -14.875319    5.437479
  32 C     6.0000    0    12.011   -2.461954  -13.857494    7.527573
  33 C     6.0000    0    12.011   -0.967729  -11.861679    6.917853
  34 C     6.0000    0    12.011    0.730228  -10.356568    8.585064
  35 C     6.0000    0    12.011    3.504044  -11.057260    8.166905
  36 S    16.0000    0    32.060   -1.140620  -11.208608    3.709797
  37 C     6.0000    0    12.011   -5.479544  -16.862801    0.595509
  38 C     6.0000    0    12.011   -8.119114  -16.844811    0.188519
  39 C     6.0000    0    12.011   -8.883470  -14.256396    0.043426
  40 S    16.0000    0    32.060  -11.691528  -12.691155   -0.537230
  41 C     6.0000    0    12.011   -9.498330  -19.072590   -0.044919
  42 C     6.0000    0    12.011   -8.172064  -21.299519    0.117692
  43 C     6.0000    0    12.011   -9.185430  -23.972348   -0.166050
  44 C     6.0000    0    12.011  -11.094828  -24.631541    1.829274
  45 C     6.0000    0    12.011  -10.844307  -26.201374    3.845630
  46 C     6.0000    0    12.011  -13.086410  -26.416104    5.282540
  47 C     6.0000    0    12.011  -15.030863  -25.015911    4.365437
  48 C     6.0000    0    12.011  -17.626704  -24.715086    5.411684
  49 C     6.0000    0    12.011  -17.889433  -22.224219    6.856871
  50 S    16.0000    0    32.060  -14.117577  -23.368297    1.679853
  51 C     6.0000    0    12.011  -10.267373  -24.436351   -2.751895
  52 C     6.0000    0    12.011  -11.658117  -26.462137   -3.500926
  53 C     6.0000    0    12.011  -12.291724  -26.376023   -6.092250
  54 C     6.0000    0    12.011  -11.361978  -24.311459   -7.303338
  55 C     6.0000    0    12.011  -11.709197  -23.546555   -9.990604
  56 C     6.0000    0    12.011  -13.530439  -21.312331  -10.215009
  57 S    16.0000    0    32.060   -9.669464  -22.400133   -5.241628
  58 C     6.0000    0    12.011   -6.798724  -25.480878    0.154825
  59 C     6.0000    0    12.011   -4.750053  -23.909174    0.568014
  60 C     6.0000    0    12.011   -5.531701  -21.320514    0.538100
  61 C     6.0000    0    12.011   -4.158871  -19.092338    0.797427
  62 S    16.0000    0    32.060   -1.933927  -25.508336    1.012118
  63 C     6.0000    0    12.011   -3.525397  -28.366755    0.660157
  64 C     6.0000    0    12.011   -6.115777  -28.013584    0.180242
  65 S    16.0000    0    32.060   -7.674159  -30.842806   -0.132016
  66 C     6.0000    0    12.011   -4.861812  -32.505500    0.517331
  67 C     6.0000    0    12.011   -2.821663  -30.895624    0.805439
  68 C     6.0000    0    12.011   -4.784749  -35.175513    0.598835
  69 C     6.0000    0    12.011   -6.727482  -36.823033    0.945354
  70 C     6.0000    0    12.011   -9.298568  -36.472470    1.816764
  71 C     6.0000    0    12.011  -10.092252  -34.769166    3.596621
  72 C     6.0000    0    12.011  -12.596196  -34.584445    4.482903
  73 N     7.0000    0    14.007  -14.610625  -34.310510    5.239852
  74 C     6.0000    0    12.011   -8.448928  -33.095322    4.865081
  75 N     7.0000    0    14.007   -7.170377  -31.775802    6.018910
  76 C     6.0000    0    12.011  -10.762293  -38.628761    0.904499
  77 C     6.0000    0    12.011  -13.338046  -39.093142    0.903043
  78 C     6.0000    0    12.011  -14.190010  -41.391994   -0.033070
  79 C     6.0000    0    12.011  -12.523026  -43.203731   -0.937077
  80 C     6.0000    0    12.011   -9.939241  -42.751974   -0.952516
  81 C     6.0000    0    12.011   -9.081230  -40.462003   -0.039363
  82 C     6.0000    0    12.011   -6.464961  -39.495352    0.104029
  83 O     8.0000    0    15.999   -4.526669  -40.580640   -0.431784
  84 H     1.0000    0     1.008   -4.555374    6.001865   -0.296687
  85 H     1.0000    0     1.008    0.084036    6.663571   -0.729037
  86 H     1.0000    0     1.008    2.832019    3.156258   -2.002807
  87 H     1.0000    0     1.008    1.086063   -1.046511   -2.928339
  88 H     1.0000    0     1.008  -10.562397   -2.096179   -0.662878
  89 H     1.0000    0     1.008  -12.673713   -6.700459   -1.236467
  90 H     1.0000    0     1.008   -1.693894   -9.754710   -1.035494
  91 H     1.0000    0     1.008    0.740489   -9.992078   -5.257747
  92 H     1.0000    0     1.008    1.444885  -13.061485   -9.032494
  93 H     1.0000    0     1.008   -0.599081  -15.709180   -9.162772
  94 H     1.0000    0     1.008    4.444693  -15.534172   -6.351162
  95 H     1.0000    0     1.008    3.882707  -17.088340   -9.252968
  96 H     1.0000    0     1.008    2.386705  -18.159834   -6.465452
  97 H     1.0000    0     1.008   -5.051767  -16.449877    5.575221
  98 H     1.0000    0     1.008   -2.637207  -14.586475    9.416808
  99 H     1.0000    0     1.008    0.212027  -10.711308   10.550965
 100 H     1.0000    0     1.008    0.475493   -8.343821    8.200108
 101 H     1.0000    0     1.008    3.804000  -13.051601    8.562840
 102 H     1.0000    0     1.008    4.713223   -9.950788    9.405337
 103 H     1.0000    0     1.008    4.043353  -10.689671    6.217898
 104 H     1.0000    0     1.008  -11.512363  -19.037838   -0.364018
 105 H     1.0000    0     1.008   -9.135371  -27.192932    4.321407
 106 H     1.0000    0     1.008  -13.238854  -27.600962    6.926470
 107 H     1.0000    0     1.008  -18.013682  -26.298166    6.677064
 108 H     1.0000    0     1.008  -19.006128  -24.757056    3.876301
 109 H     1.0000    0     1.008  -16.545195  -22.155659    8.410226
 110 H     1.0000    0     1.008  -19.787738  -22.040140    7.620075
 111 H     1.0000    0     1.008  -17.524451  -20.633750    5.606496
 112 H     1.0000    0     1.008  -12.224147  -27.957138   -2.244069
 113 H     1.0000    0     1.008  -13.400483  -27.806715   -7.016837
 114 H     1.0000    0     1.008  -12.449138  -25.158113  -11.046319
 115 H     1.0000    0     1.008   -9.887104  -23.018244  -10.806399
 116 H     1.0000    0     1.008  -15.362718  -21.803018   -9.423497
 117 H     1.0000    0     1.008  -13.781678  -20.792109  -12.186315
 118 H     1.0000    0     1.008  -12.791159  -19.688849   -9.194255
 119 H     1.0000    0     1.008   -2.145746  -19.126466    1.118302
 120 H     1.0000    0     1.008   -0.940460  -31.555289    1.192285
 121 H     1.0000    0     1.008   -2.961768  -36.029311    0.201313
 122 H     1.0000    0     1.008  -14.665881  -37.705819    1.585253
 123 H     1.0000    0     1.008  -16.194348  -41.773284   -0.053952
 124 H     1.0000    0     1.008  -13.245601  -44.978052   -1.638317
 125 H     1.0000    0     1.008   -8.614902  -44.135404   -1.653057

--------------------------------
INTERNAL COORDINATES (ANGSTROEM)
--------------------------------
 C      0   0   0     0.000000000000     0.00000000     0.00000000
 O      1   0   0     1.209341062645     0.00000000     0.00000000
 C      1   2   0     1.477999770264   128.15327186     0.00000000
 C      3   1   2     1.381450866336   129.03884056     3.82385499
 C      4   3   1     1.387989268294   118.22946658   178.74543283
 C      5   4   3     1.387893385891   120.61609031   359.69960204
 C      6   5   4     1.388549430629   121.43314652     0.74432531
 C      7   6   5     1.385046839388   118.37202041   359.64918265
 C      8   7   6     1.460798680243   131.29109056   177.41285759
 C      9   8   7     1.369446368355   125.23417409   337.81341711
 C     10   9   8     1.411996322198   123.53423006   195.96821645
 N     11  10   9     1.147840465265   176.02223856   120.73791378
 C     10   9   8     1.408479890165   124.29446365    12.06762385
 N     13  10   9     1.148261374122   176.18968169   156.44698866
 C      9   8   7     1.449705591801   107.03304069   170.74776048
 C     15   9   8     1.359937423891   131.83753741   200.48690166
 C     16  15   9     1.415745563652   127.80933827    13.86032370
 C     17  16  15     1.382044691824   126.74428036   202.39889764
 C     18  17  16     1.391916862819   112.07019401   177.11679233
 C     19  18  17     1.406984721808   113.75959947     2.07601391
 S     20  19  18     1.718041362395   111.25572386     0.92074189
 C     20  19  18     1.389570418259   112.57135719   182.78600146
 C     22  20  19     1.513155391525   137.61822278   174.43431925
 C     23  22  20     1.506658614650   108.02698082   300.74293499
 C     24  23  22     1.360147464873   128.15518706    65.13620960
 C     25  24  23     1.412302384760   113.17205353   184.32541036
 C     26  25  24     1.357940332452   113.38676236     1.01215456
 C     27  26  25     1.489541578708   128.59286655   181.53913328
 C     28  27  26     1.529984948325   111.30646045   105.93867544
 S     24  23  22     1.734722438230   120.64267360   251.02964803
 C     23  22  20     1.503169501952   110.85151919    66.58330885
 C     31  23  22     1.360719661098   126.37873315    87.82171573
 C     32  31  23     1.412507664758   113.15964839   183.46254074
 C     33  32  31     1.358218327884   113.36398264     0.72928697
 C     34  33  32     1.489989165665   128.76067863   181.67451959
 C     35  34  33     1.530034093770   111.30593317   104.09639906
 S     31  23  22     1.732950455726   122.51956951   272.45896751
 C     23  22  20     1.518779058915   100.65450388   183.96162200
 C     38  23  22     1.413338284807   111.12508050     1.20836270
 C     22  20  19     1.384503801259   111.71350596   359.83571073
 S     40  22  20     1.728744139137   113.99349706   359.50472051
 C     39  38  23     1.392020946502   121.73509224   178.25308987
 C     42  39  38     1.374296469107   116.92891158   359.47950255
 C     43  42  39     1.520077775971   127.70020311   182.43390504
 C     44  43  42     1.502495694303   112.57231537   297.29887784
 C     45  44  43     1.358742383015   128.91713412   252.52345066
 C     46  45  44     1.413789440546   112.93043326   181.77608489
 C     47  46  45     1.357678673398   113.57255384   359.95131786
 C     48  47  46     1.489567579602   128.63610318   181.94551861
 C     49  48  47     1.530229123563   111.19837030   100.64572356
 S     45  44  43     1.735437051639   119.89358892    74.04442124
 C     44  43  42     1.503505370825   112.09830099    62.23825762
 C     52  44  43     1.359380586664   126.89299026   190.86602211
 C     53  52  44     1.412401296339   112.71616930   182.66685554
 C     54  53  52     1.358819754346   113.44676036     0.69061542
 C     55  54  53     1.489898285824   128.60470717   182.15735740
 C     56  55  54     1.529956924263   111.20517740   106.27360192
 S     52  44  43     1.731181940323   121.42604681    14.74382325
 C     44  43  42     1.503737589641   100.74890518   178.73169915
 C     59  44  43     1.383778825788   110.90278880     0.23464318
 C     43  42  39     1.414863972755   121.39218523     0.84946092
 C     38  23  22     1.375431362082   127.54341017   179.84569567
 S     60  59  44     1.729779549711   113.72658137   178.92794899
 C     63  60  59     1.741243344137    89.64300751   359.60637905
 C     59  44  43     1.388186199686   137.07837103   179.14183713
 S     65  59  44     1.717223467927   135.70781935   359.55549271
 C     66  65  59     1.762684559670    90.62896998   184.86699005
 C     67  66  65     1.383665732646   111.89532310   356.60476796
 C     67  66  65     1.414156240802   121.93869996   179.24969259
 C     69  67  66     1.360367196128   128.50860562   339.31609859
 C     70  69  67     1.448509009499   132.11840172   345.88386821
 C     71  70  69     1.369646699737   126.24421222   325.63878312
 C     72  71  70     1.408978553208   124.25895725   183.47872469
 N     73  72  71     1.147953132885   176.54480329   202.87311555
 C     72  71  70     1.411153948831   123.44966306   359.48730362
 N     75  72  71     1.148100805853   176.26034400   229.67723526
 C     71  70  69     1.461172190743   107.02121874   158.56847111
 C     77  71  70     1.385005242373   131.33287095   189.49664065
 C     78  77  71     1.388711774451   118.36714890   182.17553350
 C     79  78  77     1.387863096346   121.44901657     0.38167247
 C     80  79  78     1.388045759656   120.60714580   359.35852751
 C     81  80  79     1.381344681823   118.21662690     0.19684841
 C     82  81  80     1.477896442989   129.01429497   181.43950621
 O     83  82  81     1.209250758817   128.18254611   355.67107871
 H      4   3   1     1.079105951286   120.12333863   358.61716724
 H      5   4   3     1.079587210650   119.77993219   179.82863594
 H      6   5   4     1.079729264260   119.46128290   180.66513177
 H      7   6   5     1.078399005378   120.28202414   180.42879357
 H     16  15   9     1.085589451681   115.83712970   189.85526755
 H     18  17  16     1.074587174547   123.06376222     0.81106121
 H     25  24  23     1.074934091654   123.99809775     4.74408940
 H     26  25  24     1.075614153170   123.08068950   180.23608324
 H     28  27  26     1.091787420472   108.49976617   345.05074407
 H     28  27  26     1.092856889945   109.68792964   226.86245400
 H     29  28  27     1.087636596295   110.27410557   300.36705591
 H     29  28  27     1.087125755881   110.32828400   180.28378325
 H     29  28  27     1.087938653785   110.21785723    60.22305780
 H     32  31  23     1.075660214659   123.38392465     3.65796128
 H     33  32  31     1.075588933004   123.27650992   180.44733482
 H     35  34  33     1.092099035299   108.70749033   343.16830555
 H     35  34  33     1.092751945365   109.64849862   224.93421690
 H     36  35  34     1.087602212622   110.32275956   300.45437926
 H     36  35  34     1.087083671941   110.30207696   180.35159986
 H     36  35  34     1.087662428973   110.21359934    60.29842931
 H     42  39  38     1.079230698275   121.14655331   180.28400340
 H     46  45  44     1.075416880052   124.34666177     1.64359288
 H     47  46  45     1.075367311108   123.01787723   179.00804800
 H     49  48  47     1.091835131052   108.59725177   339.82922646
 H     49  48  47     1.092462761745   109.72962256   221.53640232
 H     50  49  48     1.087660256698   110.30466406   300.52590475
 H     50  49  48     1.087060392343   110.29306988   180.44159031
 H     50  49  48     1.087873217843   110.26187434    60.37626414
 H     53  52  44     1.076079497667   123.38357878     3.16496732
 H     54  53  52     1.075556829693   123.26007346   180.62576246
 H     56  55  54     1.092102590968   108.68207738   345.35861126
 H     56  55  54     1.092806112263   109.73902368   227.09506109
 H     57  56  55     1.087650126695   110.31491474   300.82861435
 H     57  56  55     1.087043667706   110.31780177   180.69251065
 H     57  56  55     1.087606584110   110.19912058    60.66281827
 H     62  38  23     1.078898648437   121.89000770     1.83108491
 H     68  67  66     1.074599167411   122.94213392   180.59668247
 H     69  67  66     1.085813569679   115.81375933   154.52943326
 H     78  77  71     1.078434437182   121.34885575     2.97372020
 H     79  78  77     1.079727585042   119.09494605   180.32487872
 H     80  79  78     1.079581737619   119.61401763   179.50730228
 H     81  80  79     1.079120793331   121.66104834   180.18528177

---------------------------
INTERNAL COORDINATES (A.U.)
---------------------------
 C      0   0   0     0.000000000000     0.00000000     0.00000000
 O      1   0   0     2.285323410905     0.00000000     0.00000000
 C      1   2   0     2.793014791797   128.15327186     0.00000000
 C      3   1   2     2.610563804843   129.03884056     3.82385499
 C      4   3   1     2.622919593898   118.22946658   178.74543283
 C      5   4   3     2.622738402415   120.61609031   359.69960204
 C      6   5   4     2.623978147301   121.43314652     0.74432531
 C      7   6   5     2.617359209097   118.37202041   359.64918265
 C      8   7   6     2.760509442453   131.29109056   177.41285759
 C      9   8   7     2.587878591284   125.23417409   337.81341711
 C     10   9   8     2.668286351058   123.53423006   195.96821645
 N     11  10   9     2.169104124784   176.02223856   120.73791378
 C     10   9   8     2.661641257548   124.29446365    12.06762385
 N     13  10   9     2.169899527250   176.18968169   156.44698866
 C      9   8   7     2.739546543319   107.03304069   170.74776048
 C     15   9   8     2.569909290425   131.83753741   200.48690166
 C     16  15   9     2.675371390616   127.80933827    13.86032370
 C     17  16  15     2.611685972388   126.74428036   202.39889764
 C     18  17  16     2.630341671915   112.07019401   177.11679233
 C     19  18  17     2.658815798828   113.75959947     2.07601391
 S     20  19  18     3.246627661675   111.25572386     0.92074189
 C     20  19  18     2.625907534308   112.57135719   182.78600146
 C     22  20  19     2.859449288048   137.61822278   174.43431925
 C     23  22  20     2.847172159002   108.02698082   300.74293499
 C     24  23  22     2.570306210357   128.15518706    65.13620960
 C     25  24  23     2.668864725481   113.17205353   184.32541036
 C     26  25  24     2.566135334540   113.38676236     1.01215456
 C     27  26  25     2.814825648847   128.59286655   181.53913328
 C     28  27  26     2.891252541355   111.30646045   105.93867544
 S     24  23  22     3.278150326624   120.64267360   251.02964803
 C     23  22  20     2.840578691553   110.85151919    66.58330885
 C     31  23  22     2.571387504518   126.37873315    87.82171573
 C     32  31  23     2.669252648457   113.15964839   183.46254074
 C     33  32  31     2.566660669773   113.36398264     0.72928697
 C     34  33  32     2.815671465617   128.76067863   181.67451959
 C     35  34  33     2.891345412789   111.30593317   104.09639906
 S     31  23  22     3.274801764976   122.51956951   272.45896751
 C     23  22  20     2.870076479285   100.65450388   183.96162200
 C     38  23  22     2.670822292870   111.12508050     1.20836270
 C     22  20  19     2.616333015752   111.71350596   359.83571073
 S     40  22  20     3.266852978590   113.99349706   359.50472051
 C     39  38  23     2.630538361570   121.73509224   178.25308987
 C     42  39  38     2.597043953427   116.92891158   359.47950255
 C     43  42  39     2.872530698845   127.70020311   182.43390504
 C     44  43  42     2.839305379629   112.57231537   297.29887784
 C     45  44  43     2.567650990449   128.91713412   252.52345066
 C     46  45  44     2.671674853662   112.93043326   181.77608489
 C     47  46  45     2.565640870588   113.57255384   359.95131786
 C     48  47  46     2.814874783415   128.63610318   181.94551861
 C     49  48  47     2.891713965684   111.19837030   100.64572356
 S     45  44  43     3.279500750257   119.89358892    74.04442124
 C     44  43  42     2.841213391739   112.09830099    62.23825762
 C     52  44  43     2.568857020565   126.89299026   190.86602211
 C     53  52  44     2.669051641276   112.71616930   182.66685554
 C     54  53  52     2.567797201075   113.44676036     0.69061542
 C     55  54  53     2.815499727605   128.60470717   182.15735740
 C     56  55  54     2.891199583553   111.20517740   106.27360192
 S     52  44  43     3.271459755201   121.42604681    14.74382325
 C     44  43  42     2.841652221705   100.74890518   178.73169915
 C     59  44  43     2.614963010659   110.90278880     0.23464318
 C     43  42  39     2.673705425259   121.39218523     0.84946092
 C     38  23  22     2.599188590342   127.54341017   179.84569567
 S     60  59  44     3.268809621012   113.72658137   178.92794899
 C     63  60  59     3.290473052931    89.64300751   359.60637905
 C     59  44  43     2.623291740296   137.07837103   179.14183713
 S     65  59  44     3.245082065125   135.70781935   359.55549271
 C     66  65  59     3.330991078268    90.62896998   184.86699005
 C     67  66  65     2.614749295593   111.89532310   356.60476796
 C     67  66  65     2.672368005692   121.93869996   179.24969259
 C     69  67  66     2.570721442251   128.50860562   339.31609859
 C     70  69  67     2.737285330471   132.11840172   345.88386821
 C     71  70  69     2.588257162732   126.24421222   325.63878312
 C     72  71  70     2.662583594132   124.25895725   183.47872469
 N     73  72  71     2.169317035729   176.54480329   202.87311555
 C     72  71  70     2.666694496091   123.44966306   359.48730362
 N     75  72  71     2.169596097196   176.26034400   229.67723526
 C     71  70  69     2.761215275006   107.02121874   158.56847111
 C     77  71  70     2.617280602130   131.33287095   189.49664065
 C     78  77  71     2.624284932665   118.36714890   182.17553350
 C     79  78  77     2.622681163471   121.44901657     0.38167247
 C     80  79  78     2.623026347101   120.60714580   359.35852751
 C     81  80  79     2.610363145194   118.21662690     0.19684841
 C     82  81  80     2.792819531546   129.01429497   181.43950621
 O     83  82  81     2.285152761401   128.18254611   355.67107871
 H      4   3   1     2.039214717414   120.12333863   358.61716724
 H      5   4   3     2.040124165813   119.77993219   179.82863594
 H      6   5   4     2.040392608232   119.46128290   180.66513177
 H      7   6   5     2.037878783257   120.28202414   180.42879357
 H     16  15   9     2.051466757550   115.83712970   189.85526755
 H     18  17  16     2.030675466917   123.06376222     0.81106121
 H     25  24  23     2.031331045241   123.99809775     4.74408940
 H     26  25  24     2.032616175261   123.08068950   180.23608324
 H     28  27  26     2.063179221152   108.49976617   345.05074407
 H     28  27  26     2.065200225565   109.68792964   226.86245400
 H     29  28  27     2.055335300228   110.27410557   300.36705591
 H     29  28  27     2.054369951747   110.32828400   180.28378325
 H     29  28  27     2.055906106161   110.21785723    60.22305780
 H     32  31  23     2.032703218860   123.38392465     3.65796128
 H     33  32  31     2.032568516054   123.27650992   180.44733482
 H     35  34  33     2.063768087834   108.70749033   343.16830555
 H     35  34  33     2.065001909050   109.64849862   224.93421690
 H     36  35  34     2.055270324502   110.32275956   300.45437926
 H     36  35  34     2.054290424625   110.30207696   180.35159986
 H     36  35  34     2.055384116915   110.21359934    60.29842931
 H     42  39  38     2.039450455061   121.14655331   180.28400340
 H     46  45  44     2.032243383094   124.34666177     1.64359288
 H     47  46  45     2.032149711366   123.01787723   179.00804800
 H     49  48  47     2.063269381083   108.59725177   339.82922646
 H     49  48  47     2.064455431206   109.72962256   221.53640232
 H     50  49  48     2.055380011909   110.30466406   300.52590475
 H     50  49  48     2.054246432560   110.29306988   180.44159031
 H     50  49  48     2.055782450151   110.26187434    60.37626414
 H     53  52  44     2.033495548919   123.38357878     3.16496732
 H     54  53  52     2.032507849589   123.26007346   180.62576246
 H     56  55  54     2.063774807076   108.68207738   345.35861126
 H     56  55  54     2.065104269653   109.73902368   227.09506109
 H     57  56  55     2.055360868979   110.31491474   300.82861435
 H     57  56  55     2.054214827578   110.31780177   180.69251065
 H     57  56  55     2.055278585418   110.19912058    60.66281827
 H     62  38  23     2.038822971804   121.89000770     1.83108491
 H     68  67  66     2.030698130146   122.94213392   180.59668247
 H     69  67  66     2.051890279190   115.81375933   154.52943326
 H     78  77  71     2.037945739663   121.34885575     2.97372020
 H     79  78  77     2.040389434969   119.09494605   180.32487872
 H     80  79  78     2.040113823282   119.61401763   179.50730228
 H     81  80  79     2.039242764816   121.66104834   180.18528177

---------------------
BASIS SET INFORMATION
---------------------
There are 5 groups of distinct atoms

 Group   1 Type C   : 11s6p2d1f contracted to 5s3p2d1f pattern {62111/411/11/1}
 Group   2 Type O   : 11s6p2d1f contracted to 5s3p2d1f pattern {62111/411/11/1}
 Group   3 Type N   : 11s6p2d1f contracted to 5s3p2d1f pattern {62111/411/11/1}
 Group   4 Type S   : 14s9p3d1f contracted to 5s5p2d1f pattern {73211/51111/21/1}
 Group   5 Type H   : 5s1p contracted to 3s1p pattern {311/1}

Atom   0C    basis set group =>   1
Atom   1O    basis set group =>   2
Atom   2C    basis set group =>   1
Atom   3C    basis set group =>   1
Atom   4C    basis set group =>   1
Atom   5C    basis set group =>   1
Atom   6C    basis set group =>   1
Atom   7C    basis set group =>   1
Atom   8C    basis set group =>   1
Atom   9C    basis set group =>   1
Atom  10C    basis set group =>   1
Atom  11N    basis set group =>   3
Atom  12C    basis set group =>   1
Atom  13N    basis set group =>   3
Atom  14C    basis set group =>   1
Atom  15C    basis set group =>   1
Atom  16C    basis set group =>   1
Atom  17C    basis set group =>   1
Atom  18C    basis set group =>   1
Atom  19C    basis set group =>   1
Atom  20S    basis set group =>   4
Atom  21C    basis set group =>   1
Atom  22C    basis set group =>   1
Atom  23C    basis set group =>   1
Atom  24C    basis set group =>   1
Atom  25C    basis set group =>   1
Atom  26C    basis set group =>   1
Atom  27C    basis set group =>   1
Atom  28C    basis set group =>   1
Atom  29S    basis set group =>   4
Atom  30C    basis set group =>   1
Atom  31C    basis set group =>   1
Atom  32C    basis set group =>   1
Atom  33C    basis set group =>   1
Atom  34C    basis set group =>   1
Atom  35C    basis set group =>   1
Atom  36S    basis set group =>   4
Atom  37C    basis set group =>   1
Atom  38C    basis set group =>   1
Atom  39C    basis set group =>   1
Atom  40S    basis set group =>   4
Atom  41C    basis set group =>   1
Atom  42C    basis set group =>   1
Atom  43C    basis set group =>   1
Atom  44C    basis set group =>   1
Atom  45C    basis set group =>   1
Atom  46C    basis set group =>   1
Atom  47C    basis set group =>   1
Atom  48C    basis set group =>   1
Atom  49C    basis set group =>   1
Atom  50S    basis set group =>   4
Atom  51C    basis set group =>   1
Atom  52C    basis set group =>   1
Atom  53C    basis set group =>   1
Atom  54C    basis set group =>   1
Atom  55C    basis set group =>   1
Atom  56C    basis set group =>   1
Atom  57S    basis set group =>   4
Atom  58C    basis set group =>   1
Atom  59C    basis set group =>   1
Atom  60C    basis set group =>   1
Atom  61C    basis set group =>   1
Atom  62S    basis set group =>   4
Atom  63C    basis set group =>   1
Atom  64C    basis set group =>   1
Atom  65S    basis set group =>   4
Atom  66C    basis set group =>   1
Atom  67C    basis set group =>   1
Atom  68C    basis set group =>   1
Atom  69C    basis set group =>   1
Atom  70C    basis set group =>   1
Atom  71C    basis set group =>   1
Atom  72C    basis set group =>   1
Atom  73N    basis set group =>   3
Atom  74C    basis set group =>   1
Atom  75N    basis set group =>   3
Atom  76C    basis set group =>   1
Atom  77C    basis set group =>   1
Atom  78C    basis set group =>   1
Atom  79C    basis set group =>   1
Atom  80C    basis set group =>   1
Atom  81C    basis set group =>   1
Atom  82C    basis set group =>   1
Atom  83O    basis set group =>   2
Atom  84H    basis set group =>   5
Atom  85H    basis set group =>   5
Atom  86H    basis set group =>   5
Atom  87H    basis set group =>   5
Atom  88H    basis set group =>   5
Atom  89H    basis set group =>   5
Atom  90H    basis set group =>   5
Atom  91H    basis set group =>   5
Atom  92H    basis set group =>   5
Atom  93H    basis set group =>   5
Atom  94H    basis set group =>   5
Atom  95H    basis set group =>   5
Atom  96H    basis set group =>   5
Atom  97H    basis set group =>   5
Atom  98H    basis set group =>   5
Atom  99H    basis set group =>   5
Atom 100H    basis set group =>   5
Atom 101H    basis set group =>   5
Atom 102H    basis set group =>   5
Atom 103H    basis set group =>   5
Atom 104H    basis set group =>   5
Atom 105H    basis set group =>   5
Atom 106H    basis set group =>   5
Atom 107H    basis set group =>   5
Atom 108H    basis set group =>   5
Atom 109H    basis set group =>   5
Atom 110H    basis set group =>   5
Atom 111H    basis set group =>   5
Atom 112H    basis set group =>   5
Atom 113H    basis set group =>   5
Atom 114H    basis set group =>   5
Atom 115H    basis set group =>   5
Atom 116H    basis set group =>   5
Atom 117H    basis set group =>   5
Atom 118H    basis set group =>   5
Atom 119H    basis set group =>   5
Atom 120H    basis set group =>   5
Atom 121H    basis set group =>   5
Atom 122H    basis set group =>   5
Atom 123H    basis set group =>   5
Atom 124H    basis set group =>   5
Atom 125H    basis set group =>   5
---------------------------------
AUXILIARY/J BASIS SET INFORMATION
---------------------------------
There are 5 groups of distinct atoms

 Group   1 Type C   : 12s5p4d2f1g contracted to 6s4p3d1f1g pattern {711111/2111/211/2/1}
 Group   2 Type O   : 12s5p4d2f1g contracted to 6s4p3d1f1g pattern {711111/2111/211/2/1}
 Group   3 Type N   : 12s5p4d2f1g contracted to 6s4p3d1f1g pattern {711111/2111/211/2/1}
 Group   4 Type S   : 14s5p5d2f1g contracted to 8s4p3d1f1g pattern {71111111/2111/311/2/1}
 Group   5 Type H   : 5s2p1d contracted to 3s1p1d pattern {311/2/1}

Atom   0C    basis set group =>   1
Atom   1O    basis set group =>   2
Atom   2C    basis set group =>   1
Atom   3C    basis set group =>   1
Atom   4C    basis set group =>   1
Atom   5C    basis set group =>   1
Atom   6C    basis set group =>   1
Atom   7C    basis set group =>   1
Atom   8C    basis set group =>   1
Atom   9C    basis set group =>   1
Atom  10C    basis set group =>   1
Atom  11N    basis set group =>   3
Atom  12C    basis set group =>   1
Atom  13N    basis set group =>   3
Atom  14C    basis set group =>   1
Atom  15C    basis set group =>   1
Atom  16C    basis set group =>   1
Atom  17C    basis set group =>   1
Atom  18C    basis set group =>   1
Atom  19C    basis set group =>   1
Atom  20S    basis set group =>   4
Atom  21C    basis set group =>   1
Atom  22C    basis set group =>   1
Atom  23C    basis set group =>   1
Atom  24C    basis set group =>   1
Atom  25C    basis set group =>   1
Atom  26C    basis set group =>   1
Atom  27C    basis set group =>   1
Atom  28C    basis set group =>   1
Atom  29S    basis set group =>   4
Atom  30C    basis set group =>   1
Atom  31C    basis set group =>   1
Atom  32C    basis set group =>   1
Atom  33C    basis set group =>   1
Atom  34C    basis set group =>   1
Atom  35C    basis set group =>   1
Atom  36S    basis set group =>   4
Atom  37C    basis set group =>   1
Atom  38C    basis set group =>   1
Atom  39C    basis set group =>   1
Atom  40S    basis set group =>   4
Atom  41C    basis set group =>   1
Atom  42C    basis set group =>   1
Atom  43C    basis set group =>   1
Atom  44C    basis set group =>   1
Atom  45C    basis set group =>   1
Atom  46C    basis set group =>   1
Atom  47C    basis set group =>   1
Atom  48C    basis set group =>   1
Atom  49C    basis set group =>   1
Atom  50S    basis set group =>   4
Atom  51C    basis set group =>   1
Atom  52C    basis set group =>   1
Atom  53C    basis set group =>   1
Atom  54C    basis set group =>   1
Atom  55C    basis set group =>   1
Atom  56C    basis set group =>   1
Atom  57S    basis set group =>   4
Atom  58C    basis set group =>   1
Atom  59C    basis set group =>   1
Atom  60C    basis set group =>   1
Atom  61C    basis set group =>   1
Atom  62S    basis set group =>   4
Atom  63C    basis set group =>   1
Atom  64C    basis set group =>   1
Atom  65S    basis set group =>   4
Atom  66C    basis set group =>   1
Atom  67C    basis set group =>   1
Atom  68C    basis set group =>   1
Atom  69C    basis set group =>   1
Atom  70C    basis set group =>   1
Atom  71C    basis set group =>   1
Atom  72C    basis set group =>   1
Atom  73N    basis set group =>   3
Atom  74C    basis set group =>   1
Atom  75N    basis set group =>   3
Atom  76C    basis set group =>   1
Atom  77C    basis set group =>   1
Atom  78C    basis set group =>   1
Atom  79C    basis set group =>   1
Atom  80C    basis set group =>   1
Atom  81C    basis set group =>   1
Atom  82C    basis set group =>   1
Atom  83O    basis set group =>   2
Atom  84H    basis set group =>   5
Atom  85H    basis set group =>   5
Atom  86H    basis set group =>   5
Atom  87H    basis set group =>   5
Atom  88H    basis set group =>   5
Atom  89H    basis set group =>   5
Atom  90H    basis set group =>   5
Atom  91H    basis set group =>   5
Atom  92H    basis set group =>   5
Atom  93H    basis set group =>   5
Atom  94H    basis set group =>   5
Atom  95H    basis set group =>   5
Atom  96H    basis set group =>   5
Atom  97H    basis set group =>   5
Atom  98H    basis set group =>   5
Atom  99H    basis set group =>   5
Atom 100H    basis set group =>   5
Atom 101H    basis set group =>   5
Atom 102H    basis set group =>   5
Atom 103H    basis set group =>   5
Atom 104H    basis set group =>   5
Atom 105H    basis set group =>   5
Atom 106H    basis set group =>   5
Atom 107H    basis set group =>   5
Atom 108H    basis set group =>   5
Atom 109H    basis set group =>   5
Atom 110H    basis set group =>   5
Atom 111H    basis set group =>   5
Atom 112H    basis set group =>   5
Atom 113H    basis set group =>   5
Atom 114H    basis set group =>   5
Atom 115H    basis set group =>   5
Atom 116H    basis set group =>   5
Atom 117H    basis set group =>   5
Atom 118H    basis set group =>   5
Atom 119H    basis set group =>   5
Atom 120H    basis set group =>   5
Atom 121H    basis set group =>   5
Atom 122H    basis set group =>   5
Atom 123H    basis set group =>   5
Atom 124H    basis set group =>   5
Atom 125H    basis set group =>   5
------------------------------------------------------------------------------
                           ORCA GTO INTEGRAL CALCULATION
                           -- RI-GTO INTEGRALS CHOSEN --
------------------------------------------------------------------------------

                         BASIS SET STATISTICS AND STARTUP INFO

Gaussian basis set:
 # of primitive gaussian shells          ... 1988
 # of primitive gaussian functions       ... 4336
 # of contracted shells                  ... 1108
 # of contracted basis functions         ... 2904
 Highest angular momentum                ...    3
 Maximum contraction depth               ...    7
Auxiliary gaussian basis set:
 # of primitive gaussian shells          ... 2376
 # of primitive gaussian functions       ... 6608
 # of contracted shells                  ... 1486
 # of contracted aux-basis functions     ... 4594
 Highest angular momentum                ...    4
 Maximum contraction depth               ...    7
Ratio of auxiliary to basis functions    ...  1.58
Integral package used                  ... LIBINT
 One Electron integrals                  ... done
 Ordering auxiliary basis shells         ... done
 Integral threshhold             Thresh  ...  2.500e-11
 Primitive cut-off               TCut    ...  2.500e-12
 Pre-screening matrix                    ... done
 Shell pair data                         ... 
 Ordering of the shell pairs             ... done (   0.049 sec) 207494 of 614386 pairs
 Determination of significant pairs      ... done (   0.002 sec)
 Creation of shell pair data             ... done (   0.024 sec)
 Storage of shell pair data              ... done (   0.035 sec)
 Shell pair data done in (   0.111 sec)
 Computing two index integrals           ... done
 Cholesky decomposition of the V-matrix  ... done


Timings:
 Total evaluation time                   ...  10.043 sec (  0.167 min)
 One electron matrix time                ...   3.613 sec (  0.060 min) = 36.0%
 Schwartz matrix evaluation time         ...   4.971 sec (  0.083 min) = 49.5%
 Two index repulsion integral time       ...   0.539 sec (  0.009 min) =  5.4%
 Cholesky decomposition of V             ...   0.790 sec (  0.013 min) =  7.9%
 Three index repulsion integral time     ...   0.000 sec (  0.000 min) =  0.0%

-------------------------------------------------------------------------------
                                 ORCA SCF
-------------------------------------------------------------------------------

------------
SCF SETTINGS
------------
Hamiltonian:
 Density Functional     Method          .... DFT(GTOs)
 Exchange Functional    Exchange        .... B88
   X-Alpha parameter    XAlpha          ....  0.666667
   Becke's b parameter  XBeta           ....  0.004200
 Correlation Functional Correlation     .... LYP
 LDA part of GGA corr.  LDAOpt          .... VWN-5
 Gradients option       PostSCFGGA      .... off
 Hybrid DFT is turned on
   Fraction HF Exchange ScalHFX         ....  0.200000
   Scaling of DF-GGA-X  ScalDFX         ....  0.720000
   Scaling of DF-GGA-C  ScalDFC         ....  0.810000
   Scaling of DF-LDA-C  ScalLDAC        ....  1.000000
   Perturbative correction              ....  0.000000
   Density functional embedding theory  .... OFF
   NL short-range parameter             ....  4.800000
 RI-approximation to the Coulomb term is turned on
   Number of auxiliary basis functions  .... 4594
   RIJ-COSX (HFX calculated with COS-X)).... on


General Settings:
 Integral files         IntName         .... ITIC-Th
 Hartree-Fock type      HFTyp           .... RHF
 Total Charge           Charge          ....    0
 Multiplicity           Mult            ....    1
 Number of Electrons    NEL             ....  634
 Basis Dimension        Dim             .... 2904
 Nuclear Repulsion      ENuc            ....  16071.6652526036 Eh

Convergence Acceleration:
 DIIS                   CNVDIIS         .... on
   Start iteration      DIISMaxIt       ....    12
   Startup error        DIISStart       ....  0.200000
   # of expansion vecs  DIISMaxEq       ....     5
   Bias factor          DIISBfac        ....   1.050
   Max. coefficient     DIISMaxC        ....  10.000
 Newton-Raphson         CNVNR           .... off
 SOSCF                  CNVSOSCF        .... on
   Start iteration      SOSCFMaxIt      ....   150
   Startup grad/error   SOSCFStart      ....  0.003300
 Level Shifting         CNVShift        .... on
   Level shift para.    LevelShift      ....    0.2500
   Turn off err/grad.   ShiftErr        ....    0.0010
 Zerner damping         CNVZerner       .... off
 Static damping         CNVDamp         .... on
   Fraction old density DampFac         ....    0.7000
   Max. Damping (<1)    DampMax         ....    0.9800
   Min. Damping (>=0)   DampMin         ....    0.0000
   Turn off err/grad.   DampErr         ....    0.1000
 Fernandez-Rico         CNVRico         .... off

SCF Procedure:
 Maximum # iterations   MaxIter         ....   125
 SCF integral mode      SCFMode         .... Direct
   Integral package                     .... LIBINT
 Reset frequency        DirectResetFreq ....    20
 Integral Threshold     Thresh          ....  2.500e-11 Eh
 Primitive CutOff       TCut            ....  2.500e-12 Eh

Convergence Tolerance:
 Convergence Check Mode ConvCheckMode   .... Total+1el-Energy
 Convergence forced     ConvForced      .... 1
 Energy Change          TolE            ....  1.000e-08 Eh
 1-El. energy change                    ....  1.000e-05 Eh
 Orbital Gradient       TolG            ....  1.000e-05
 Orbital Rotation angle TolX            ....  1.000e-05
 DIIS Error             TolErr          ....  5.000e-07


Diagonalization of the overlap matrix:
Smallest eigenvalue                        ... 2.039e-06
Time for diagonalization                   ...    5.640 sec
Threshold for overlap eigenvalues          ... 1.000e-08
Number of eigenvalues below threshold      ... 0
Time for construction of square roots      ...    1.665 sec
Total time needed                          ...    7.327 sec

-------------------
DFT GRID GENERATION
-------------------

General Integration Accuracy     IntAcc      ...  4.670
Radial Grid Type                 RadialGrid  ... Gauss-Chebyshev
Angular Grid (max. acc.)         AngularGrid ... Lebedev-302
Angular grid pruning method      GridPruning ... 3 (G Style)
Weight generation scheme         WeightScheme... Becke
Basis function cutoff            BFCut       ...    1.0000e-11
Integration weight cutoff        WCut        ...    1.0000e-14
Grids for H and He will be reduced by one unit

# of grid points (after initial pruning)     ... 669428 (   2.0 sec)
# of grid points (after weights+screening)   ... 562272 (  40.8 sec)
nearest neighbour list constructed           ...    0.0 sec
Grid point re-assignment to atoms done       ...    0.1 sec
Grid point division into batches done        ...    1.9 sec
Reduced shell lists constructed in   23.1 sec

Total number of grid points                  ...   562272
Total number of batches                      ...     8850
Average number of points per batch           ...       63
Average number of grid points per atom       ...     4462
Average number of shells per batch           ...   188.81 (17.04%)
Average number of basis functions per batch  ...   468.58 (16.14%)
Average number of large shells per batch     ...   105.11 (55.67%)
Average number of large basis fcns per batch ...   269.43 (57.50%)
Maximum spatial batch extension              ...  21.01, 21.02, 25.89 au
Average spatial batch extension              ...   2.06,  2.03,  2.15 au

Time for grid setup =   65.944 sec

------------------------------
INITIAL GUESS: MODEL POTENTIAL
------------------------------
Loading Hartree-Fock densities                     ... done
Calculating cut-offs                               ... done
Setting up the integral package                    ... done
Initializing the effective Hamiltonian             ... done
Starting the Coulomb interaction                   ... done (  48.6 sec)
Reading the grid                                   ... done
Mapping shells                                     ... done
Starting the XC term evaluation                    ... done (  38.5 sec)
  promolecular density results
     # of electrons  =    633.978116341
     EX              =   -615.704220813
     EC              =    -22.619645386
     EX+EC           =   -638.323866199
Transforming the Hamiltonian                       ... done (   1.6 sec)
Diagonalizing the Hamiltonian                      ... done (   5.0 sec)
Back transforming the eigenvectors                 ... done (   0.7 sec)
Now organizing SCF variables                       ... done
                      ------------------
                      INITIAL GUESS DONE ( 161.4 sec)
                      ------------------
--------------------
COSX GRID GENERATION
--------------------

General Integration Accuracy     IntAcc      ...  3.340
Radial Grid Type                 RadialGrid  ... Gauss-Chebyshev
Angular Grid (max. acc.)         AngularGrid ... Lebedev-50
Angular grid pruning method      GridPruning ... 3 (G Style)
Weight generation scheme         WeightScheme... Becke
Basis function cutoff            BFCut       ...    1.0000e-11
Integration weight cutoff        WCut        ...    1.0000e-14
Grids for H and He will be reduced by one unit

# of grid points (after initial pruning)     ...  63112 (   0.1 sec)
# of grid points (after weights+screening)   ...  55784 (   3.8 sec)
nearest neighbour list constructed           ...    0.0 sec
Grid point re-assignment to atoms done       ...    0.0 sec
Grid point division into batches done        ...    0.0 sec
Reduced shell lists constructed in    3.5 sec

Total number of grid points                  ...    55784
Total number of batches                      ...      944
Average number of points per batch           ...       59
Average number of grid points per atom       ...      443
Average number of shells per batch           ...   232.82 (21.01%)
Average number of basis functions per batch  ...   584.11 (20.11%)
Average number of large shells per batch     ...   129.94 (55.81%)
Average number of large basis fcns per batch ...   337.29 (57.74%)
Maximum spatial batch extension              ...  20.09, 18.29, 21.68 au
Average spatial batch extension              ...   4.16,  4.04,  4.69 au

Overlap Fitting                  UseSFitting ... on
Constructing numerical overlap ... done (      3.5 sec)
Inverting numerical overlap    ... done (      0.6 sec)
Obtaining analytic overlap     ... done (      0.0 sec)
Final contraction and storage  ... done (      0.8 sec)


General Integration Accuracy     IntAcc      ...  3.670
Radial Grid Type                 RadialGrid  ... Gauss-Chebyshev
Angular Grid (max. acc.)         AngularGrid ... Lebedev-50
Angular grid pruning method      GridPruning ... 3 (G Style)
Weight generation scheme         WeightScheme... Becke
Basis function cutoff            BFCut       ...    1.0000e-11
Integration weight cutoff        WCut        ...    1.0000e-14
Grids for H and He will be reduced by one unit

# of grid points (after initial pruning)     ...  78976 (   0.1 sec)
# of grid points (after weights+screening)   ...  69500 (   4.8 sec)
nearest neighbour list constructed           ...    0.0 sec
Grid point re-assignment to atoms done       ...    0.0 sec
Grid point division into batches done        ...    0.0 sec
Reduced shell lists constructed in    4.6 sec

Total number of grid points                  ...    69500
Total number of batches                      ...     1141
Average number of points per batch           ...       60
Average number of grid points per atom       ...      552
Average number of shells per batch           ...   226.92 (20.48%)
Average number of basis functions per batch  ...   568.18 (19.57%)
Average number of large shells per batch     ...   125.93 (55.49%)
Average number of large basis fcns per batch ...   326.46 (57.46%)
Maximum spatial batch extension              ...  22.04, 20.23, 30.06 au
Average spatial batch extension              ...   3.86,  3.80,  4.36 au

Overlap Fitting                  UseSFitting ... on
Constructing numerical overlap ... done (      4.0 sec)
Inverting numerical overlap    ... done (      0.5 sec)
Obtaining analytic overlap     ... done (      0.0 sec)
Final contraction and storage  ... done (      0.8 sec)


General Integration Accuracy     IntAcc      ...  4.010
Radial Grid Type                 RadialGrid  ... Gauss-Chebyshev
Angular Grid (max. acc.)         AngularGrid ... Lebedev-110
Angular grid pruning method      GridPruning ... 3 (G Style)
Weight generation scheme         WeightScheme... Becke
Basis function cutoff            BFCut       ...    1.0000e-11
Integration weight cutoff        WCut        ...    1.0000e-14
Grids for H and He will be reduced by one unit

# of grid points (after initial pruning)     ... 152588 (   0.3 sec)
# of grid points (after weights+screening)   ... 132490 (   9.3 sec)
nearest neighbour list constructed           ...    0.0 sec
Grid point re-assignment to atoms done       ...    0.0 sec
Grid point division into batches done        ...    0.1 sec
Reduced shell lists constructed in    7.4 sec

Total number of grid points                  ...   132490
Total number of batches                      ...     2132
Average number of points per batch           ...       62
Average number of grid points per atom       ...     1052
Average number of shells per batch           ...   215.61 (19.46%)
Average number of basis functions per batch  ...   539.36 (18.57%)
Average number of large shells per batch     ...   120.74 (56.00%)
Average number of large basis fcns per batch ...   312.44 (57.93%)
Maximum spatial batch extension              ...  23.65, 19.54, 24.23 au
Average spatial batch extension              ...   3.26,  3.22,  3.56 au

Overlap Fitting                  UseSFitting ... on
Constructing numerical overlap ... done (      6.7 sec)
Inverting numerical overlap    ... done (      0.5 sec)
Obtaining analytic overlap     ... done (      0.0 sec)
Final contraction and storage  ... done (      0.8 sec)

Time for X-Grid setup             =   52.334 sec
--------------
SCF ITERATIONS
--------------
ITER       Energy         Delta-E        Max-DP      RMS-DP      [F,P]     Damp
               ***  Starting incremental Fock matrix formation  ***
  0  -6244.1605664451   0.000000000000 0.29666721  0.00083046  0.2887150 0.7000
  1  -6245.3004199878  -1.139853542691 0.18231152  0.00065616  0.1049284 0.7000
                               ***Turning on DIIS***
  2  -6245.6950420618  -0.394622073960 0.20539496  0.00096663  0.0454873 0.0000
  3  -6246.3548973395  -0.659855277730 0.25858778  0.00062067  0.0587336 0.0000
  4  -6246.5003250268  -0.145427687286 0.05570157  0.00021537  0.0359788 0.0000
  5  -6246.5184341966  -0.018109169832 0.02509435  0.00009957  0.0103544 0.0000
                      *** Initiating the SOSCF procedure ***
                           *** Shutting down DIIS ***
                      *** Re-Reading the Fockian *** 
                      *** Removing any level shift *** 
ITER      Energy       Delta-E        Grad      Rot      Max-DP    RMS-DP
  6  -6246.51971482  -0.0012806235  0.000835  0.000835  0.013874  0.000031
               *** Restarting incremental Fock matrix formation ***
  7  -6246.51986915  -0.0001543300  0.000658  0.008044  0.028559  0.000075
  8  -6246.51986182   0.0000073274  0.000439  0.002508  0.010058  0.000028
  9  -6246.51990577  -0.0000439454  0.000137  0.001720  0.011030  0.000029
 10  -6246.51990438   0.0000013874  0.000128  0.000467  0.001032  0.000004
 11  -6246.51991047  -0.0000060870  0.000130  0.001566  0.005431  0.000010
 12  -6246.51990816   0.0000023062  0.000185  0.000745  0.001682  0.000003
 13  -6246.51991141  -0.0000032471  0.000016  0.000203  0.001648  0.000003
 14  -6246.51991128   0.0000001266  0.000031  0.000081  0.000371  0.000001
 15  -6246.51991153  -0.0000002528  0.000006  0.000069  0.001530  0.000002
 16  -6246.51991140   0.0000001343  0.000010  0.000032  0.000623  0.000001
                  ***Gradient check signals convergence***
              ***Rediagonalizing the Fockian in SOSCF/NRSCF***

               *****************************************************
               *                     SUCCESS                       *
               *           SCF CONVERGED AFTER  17 CYCLES          *
               *****************************************************

Setting up the final grid:

General Integration Accuracy     IntAcc      ...  5.010
Radial Grid Type                 RadialGrid  ... Gauss-Chebyshev
Angular Grid (max. acc.)         AngularGrid ... Lebedev-434
Angular grid pruning method      GridPruning ... 3 (G Style)
Weight generation scheme         WeightScheme... Becke
Basis function cutoff            BFCut       ...    1.0000e-11
Integration weight cutoff        WCut        ...    1.0000e-14
Grids for H and He will be reduced by one unit

# of grid points (after initial pruning)     ... 1187888 (   2.6 sec)
# of grid points (after weights+screening)   ... 994940 (  72.5 sec)
nearest neighbour list constructed           ...    0.0 sec
Grid point re-assignment to atoms done       ...    0.1 sec
Grid point division into batches done        ...    6.4 sec
Reduced shell lists constructed in   43.7 sec

Total number of grid points                  ...   994940
Total number of batches                      ...    15610
Average number of points per batch           ...       63
Average number of grid points per atom       ...     7896
Average number of shells per batch           ...   180.76 (16.31%)
Average number of basis functions per batch  ...   446.96 (15.39%)
Average number of large shells per batch     ...   100.47 (55.58%)
Average number of large basis fcns per batch ...   256.92 (57.48%)
Maximum spatial batch extension              ...  23.16, 19.45, 23.34 au
Average spatial batch extension              ...   1.68,  1.66,  1.75 au

Final grid set up in  118.9 sec
Final integration                            ... done (  85.7 sec)
Change in XC energy                          ...    -0.000231513
Integrated number of electrons               ...   634.000147842
Previous integrated no of electrons          ...   633.999324347
Old exchange energy                            =   -124.357329667 Eh
New exchange energy                            =   -124.360208126 Eh
Exchange energy change after final integration =     -0.002878459 Eh
Total energy after final integration           =  -6246.523021547 Eh
Final COS-X integration done in                =  2505.280 sec

----------------
TOTAL SCF ENERGY
----------------

Total Energy       :        -6246.52302155 Eh         -169976.53286 eV

Components:
Nuclear Repulsion  :        16071.66525260 Eh          437332.24507 eV
Electronic Energy  :       -22318.18827415 Eh         -607308.77792 eV
One Electron Energy:       -40600.73624424 Eh        -1104802.20026 eV
Two Electron Energy:        18282.54797009 Eh          497493.42234 eV

Virial components:
Potential Energy   :       -12476.50454371 Eh         -339502.94863 eV
Kinetic Energy     :         6229.98152216 Eh          169526.41577 eV
Virial Ratio       :            2.00265514


DFT components:
N(Alpha)           :      317.000073921187 electrons
N(Beta)            :      317.000073921187 electrons
N(Total)           :      634.000147842373 electrons
E(X)               :     -494.070485146353 Eh       
E(C)               :      -26.575252785087 Eh       
E(XC)              :     -520.645737931440 Eh       
DFET-embed. en.    :        0.000000000000 Eh       

---------------
SCF CONVERGENCE
---------------

  Last Energy change         ...   -1.7518e-07  Tolerance :   1.0000e-08
  Last MAX-Density change    ...    4.7740e-15  Tolerance :   1.0000e-07
  Last RMS-Density change    ...    1.2423e-17  Tolerance :   5.0000e-09
  Last Orbital Gradient      ...    2.2636e-06  Tolerance :   1.0000e-05
  Last Orbital Rotation      ...    1.3600e-05  Tolerance :   1.0000e-05

             **** THE GBW FILE WAS UPDATED (ITIC-Th.gbw) ****
             **** DENSITY FILE WAS UPDATED (ITIC-Th.scfp) ****
             **** ENERGY FILE WAS UPDATED (ITIC-Th.en.tmp) ****
             **** THE GBW FILE WAS UPDATED (ITIC-Th.gbw) ****
             **** DENSITY FILE WAS UPDATED (ITIC-Th.scfp) ****
----------------
ORBITAL ENERGIES
----------------

  NO   OCC          E(Eh)            E(eV) 
   0   2.0000     -88.908384     -2419.3201 
   1   2.0000     -88.905369     -2419.2381 
   2   2.0000     -88.900826     -2419.1145 
   3   2.0000     -88.898790     -2419.0590 
   4   2.0000     -88.881280     -2418.5826 
   5   2.0000     -88.880909     -2418.5725 
   6   2.0000     -88.876171     -2418.4436 
   7   2.0000     -88.876046     -2418.4402 
   8   2.0000     -19.124812      -520.4126 
   9   2.0000     -19.124397      -520.4013 
  10   2.0000     -14.325189      -389.8082 
  11   2.0000     -14.323969      -389.7750 
  12   2.0000     -14.322077      -389.7235 
  13   2.0000     -14.318565      -389.6280 
  14   2.0000     -10.269792      -279.4553 
  15   2.0000     -10.269430      -279.4454 
  16   2.0000     -10.250819      -278.9390 
  17   2.0000     -10.250118      -278.9199 
  18   2.0000     -10.248111      -278.8653 
  19   2.0000     -10.247292      -278.8430 
  20   2.0000     -10.232773      -278.4479 
  21   2.0000     -10.231695      -278.4186 
  22   2.0000     -10.230234      -278.3788 
  23   2.0000     -10.229646      -278.3628 
  24   2.0000     -10.228863      -278.3415 
  25   2.0000     -10.228417      -278.3294 
  26   2.0000     -10.227774      -278.3119 
  27   2.0000     -10.227338      -278.3000 
  28   2.0000     -10.225674      -278.2547 
  29   2.0000     -10.225073      -278.2384 
  30   2.0000     -10.224140      -278.2130 
  31   2.0000     -10.223428      -278.1936 
  32   2.0000     -10.222924      -278.1799 
  33   2.0000     -10.222307      -278.1631 
  34   2.0000     -10.221328      -278.1365 
  35   2.0000     -10.217250      -278.0255 
  36   2.0000     -10.216990      -278.0184 
  37   2.0000     -10.216950      -278.0173 
  38   2.0000     -10.213440      -277.9218 
  39   2.0000     -10.211219      -277.8614 
  40   2.0000     -10.210596      -277.8444 
  41   2.0000     -10.209948      -277.8268 
  42   2.0000     -10.207789      -277.7681 
  43   2.0000     -10.205980      -277.7188 
  44   2.0000     -10.205905      -277.7168 
  45   2.0000     -10.205745      -277.7124 
  46   2.0000     -10.205458      -277.7046 
  47   2.0000     -10.205328      -277.7011 
  48   2.0000     -10.205198      -277.6976 
  49   2.0000     -10.204906      -277.6896 
  50   2.0000     -10.204233      -277.6713 
  51   2.0000     -10.204109      -277.6679 
  52   2.0000     -10.203575      -277.6534 
  53   2.0000     -10.203514      -277.6517 
  54   2.0000     -10.203410      -277.6489 
  55   2.0000     -10.203305      -277.6461 
  56   2.0000     -10.202915      -277.6354 
  57   2.0000     -10.202757      -277.6311 
  58   2.0000     -10.202730      -277.6304 
  59   2.0000     -10.202541      -277.6253 
  60   2.0000     -10.202188      -277.6156 
  61   2.0000     -10.201977      -277.6099 
  62   2.0000     -10.201202      -277.5888 
  63   2.0000     -10.200372      -277.5662 
  64   2.0000     -10.197889      -277.4987 
  65   2.0000     -10.197761      -277.4952 
  66   2.0000     -10.197170      -277.4791 
  67   2.0000     -10.193515      -277.3796 
  68   2.0000     -10.184058      -277.1223 
  69   2.0000     -10.182543      -277.0811 
  70   2.0000     -10.178849      -276.9806 
  71   2.0000     -10.176248      -276.9098 
  72   2.0000     -10.173687      -276.8401 
  73   2.0000     -10.173328      -276.8303 
  74   2.0000     -10.170788      -276.7612 
  75   2.0000     -10.170740      -276.7599 
  76   2.0000     -10.169766      -276.7334 
  77   2.0000     -10.169387      -276.7231 
  78   2.0000     -10.164349      -276.5860 
  79   2.0000     -10.164253      -276.5834 
  80   2.0000     -10.162761      -276.5428 
  81   2.0000     -10.162357      -276.5318 
[...]
   304a -> 318a  :     0.258000 (c=  0.50793692)
   306a -> 318a  :     0.067130 (c= -0.25909443)
   309a -> 320a  :     0.017261 (c= -0.13138121)
   310a -> 319a  :     0.278122 (c=  0.52737285)
   310a -> 320a  :     0.165914 (c=  0.40732530)
   311a -> 320a  :     0.023309 (c=  0.15267415)

STATE 45:  E=   0.130191 au      3.543 eV    28573.7 cm**-1
   300a -> 317a  :     0.015599 (c= -0.12489438)
   303a -> 317a  :     0.027908 (c=  0.16705581)
   303a -> 318a  :     0.085677 (c= -0.29270605)
   304a -> 317a  :     0.018379 (c= -0.13557095)
   304a -> 318a  :     0.089879 (c=  0.29979771)
   306a -> 317a  :     0.011689 (c=  0.10811645)
   306a -> 318a  :     0.024470 (c= -0.15642886)
   309a -> 319a  :     0.391474 (c=  0.62567910)
   309a -> 320a  :     0.104156 (c= -0.32273253)
   310a -> 319a  :     0.015004 (c= -0.12248907)
   310a -> 320a  :     0.082111 (c= -0.28654966)
   311a -> 320a  :     0.021276 (c= -0.14586373)

STATE 46:  E=   0.131664 au      3.583 eV    28897.0 cm**-1
   299a -> 317a  :     0.536174 (c= -0.73223903)
   300a -> 317a  :     0.068398 (c=  0.26153052)
   302a -> 317a  :     0.012649 (c= -0.11246610)
   303a -> 318a  :     0.018392 (c= -0.13561835)
   315a -> 321a  :     0.027166 (c= -0.16482239)
   316a -> 323a  :     0.261418 (c= -0.51129013)

STATE 47:  E=   0.133491 au      3.632 eV    29297.8 cm**-1
   299a -> 317a  :     0.013924 (c= -0.11800036)
   300a -> 317a  :     0.011707 (c=  0.10819684)
   303a -> 318a  :     0.010343 (c= -0.10170083)
   309a -> 319a  :     0.020694 (c=  0.14385252)
   310a -> 319a  :     0.014250 (c=  0.11937454)
   314a -> 321a  :     0.039370 (c=  0.19841934)
   315a -> 321a  :     0.803227 (c=  0.89622957)

STATE 48:  E=   0.133830 au      3.642 eV    29372.2 cm**-1
   300a -> 318a  :     0.014258 (c= -0.11940691)
   300a -> 320a  :     0.012783 (c= -0.11306322)
   301a -> 317a  :     0.053167 (c=  0.23057927)
   301a -> 319a  :     0.016483 (c=  0.12838746)
   302a -> 317a  :     0.023972 (c= -0.15482749)
   302a -> 320a  :     0.012337 (c= -0.11107028)
   303a -> 317a  :     0.016063 (c=  0.12674148)
   303a -> 319a  :     0.034636 (c=  0.18610698)
   304a -> 318a  :     0.131987 (c= -0.36330078)
   304a -> 320a  :     0.011583 (c=  0.10762398)
   306a -> 318a  :     0.086978 (c=  0.29492045)
   306a -> 320a  :     0.023493 (c= -0.15327565)
   309a -> 319a  :     0.046162 (c=  0.21485451)
   309a -> 320a  :     0.051035 (c= -0.22590973)
   310a -> 319a  :     0.164719 (c=  0.40585565)
   310a -> 320a  :     0.042374 (c=  0.20584846)
   313a -> 321a  :     0.012920 (c=  0.11366588)
   315a -> 321a  :     0.056115 (c= -0.23688589)
   316a -> 322a  :     0.045664 (c= -0.21369138)

STATE 49:  E=   0.134715 au      3.666 eV    29566.6 cm**-1
   299a -> 317a  :     0.053135 (c=  0.23050955)
   300a -> 317a  :     0.091946 (c=  0.30322549)
   301a -> 317a  :     0.016573 (c= -0.12873765)
   302a -> 317a  :     0.064541 (c= -0.25404947)
   303a -> 318a  :     0.255558 (c= -0.50552697)
   305a -> 318a  :     0.014857 (c= -0.12189000)
   309a -> 319a  :     0.010445 (c= -0.10219958)
   314a -> 321a  :     0.364160 (c=  0.60345647)
   315a -> 321a  :     0.038316 (c= -0.19574394)
   316a -> 323a  :     0.019971 (c=  0.14131866)

STATE 50:  E=   0.135128 au      3.677 eV    29657.2 cm**-1
   297a -> 317a  :     0.010212 (c= -0.10105264)
   300a -> 317a  :     0.040528 (c= -0.20131586)
   301a -> 317a  :     0.010189 (c= -0.10093827)
   301a -> 320a  :     0.013478 (c=  0.11609608)
   302a -> 317a  :     0.015798 (c= -0.12569082)
   303a -> 318a  :     0.219955 (c= -0.46899335)
   303a -> 320a  :     0.021826 (c=  0.14773528)
   304a -> 319a  :     0.011626 (c=  0.10782407)
   306a -> 319a  :     0.029152 (c= -0.17073947)
   308a -> 319a  :     0.073040 (c= -0.27025940)
   309a -> 319a  :     0.130372 (c= -0.36107047)
   310a -> 319a  :     0.021548 (c=  0.14679292)
   310a -> 320a  :     0.019963 (c=  0.14128967)
   311a -> 320a  :     0.012517 (c= -0.11188155)
   312a -> 320a  :     0.010414 (c=  0.10204755)
   313a -> 320a  :     0.014186 (c= -0.11910527)
   314a -> 321a  :     0.210179 (c= -0.45845306)
   315a -> 321a  :     0.011174 (c=  0.10570560)


-----------------------------
TD-DFT/TDA-EXCITATION SPECTRA
-----------------------------

Center of mass = ( -6.8006,-19.0033, -0.2362)
Calculating the Dipole integrals                  ... done
Transforming integrals                            ... done
Calculating the Linear Momentum integrals         ... done
Transforming integrals                            ... done
Calculating angular momentum integrals            ... done
Transforming integrals                            ... done

-----------------------------------------------------------------------------
         ABSORPTION SPECTRUM VIA TRANSITION ELECTRIC DIPOLE MOMENTS
-----------------------------------------------------------------------------
State   Energy    Wavelength  fosc         T2        TX        TY        TZ  
        (cm-1)      (nm)                 (au**2)    (au)      (au)      (au) 
-----------------------------------------------------------------------------
   1   14356.8    696.5   1.681340715  38.55451  -1.03896  -6.06396   0.83876
   2   16200.5    617.3   0.001051102   0.02136  -0.04045  -0.03154   0.13685
   3   16900.2    591.7   0.001580687   0.03079  -0.14001   0.09400  -0.04850
   4   17277.9    578.8   0.075301223   1.43478  -0.16296  -1.17007   0.19787
   5   18867.2    530.0   0.021911601   0.38233   0.14716   0.58991  -0.11264
   6   19411.0    515.2   0.023862889   0.40472   0.17641   0.54987  -0.26692
   7   19491.5    513.0   0.158918519   2.68414   0.03281  -1.63672  -0.06483
   8   19590.1    510.5   0.269540790   4.52964  -0.09099  -2.12400   0.09983
   9   19815.4    504.7   0.085145692   1.41460   0.19487   1.16706  -0.12084
  10   19936.0    501.6   0.009810995   0.16201   0.02218  -0.40172   0.01201
  11   21102.8    473.9   0.021419027   0.33415  -0.19303  -0.54365  -0.03651
  12   21233.2    471.0   0.029878066   0.46325   0.39043   0.40798  -0.37996
  13   21839.4    457.9   0.018275325   0.27549   0.37258   0.17179  -0.32735
  14   22248.1    449.5   0.045042479   0.66651   0.18680   0.77440   0.17866
  15   22338.5    447.7   0.000799906   0.01179  -0.02263   0.09458  -0.04828
  16   22509.0    444.3   0.043307281   0.63340   0.54903   0.55965  -0.13701
  17   23544.2    424.7   0.026536953   0.37106  -0.21540  -0.56409  -0.08040
  18   23582.3    424.0   0.003226967   0.04505   0.16600   0.12181   0.05152
  19   23892.2    418.5   0.023889619   0.32918  -0.01653  -0.57127   0.05053
  20   24309.0    411.4   0.017890199   0.24228   0.18359   0.44435   0.10549
  21   24645.7    405.8   0.006414956   0.08569   0.13549   0.25625  -0.04083
  22   24749.0    404.1   0.006698139   0.08910   0.20239   0.11790  -0.18503
  23   24891.3    401.7   0.015763996   0.20849  -0.18170   0.33511   0.25137
  24   25084.3    398.7   0.001882272   0.02470   0.00392   0.15692   0.00806
  25   25106.8    398.3   0.001885347   0.02472   0.13453  -0.02256  -0.07819
  26   25323.9    394.9   0.008217984   0.10683   0.04214   0.31111   0.09094
  27   25416.3    393.4   0.009630259   0.12474  -0.10071   0.33755   0.02564
  28   25526.0    391.8   0.001090227   0.01406   0.09299   0.07048  -0.02112
  29   25601.3    390.6   0.001497305   0.01925   0.12597  -0.05140   0.02726
  30   26007.2    384.5   0.030215049   0.38248  -0.05354  -0.60808  -0.09926
  31   26058.5    383.8   0.004363088   0.05512  -0.02979   0.18862  -0.13659
  32   26189.7    381.8   0.213314940   2.68143  -0.03927  -1.63643  -0.04457
  33   26296.9    380.3   0.001354287   0.01695   0.08030   0.02088  -0.10035
  34   26390.5    378.9   0.008209444   0.10241  -0.01959  -0.31725   0.03709
  35   26971.6    370.8   0.000888163   0.01084  -0.02048   0.08663   0.05400
  36   27147.0    368.4   0.003238624   0.03927   0.11887   0.15162   0.04642
  37   27171.8    368.0   0.021623611   0.26199   0.15285   0.48282   0.07423
  38   27210.8    367.5   0.002048177   0.02478   0.08007  -0.13553   0.00012
  39   27677.9    361.3   0.228166972   2.71391   0.30678  -1.51980  -0.55679
  40   27769.8    360.1   0.013175267   0.15619  -0.01982   0.36632   0.14699
  41   27840.3    359.2   0.006426089   0.07599  -0.06298  -0.26037  -0.06503
  42   27944.4    357.9   0.000533374   0.00628   0.00770  -0.07774  -0.01342
  43   28096.9    355.9   0.002634673   0.03087  -0.00496   0.12432   0.12406
  44   28420.0    351.9   0.006492207   0.07520  -0.21067  -0.16640  -0.05600
  45   28573.7    350.0   0.016719195   0.19263   0.40727  -0.16360   0.00061
  46   28897.0    346.1   0.002383969   0.02716  -0.14377   0.05701   0.05693
  47   29297.8    341.3   0.006459570   0.07258   0.14604   0.19123   0.12119
  48   29372.2    340.5   0.003352526   0.03758   0.01955   0.18174  -0.06453
  49   29566.6    338.2   0.008489404   0.09453  -0.10038   0.24905   0.14975
  50   29657.2    337.2   0.181371332   2.01332   0.13986   1.39533   0.21635

-----------------------------------------------------------------------------
         ABSORPTION SPECTRUM VIA TRANSITION VELOCITY DIPOLE MOMENTS
-----------------------------------------------------------------------------
State   Energy    Wavelength   fosc        P2         PX        PY        PZ  
        (cm-1)      (nm)                 (au**2)     (au)      (au)      (au) 
-----------------------------------------------------------------------------
   1   14356.8    696.5   0.116987844   0.01148   0.02390   0.10238   0.02065
   2   16200.5    617.3   0.002763713   0.00031  -0.00973  -0.00346   0.01412
   3   16900.2    591.7   0.001826935   0.00021  -0.01350  -0.00457  -0.00282
   4   17277.9    578.8   0.022212319   0.00262   0.01507   0.04807   0.00922
   5   18867.2    530.0   0.009404103   0.00121  -0.00532  -0.03290  -0.01010
   6   19411.0    515.2   0.013270465   0.00176  -0.00892  -0.03479  -0.02169
   7   19491.5    513.0   0.051708758   0.00689   0.06947   0.04053  -0.02046
   8   19590.1    510.5   0.052027249   0.00697   0.05337   0.06100  -0.01992
   9   19815.4    504.7   0.013912184   0.00188  -0.00278  -0.04306   0.00472
  10   19936.0    501.6   0.002140209   0.00029   0.00814   0.01484  -0.00225
  11   21102.8    473.9   0.008881640   0.00128  -0.01405   0.02999  -0.01358
  12   21233.2    471.0   0.028738109   0.00417   0.04945  -0.03435  -0.02336
  13   21839.4    457.9   0.028961469   0.00432   0.03892  -0.04263  -0.03149
  14   22248.1    449.5   0.031391010   0.00477   0.04779  -0.00315   0.04980
  15   22338.5    447.7   0.000201477   0.00003  -0.00537  -0.00026  -0.00135
  16   22509.0    444.3   0.041327276   0.00636   0.07392  -0.02896   0.00743
  17   23544.2    424.7   0.009765908   0.00157  -0.02693   0.01688  -0.02370
  18   23582.3    424.0   0.001535067   0.00025   0.01397   0.00002   0.00723
  19   23892.2    418.5   0.008576022   0.00140   0.00849   0.03638  -0.00220
  20   24309.0    411.4   0.005964287   0.00099   0.01508  -0.02076   0.01823
  21   24645.7    405.8   0.003296970   0.00056   0.01626  -0.01685   0.00268
  22   24749.0    404.1   0.006268730   0.00106   0.02527  -0.01745  -0.01084
  23   24891.3    401.7   0.012648201   0.00215  -0.04084  -0.00069   0.02199
  24   25084.3    398.7   0.000770516   0.00013   0.00669  -0.00647   0.00675
  25   25106.8    398.3   0.003536739   0.00061   0.02384  -0.00567  -0.00251
  26   25323.9    394.9   0.002318780   0.00040   0.00163  -0.01940   0.00473
  27   25416.3    393.4   0.003607018   0.00063  -0.01590  -0.01432   0.01298
  28   25526.0    391.8   0.000707324   0.00012   0.00631  -0.00775  -0.00486
  29   25601.3    390.6   0.003333810   0.00058   0.02389   0.00350  -0.00057
  30   26007.2    384.5   0.007885633   0.00140   0.02442   0.02626  -0.01077
  31   26058.5    383.8   0.001638333   0.00029  -0.00560  -0.01566  -0.00390
  32   26189.7    381.8   0.065221205   0.01167   0.07191   0.07756  -0.02206
  33   26296.9    380.3   0.006387981   0.00115   0.03147  -0.01254   0.00071
  34   26390.5    378.9   0.001071937   0.00019  -0.00123   0.01347  -0.00324
  35   26971.6    370.8   0.002525497   0.00047  -0.02038   0.00689   0.00165
  36   27147.0    368.4   0.000694079   0.00013   0.00520  -0.01007   0.00055
  37   27171.8    368.0   0.005464478   0.00101  -0.01190  -0.02949   0.00181
  38   27210.8    367.5   0.000881954   0.00016   0.00856   0.00922  -0.00239
  39   27677.9    361.3   0.091365341   0.01728   0.10775   0.05701  -0.04922
  40   27769.8    360.1   0.003865764   0.00073  -0.01867  -0.01535   0.01223
  41   27840.3    359.2   0.001405466   0.00027  -0.00269   0.01120  -0.01161
  42   27944.4    357.9   0.000489803   0.00009   0.00066   0.00765  -0.00588
  43   28096.9    355.9   0.000647905   0.00012   0.00014  -0.00921   0.00629
  44   28420.0    351.9   0.008070058   0.00157  -0.03654   0.00637  -0.01383
  45   28573.7    350.0   0.042170659   0.00824   0.08822   0.01357   0.01640
  46   28897.0    346.1   0.002300867   0.00045  -0.02015   0.00505   0.00480
  47   29297.8    341.3   0.000410075   0.00008  -0.00868  -0.00189   0.00176
  48   29372.2    340.5   0.000344654   0.00007  -0.00152  -0.00719   0.00390
  49   29566.6    338.2   0.008210153   0.00166  -0.03848   0.00688   0.01144
  50   29657.2    337.2   0.063190543   0.01281  -0.02472  -0.10852   0.02050

-------------------------------------------------------------------
                             CD SPECTRUM
-------------------------------------------------------------------
State  Energy     Wavelength     R         MX        MY        MZ   
       (cm-1)       (nm)     (1e40*cgs)   (au)      (au)      (au)  
-------------------------------------------------------------------
   1   14356.8    696.5    -127.45174   0.14344   0.02357   0.02579
   2   16200.5    617.3      5.76413  -0.03872   0.12373   0.10641
   3   16900.2    591.7     -1.57893   0.00334   0.00837   0.07561
   4   17277.9    578.8     -6.61650   0.02209   0.01593   0.04147
   5   18867.2    530.0     13.34071  -0.04369   0.06876   0.05178
   6   19411.0    515.2    -13.15226   0.04008  -0.08808  -0.05044
   7   19491.5    513.0    -23.15577   0.06006   0.03032   0.02261
   8   19590.1    510.5     -1.91943   0.08213   0.00010   0.03628
   9   19815.4    504.7     13.10367  -0.11598   0.03669  -0.06271
  10   19936.0    501.6    -19.05884  -0.09478   0.09108  -0.14451
  11   21102.8    473.9     75.01514  -0.09369  -0.18168  -1.15759
  12   21233.2    471.0     43.99443  -0.05749  -0.10039  -0.41248
  13   21839.4    457.9      4.18885   0.06652  -0.01011   0.04327
  14   22248.1    449.5    -17.15389   0.01925  -0.02417  -0.11903
  15   22338.5    447.7      0.33738  -0.23766   0.02314   0.14191
  16   22509.0    444.3    -29.94260  -0.11295  -0.00568  -0.01227
  17   23544.2    424.7      0.69841   0.02694  -0.00404  -0.06222
  18   23582.3    424.0     -1.98934  -0.01753  -0.00445  -0.01491
  19   23892.2    418.5     -5.86207   0.02163   0.02500   0.04368
  20   24309.0    411.4     -8.87173   0.10150  -0.00301  -0.34237
  21   24645.7    405.8      5.85651  -0.08216   0.11293   0.13184
  22   24749.0    404.1     -3.16131   0.02655  -0.01645   0.05479
  23   24891.3    401.7     24.59657  -0.03915   0.02867   0.14103
  24   25084.3    398.7     -0.75833   0.02281  -0.01319   0.04609
  25   25106.8    398.3     -1.61161   0.05482  -0.02257   0.14456
  26   25323.9    394.9      6.30115   0.20518  -0.07020   0.29205
  27   25416.3    393.4    -10.75938   0.10515  -0.05168   0.20333
  28   25526.0    391.8     -1.36159   0.00074  -0.02292   0.06349
  29   25601.3    390.6    -10.02857  -0.13014   0.01338  -0.15370
  30   26007.2    384.5      9.09810   0.06468  -0.04098   0.02176
  31   26058.5    383.8     32.28931  -0.17854   0.01780  -0.43792
  32   26189.7    381.8      2.50611   0.07019  -0.00332  -0.05930
  33   26296.9    380.3     -9.01378   0.13547  -0.04546   0.28947
  34   26390.5    378.9      8.78728   0.19282  -0.01670   0.46151
  35   26971.6    370.8     -0.87286   0.02198  -0.00413  -0.01932
  36   27147.0    368.4     -5.94703   0.10771  -0.07927  -0.28867
  37   27171.8    368.0     13.07603  -0.07389   0.06473   0.10477
  38   27210.8    367.5     -6.45623  -0.08583   0.05041   0.09227
  39   27677.9    361.3     -0.97197   0.09255  -0.01027   0.08274
  40   27769.8    360.1     14.15802   0.00237   0.05475   0.06817
  41   27840.3    359.2     -2.41384   0.00286   0.01041   0.03428
  42   27944.4    357.9     -0.17600   0.00848   0.00826  -0.01517
  43   28096.9    355.9     16.10400   0.00737   0.00954   0.26608
  44   28420.0    351.9      1.13576   0.05267  -0.02819  -0.15741
  45   28573.7    350.0     10.27362   0.03502  -0.04643  -0.11206
  46   28897.0    346.1      2.07304  -0.04418   0.01626  -0.05061
  47   29297.8    341.3     -6.45570  -0.03307   0.03930  -0.13515
  48   29372.2    340.5     24.87137   0.02032   0.05675  -0.65160
  49   29566.6    338.2     -2.04854  -0.02271   0.01653  -0.07173
  50   29657.2    337.2    -20.48150  -0.00083  -0.05955   0.18378

Total run time:   150151.092 sec

           *** ORCA-CIS/TD-DFT FINISHED WITHOUT ERROR ***

-----------------------
CIS/TD-DFT TOTAL ENERGY
-----------------------

    E(SCF)  =  -6246.523021547 Eh
    DE(CIS) =      0.065414173 Eh (Root  1)
    ----------------------------- ---------
    E(tot)  =  -6246.457607374 Eh


-------------------------   --------------------
FINAL SINGLE POINT ENERGY     -6246.457607374207
-------------------------   --------------------


                            ***************************************
                            *     ORCA property calculations      *
                            ***************************************

                                    ---------------------
                                    Active property flags
                                    ---------------------
   (+) Dipole Moment


------------------------------------------------------------------------------
                       ORCA ELECTRIC PROPERTIES CALCULATION
------------------------------------------------------------------------------

Dipole Moment Calculation                       ... on
Quadrupole Moment Calculation                   ... off
Polarizability Calculation                      ... off
GBWName                                         ... ITIC-Th.gbw
Electron density file                           ... ITIC-Th.scfp
The origin for moment calculation is the CENTER OF MASS  = (-6.800611, -19.003264 -0.236239)

-------------
DIPOLE MOMENT
-------------
                                X             Y             Z
Electronic contribution:     -2.22704      -4.71841       2.25726
Nuclear contribution   :      2.26984       4.80966      -2.29683
                        -----------------------------------------
Total Dipole Moment    :      0.04280       0.09125      -0.03957
                        -----------------------------------------
Magnitude (a.u.)       :      0.10828
Magnitude (Debye)      :      0.27523



--------------------
Rotational spectrum 
--------------------
 
Rotational constants in cm-1:     0.001496     0.000286     0.000280 
Rotational constants in MHz :    44.839730     8.577916     8.400107 

 Dipole components along the rotational axes: 
x,y,z [a.u.] :    -0.100303     0.023697     0.033201 
x,y,z [Debye]:    -0.254950     0.060234     0.084390 

 

Timings for individual modules:

Sum of individual times         ...   173468.116 sec (=2891.135 min)
GTO integral calculation        ...       10.080 sec (=   0.168 min)   0.0 %
SCF iterations                  ...    23306.764 sec (= 388.446 min)  13.4 %
CIS module                      ...   150151.272 sec (=2502.521 min)  86.6 %
                             ****ORCA TERMINATED NORMALLY****
TOTAL RUN TIME: 2 days 0 hours 11 minutes 10 seconds 69 msec
