
                                 *****************
                                 * O   R   C   A *
                                 *****************

           --- An Ab Initio, DFT and Semiempirical electronic structure package ---

                  #######################################################
                  #                        -***-                        #
                  #          Department of theory and spectroscopy      #
                  #               Directorship: Frank Neese             #
                  #        Max Planck Institute fuer Kohlenforschung    #
                  #                Kaiser Wilhelm Platz 1               #
                  #                 D-45470 Muelheim/Ruhr               #
                  #                      Germany                        #
                  #                                                     #
                  #                  All rights reserved                #
                  #                        -***-                        #
                  #######################################################


                         Program Version 4.2.0 -  RELEASE  -


 With contributions from (in alphabetic order):
   Daniel Aravena         : Magnetic Suceptibility
   Michael Atanasov       : Ab Initio Ligand Field Theory (pilot matlab implementation)
   Alexander A. Auer      : GIAO ZORA, VPT2
   Ute Becker             : Parallelization
   Giovanni Bistoni       : ED, misc. LED, open-shell LED, HFLED
   Martin Brehm           : Molecular dynamics
   Dmytro Bykov           : SCF Hessian
   Vijay G. Chilkuri      : MRCI spin determinant printing, contributions to CSF-ICE
   Dipayan Datta          : RHF DLPNO-CCSD density
   Achintya Kumar Dutta   : EOM-CC, STEOM-CC
   Dmitry Ganyushin       : Spin-Orbit,Spin-Spin,Magnetic field MRCI
   Miquel Garcia          : C-PCM Hessian, Gaussian charge scheme
   Yang Guo               : DLPNO-NEVPT2, CIM, IAO-localization
   Andreas Hansen         : Spin unrestricted coupled pair/coupled cluster methods
   Benjamin Helmich-Paris : CASSCF linear response (MC-RPA)
   Lee Huntington         : MR-EOM, pCC
   Robert Izsak           : Overlap fitted RIJCOSX, COSX-SCS-MP3, EOM
   Christian Kollmar      : KDIIS, OOCD, Brueckner-CCSD(T), CCSD density
   Simone Kossmann        : Meta GGA functionals, TD-DFT gradient, OOMP2, MP2 Hessian
   Martin Krupicka        : AUTO-CI
   Lucas Lang             : DCDCAS
   Dagmar Lenk            : GEPOL surface, SMD
   Dimitrios Liakos       : Extrapolation schemes; Compound Job, initial MDCI parallelization
   Dimitrios Manganas     : Further ROCIS development; embedding schemes
   Dimitrios Pantazis     : SARC Basis sets
   Taras Petrenko         : DFT Hessian,TD-DFT gradient, ASA, ECA, R-Raman, ABS, FL, XAS/XES, NRVS
   Peter Pinski           : DLPNO-MP2, DLPNO-MP2 Gradient
   Christoph Reimann      : Effective Core Potentials
   Marius Retegan         : Local ZFS, SOC
   Christoph Riplinger    : Optimizer, TS searches, QM/MM, DLPNO-CCSD(T), (RO)-DLPNO pert. Triples
   Tobias Risthaus        : Range-separated hybrids, TD-DFT gradient, RPA, STAB
   Michael Roemelt        : Original ROCIS implementation
   Masaaki Saitow         : Open-shell DLPNO-CCSD energy and density
   Barbara Sandhoefer     : DKH picture change effects
   Avijit Sen             : IP-ROCIS
   Kantharuban Sivalingam : CASSCF convergence, NEVPT2, FIC-MRCI
   Bernardo de Souza      : ESD, SOC TD-DFT
   Georgi Stoychev        : AutoAux, RI-MP2 NMR
   Willem Van den Heuvel  : Paramagnetic NMR
   Boris Wezisla          : Elementary symmetry handling
   Frank Wennmohs         : Technical directorship


 We gratefully acknowledge several colleagues who have allowed us to
 interface, adapt or use parts of their codes:
   Stefan Grimme, W. Hujo, H. Kruse,             : VdW corrections, initial TS optimization,
                  C. Bannwarth                     DFT functionals, gCP, sTDA/sTD-DF
   Ed Valeev, F. Pavosevic, A. Kumar             : LibInt (2-el integral package), F12 methods
   Garnet Chan, S. Sharma, J. Yang, R. Olivares  : DMRG
   Ulf Ekstrom                                   : XCFun DFT Library
   Mihaly Kallay                                 : mrcc  (arbitrary order and MRCC methods)
   Andreas Klamt, Michael Diedenhofen            : otool_cosmo (COSMO solvation model)
   Jiri Pittner, Ondrej Demel                    : Mk-CCSD
   Frank Weinhold                                : gennbo (NPA and NBO analysis)
   Christopher J. Cramer and Donald G. Truhlar   : smd solvation model
   Lars Goerigk                                  : TD-DFT with DH, B97 family of functionals
   V. Asgeirsson, H. Jonsson                     : NEB implementation
   FAccTs GmbH                                   : IRC, NEB, NEB-TS, Multilevel, MM, QM/MM, CI optimization
   S Lehtola, MJT Oliveira, MAL Marques          : LibXC Library


 Your calculation uses the libint2 library for the computation of 2-el integrals
 For citations please refer to: http://libint.valeyev.net

 Your ORCA version has been built with support for libXC version: 4.2.3
 For citations please refer to: https://tddft.org/programs/libxc/

 This ORCA versions uses:
   CBLAS   interface :  Fast vector & matrix operations
   LAPACKE interface :  Fast linear algebra routines
   SCALAPACK package :  Parallel linear algebra routines


----- Orbital basis set information -----
Your calculation utilizes the basis: def2-TZVP
   F. Weigend and R. Ahlrichs, Phys. Chem. Chem. Phys. 7, 3297 (2005).

----- AuxJ basis set information -----
Your calculation utilizes the auxiliary basis: def2/J
   F. Weigend, Phys. Chem. Chem. Phys. 8, 1057 (2006).

================================================================================
                                        WARNINGS
                       Please study these warnings very carefully!
================================================================================

INFO   : Checking CIS options ...

WARNING: CIS/ROCIS methods need fully converged wavefunctions
  ===> : Setting SCFConvForced true
         You can overwrite this default with %scf ConvForced false 


INFO   : the flag for use of LIBINT has been found!

================================================================================
                                       INPUT FILE
================================================================================
NAME = ITIC-Th.inp
|  1> # ORCA input file
|  2> # ITIC-Th.out: Geometry 111
|  3> ! B3LYP def2-TZVP def2/J RIJCOSX Grid4 TightSCF
|  4> 
|  5> %maxcore 6000
|  6> %tddft
|  7>   maxdim 5
|  8>   nroots 50
|  9>   end
| 10> %pal
| 11>   nprocs 6
| 12>   end
| 13> 
| 14> 
| 15> * xyz 0 1
| 16>    C       -3.99854         0.41119         0.58998
| 17>    O       -5.12985         0.77177         0.84183
| 18>    C       -2.72670         1.00159         1.08983
| 19>    C       -2.55739         2.04759         1.98954
| 20>    C       -1.25376         2.40423         2.35039
| 21>    C       -0.15837         1.71966         1.80507
| 22>    C       -0.32841         0.67346         0.88879
| 23>    C       -1.63104         0.30737         0.52947
| 24>    C       -2.15040        -0.71280        -0.41814
| 25>    C       -1.42759        -1.30032        -1.44220
| 26>    C       -2.05480        -1.95274        -2.54927
| 27>    N       -2.54029        -2.44529        -3.48325
| 28>    C       -0.00487        -1.20152        -1.53294
| 29>    N        1.15413        -1.14597        -1.60157
| 30>    C       -3.59061        -0.78587        -0.21972
| 31>    C       -4.53823        -1.75828        -0.42771
| 32>    C       -4.45523        -3.15256        -0.68425
| 33>    C       -5.57173        -3.98059        -0.86702
| 34>    C       -5.21862        -5.33289        -0.96544
| 35>    C       -3.82581        -5.56197        -0.83970
| 36>    S       -2.95834        -4.09099        -0.58739
| 37>    C       -3.48850        -6.92189        -0.95367
| 38>    C       -2.23013        -7.77225        -0.84742
| 39>    C       -1.21398        -7.39383        -1.90589
| 40>    C       -1.33462        -6.49562        -2.93870
| 41>    C       -0.18523        -6.46243        -3.78782
| 42>    C        0.80387        -7.33734        -3.40997
| 43>    C        2.10780        -7.63679        -4.09253
| 44>    C        3.30153        -7.81271        -3.15067
| 45>    S        0.33792        -8.19113        -1.96028
| 46>    C       -1.69213        -7.65130         0.57247
| 47>    C       -2.02439        -8.39635         1.67740
| 48>    C       -1.48548        -7.86392         2.88799
| 49>    C       -0.74932        -6.71784         2.70863
| 50>    C       -0.04100        -5.89296         3.74336
| 51>    C        1.43991        -5.63400         3.44487
| 52>    S       -0.69740        -6.28764         1.01588
| 53>    C       -2.82701        -9.18161        -1.05580
| 54>    C       -4.24350        -9.11811        -1.17564
| 55>    C       -4.61004        -7.71915        -1.13004
| 56>    S       -6.10838        -6.83321        -1.18949
| 57>    C       -5.02586       -10.28246        -1.23593
| 58>    C       -4.36812       -11.50026        -1.17679
| 59>    C       -4.98526       -12.91003        -1.03113
| 60>    C       -5.64149       -13.00334         0.34118
| 61>    C       -5.08068       -13.44196         1.51521
| 62>    C       -5.92388       -13.23962         2.64907
| 63>    C       -7.12265       -12.64306         2.34521
| 64>    C       -8.24291       -12.27811         3.27288
| 65>    C       -8.58910       -10.78346         3.28729
| 66>    S       -7.23456       -12.34081         0.62538
| 67>    C       -5.92715       -13.30799        -2.14822
| 68>    C       -6.87972       -14.29758        -2.13283
| 69>    C       -7.50523       -14.48802        -3.40309
| 70>    C       -7.02451       -13.65280        -4.38340
| 71>    C       -7.45366       -13.54478        -5.81851
| 72>    C       -7.92309       -12.14177        -6.22596
| 73>    S       -5.78478       -12.60670        -3.73655
| 74>    C       -3.72478       -13.75858        -1.02048
| 75>    C       -2.58764       -12.96526        -1.04090
| 76>    C       -2.94675       -11.56401        -1.11591
| 77>    C       -2.16629       -10.39960        -1.05079
| 78>    S       -1.10607       -13.85565        -0.81781
| 79>    C       -2.03233       -15.34089        -0.64901
| 80>    C       -3.41935       -15.11011        -0.79684
| 81>    S       -4.33881       -16.54850        -0.53022
| 82>    C       -2.86541       -17.44915        -0.14755
| 83>    C       -1.71871       -16.66986        -0.31517
| 84>    C       -2.89088       -18.80115         0.30403
| 85>    C       -3.88365       -19.50135         0.93767
| 86>    C       -5.12158       -19.10841         1.60744
| 87>    C       -5.35150       -17.92729         2.28988
| 88>    C       -6.60273       -17.61098         2.90480
| 89>    N       -7.61584       -17.31197         3.39016
| 90>    C       -4.32111       -16.96536         2.52956
| 91>    N       -3.49464       -16.19325         2.79545
| 92>    C       -5.98061       -20.31570         1.67242
| 93>    C       -7.31301       -20.49300         2.06246
| 94>    C       -7.83095       -21.79337         2.09013
| 95>    C       -7.04462       -22.90514         1.75605
| 96>    C       -5.71335       -22.73432         1.36409
| 97>    C       -5.20454       -21.44182         1.31714
| 98>    C       -3.84529       -21.00135         0.90301
| 99>    O       -2.91500       -21.69817         0.55577
|100>    H       -3.43017         2.56251         2.39531
|101>    H       -1.08154         3.21846         3.05814
|102>    H        0.85213         2.00850         2.10395
|103>    H        0.54114         0.15774         0.48609
|104>    H       -5.55717        -1.40361        -0.22364
|105>    H       -6.58580        -3.58410        -0.91651
|106>    H       -2.21465        -5.87278        -3.09771
|107>    H       -0.09949        -5.81126        -4.65897
|108>    H        2.30560        -6.82233        -4.80800
|109>    H        1.99078        -8.55293        -4.70120
|110>    H        3.48450        -6.90109        -2.56114
|111>    H        4.21362        -8.04870        -3.72056
|112>    H        3.13236        -8.63713        -2.43923
|113>    H       -2.64134        -9.29344         1.62543
|114>    H       -1.63720        -8.31913         3.86828
|115>    H       -0.14744        -6.41699         4.70706
|116>    H       -0.56154        -4.92590         3.86339
|117>    H        1.99134        -6.58000         3.33227
|118>    H        1.90862        -5.05403         4.25493
|119>    H        1.56652        -5.06272         2.51137
|120>    H       -6.11519       -10.22969        -1.28164
|121>    H       -4.09413       -13.89561         1.58536
|122>    H       -5.64712       -13.54566         3.65930
|123>    H       -7.94641       -12.60719         4.28172
|124>    H       -9.14470       -12.85991         3.01332
|125>    H       -7.71513       -10.17831         3.57411
|126>    H       -9.39935       -10.57358         4.00254
|127>    H       -8.92213       -10.43959         2.29489
|128>    H       -7.13298       -14.85979        -1.23392
|129>    H       -8.29691       -15.21628        -3.58759
|130>    H       -8.26315       -14.27551        -5.97682
|131>    H       -6.62711       -13.86094        -6.48055
|132>    H       -8.73217       -11.79032        -5.56763
|133>    H       -8.29636       -12.13706        -7.26218
|134>    H       -7.10017       -11.41254        -6.16057
|135>    H       -1.08022       -10.45532        -0.96106
|136>    H       -0.71806       -17.05744        -0.12197
|137>    H       -2.00493       -19.40303         0.06139
|138>    H       -7.94557       -19.65164         2.33929
|139>    H       -8.86968       -21.94389         2.39232
|140>    H       -7.47986       -23.90622         1.80376
|141>    H       -5.07498       -23.57769         1.09482
|142> *
|143> 
|144>                          ****END OF INPUT****
================================================================================

                       ****************************
                       * Single Point Calculation *
                       ****************************

---------------------------------
CARTESIAN COORDINATES (ANGSTROEM)
---------------------------------
  C     -3.998540    0.411190    0.589980
  O     -5.129850    0.771770    0.841830
  C     -2.726700    1.001590    1.089830
  C     -2.557390    2.047590    1.989540
  C     -1.253760    2.404230    2.350390
  C     -0.158370    1.719660    1.805070
  C     -0.328410    0.673460    0.888790
  C     -1.631040    0.307370    0.529470
  C     -2.150400   -0.712800   -0.418140
  C     -1.427590   -1.300320   -1.442200
  C     -2.054800   -1.952740   -2.549270
  N     -2.540290   -2.445290   -3.483250
  C     -0.004870   -1.201520   -1.532940
  N      1.154130   -1.145970   -1.601570
  C     -3.590610   -0.785870   -0.219720
  C     -4.538230   -1.758280   -0.427710
  C     -4.455230   -3.152560   -0.684250
  C     -5.571730   -3.980590   -0.867020
  C     -5.218620   -5.332890   -0.965440
  C     -3.825810   -5.561970   -0.839700
  S     -2.958340   -4.090990   -0.587390
  C     -3.488500   -6.921890   -0.953670
  C     -2.230130   -7.772250   -0.847420
  C     -1.213980   -7.393830   -1.905890
  C     -1.334620   -6.495620   -2.938700
  C     -0.185230   -6.462430   -3.787820
  C      0.803870   -7.337340   -3.409970
  C      2.107800   -7.636790   -4.092530
  C      3.301530   -7.812710   -3.150670
  S      0.337920   -8.191130   -1.960280
  C     -1.692130   -7.651300    0.572470
  C     -2.024390   -8.396350    1.677400
  C     -1.485480   -7.863920    2.887990
  C     -0.749320   -6.717840    2.708630
  C     -0.041000   -5.892960    3.743360
  C      1.439910   -5.634000    3.444870
  S     -0.697400   -6.287640    1.015880
  C     -2.827010   -9.181610   -1.055800
  C     -4.243500   -9.118110   -1.175640
  C     -4.610040   -7.719150   -1.130040
  S     -6.108380   -6.833210   -1.189490
  C     -5.025860  -10.282460   -1.235930
  C     -4.368120  -11.500260   -1.176790
  C     -4.985260  -12.910030   -1.031130
  C     -5.641490  -13.003340    0.341180
  C     -5.080680  -13.441960    1.515210
  C     -5.923880  -13.239620    2.649070
  C     -7.122650  -12.643060    2.345210
  C     -8.242910  -12.278110    3.272880
  C     -8.589100  -10.783460    3.287290
  S     -7.234560  -12.340810    0.625380
  C     -5.927150  -13.307990   -2.148220
  C     -6.879720  -14.297580   -2.132830
  C     -7.505230  -14.488020   -3.403090
  C     -7.024510  -13.652800   -4.383400
  C     -7.453660  -13.544780   -5.818510
  C     -7.923090  -12.141770   -6.225960
  S     -5.784780  -12.606700   -3.736550
  C     -3.724780  -13.758580   -1.020480
  C     -2.587640  -12.965260   -1.040900
  C     -2.946750  -11.564010   -1.115910
  C     -2.166290  -10.399600   -1.050790
  S     -1.106070  -13.855650   -0.817810
  C     -2.032330  -15.340890   -0.649010
  C     -3.419350  -15.110110   -0.796840
  S     -4.338810  -16.548500   -0.530220
  C     -2.865410  -17.449150   -0.147550
  C     -1.718710  -16.669860   -0.315170
  C     -2.890880  -18.801150    0.304030
  C     -3.883650  -19.501350    0.937670
  C     -5.121580  -19.108410    1.607440
  C     -5.351500  -17.927290    2.289880
  C     -6.602730  -17.610980    2.904800
  N     -7.615840  -17.311970    3.390160
  C     -4.321110  -16.965360    2.529560
  N     -3.494640  -16.193250    2.795450
  C     -5.980610  -20.315700    1.672420
  C     -7.313010  -20.493000    2.062460
  C     -7.830950  -21.793370    2.090130
  C     -7.044620  -22.905140    1.756050
  C     -5.713350  -22.734320    1.364090
  C     -5.204540  -21.441820    1.317140
  C     -3.845290  -21.001350    0.903010
  O     -2.915000  -21.698170    0.555770
  H     -3.430170    2.562510    2.395310
  H     -1.081540    3.218460    3.058140
  H      0.852130    2.008500    2.103950
  H      0.541140    0.157740    0.486090
  H     -5.557170   -1.403610   -0.223640
  H     -6.585800   -3.584100   -0.916510
  H     -2.214650   -5.872780   -3.097710
  H     -0.099490   -5.811260   -4.658970
  H      2.305600   -6.822330   -4.808000
  H      1.990780   -8.552930   -4.701200
  H      3.484500   -6.901090   -2.561140
  H      4.213620   -8.048700   -3.720560
  H      3.132360   -8.637130   -2.439230
  H     -2.641340   -9.293440    1.625430
  H     -1.637200   -8.319130    3.868280
  H     -0.147440   -6.416990    4.707060
  H     -0.561540   -4.925900    3.863390
  H      1.991340   -6.580000    3.332270
  H      1.908620   -5.054030    4.254930
  H      1.566520   -5.062720    2.511370
  H     -6.115190  -10.229690   -1.281640
  H     -4.094130  -13.895610    1.585360
  H     -5.647120  -13.545660    3.659300
  H     -7.946410  -12.607190    4.281720
  H     -9.144700  -12.859910    3.013320
  H     -7.715130  -10.178310    3.574110
  H     -9.399350  -10.573580    4.002540
  H     -8.922130  -10.439590    2.294890
  H     -7.132980  -14.859790   -1.233920
  H     -8.296910  -15.216280   -3.587590
  H     -8.263150  -14.275510   -5.976820
  H     -6.627110  -13.860940   -6.480550
  H     -8.732170  -11.790320   -5.567630
  H     -8.296360  -12.137060   -7.262180
  H     -7.100170  -11.412540   -6.160570
  H     -1.080220  -10.455320   -0.961060
  H     -0.718060  -17.057440   -0.121970
  H     -2.004930  -19.403030    0.061390
  H     -7.945570  -19.651640    2.339290
  H     -8.869680  -21.943890    2.392320
  H     -7.479860  -23.906220    1.803760
  H     -5.074980  -23.577690    1.094820

----------------------------
CARTESIAN COORDINATES (A.U.)
----------------------------
  NO LB      ZA    FRAG     MASS         X           Y           Z
   0 C     6.0000    0    12.011   -7.556146    0.777036    1.114901
   1 O     8.0000    0    15.999   -9.694012    1.458434    1.590828
   2 C     6.0000    0    12.011   -5.152716    1.892731    2.059480
   3 C     6.0000    0    12.011   -4.832767    3.869384    3.759686
   4 C     6.0000    0    12.011   -2.369263    4.543336    4.441593
   5 C     6.0000    0    12.011   -0.299276    3.249686    3.411088
   6 C     6.0000    0    12.011   -0.620605    1.272655    1.679570
   7 C     6.0000    0    12.011   -3.082219    0.580845    1.000553
   8 C     6.0000    0    12.011   -4.063667   -1.346997   -0.790170
   9 C     6.0000    0    12.011   -2.697754   -2.457249   -2.725363
  10 C     6.0000    0    12.011   -3.883009   -3.690144   -4.817422
  11 N     7.0000    0    14.007   -4.800452   -4.620928   -6.582389
  12 C     6.0000    0    12.011   -0.009203   -2.270544   -2.896837
  13 N     7.0000    0    14.007    2.180990   -2.165569   -3.026529
  14 C     6.0000    0    12.011   -6.785270   -1.485079   -0.415211
  15 C     6.0000    0    12.011   -8.576012   -3.322668   -0.808255
  16 C     6.0000    0    12.011   -8.419165   -5.957475   -1.293045
  17 C     6.0000    0    12.011  -10.529044   -7.522225   -1.638430
  18 C     6.0000    0    12.011   -9.861763  -10.077702   -1.824417
  19 C     6.0000    0    12.011   -7.229733  -10.510600   -1.586803
  20 S    16.0000    0    32.060   -5.590452   -7.730851   -1.110006
  21 C     6.0000    0    12.011   -6.592310  -13.080476   -1.802175
  22 C     6.0000    0    12.011   -4.214335  -14.687424   -1.601392
  23 C     6.0000    0    12.011   -2.294090  -13.972314   -3.601610
  24 C     6.0000    0    12.011   -2.522066  -12.274943   -5.553338
  25 C     6.0000    0    12.011   -0.350034  -12.212223   -7.157942
  26 C     6.0000    0    12.011    1.519094  -13.865563   -6.443909
  27 C     6.0000    0    12.011    3.983165  -14.431442   -7.733761
  28 C     6.0000    0    12.011    6.238988  -14.763882   -5.953903
  29 S    16.0000    0    32.060    0.638576  -15.478992   -3.704392
  30 C     6.0000    0    12.011   -3.197662  -14.458862    1.081812
  31 C     6.0000    0    12.011   -3.825543  -15.866802    3.169827
  32 C     6.0000    0    12.011   -2.807150  -14.860655    5.457510
  33 C     6.0000    0    12.011   -1.416010  -12.694878    5.118569
  34 C     6.0000    0    12.011   -0.077479  -11.136081    7.073925
  35 C     6.0000    0    12.011    2.721036  -10.646717    6.509861
  36 S    16.0000    0    32.060   -1.317895  -11.881918    1.919735
  37 C     6.0000    0    12.011   -5.342275  -17.350728   -1.995173
  38 C     6.0000    0    12.011   -8.019053  -17.230731   -2.221638
  39 C     6.0000    0    12.011   -8.711713  -14.587079   -2.135466
  40 S    16.0000    0    32.060  -11.543165  -12.912896   -2.247810
  41 C     6.0000    0    12.011   -9.497499  -19.431033   -2.335569
  42 C     6.0000    0    12.011   -8.254551  -21.732342   -2.223811
  43 C     6.0000    0    12.011   -9.420776  -24.396421   -1.948553
  44 C     6.0000    0    12.011  -10.660871  -24.572751    0.644737
  45 C     6.0000    0    12.011   -9.601094  -25.401623    2.863332
  46 C     6.0000    0    12.011  -11.194511  -25.019256    5.006017
  47 C     6.0000    0    12.011  -13.459858  -23.891921    4.431805
  48 C     6.0000    0    12.011  -15.576842  -23.202265    6.184847
  49 C     6.0000    0    12.011  -16.231047  -20.377786    6.212078
  50 S    16.0000    0    32.060  -13.671337  -23.320751    1.181797
  51 C     6.0000    0    12.011  -11.200690  -25.148456   -4.059547
  52 C     6.0000    0    12.011  -13.000787  -27.018511   -4.030465
  53 C     6.0000    0    12.011  -14.182829  -27.378390   -6.430908
  54 C     6.0000    0    12.011  -13.274400  -25.800053   -8.283426
  55 C     6.0000    0    12.011  -14.085376  -25.595925  -10.995390
  56 C     6.0000    0    12.011  -14.972470  -22.944620  -11.765359
  57 S    16.0000    0    32.060  -10.931650  -23.823210   -7.061056
  58 C     6.0000    0    12.011   -7.038814  -25.999948   -1.928428
  59 C     6.0000    0    12.011   -4.889931  -24.500791   -1.967016
  60 C     6.0000    0    12.011   -5.568550  -21.852812   -2.108764
  61 C     6.0000    0    12.011   -4.093695  -19.652396   -1.985705
  62 S    16.0000    0    32.060   -2.090169  -26.183384   -1.545437
  63 C     6.0000    0    12.011   -3.840547  -28.990081   -1.226451
  64 C     6.0000    0    12.011   -6.461635  -28.553970   -1.505809
  65 S    16.0000    0    32.060   -8.199163  -31.272133   -1.001971
  66 C     6.0000    0    12.011   -5.414840  -32.974115   -0.278829
  67 C     6.0000    0    12.011   -3.247891  -31.501470   -0.595585
  68 C     6.0000    0    12.011   -5.462971  -35.529025    0.574533
  69 C     6.0000    0    12.011   -7.339035  -36.852211    1.771940
  70 C     6.0000    0    12.011   -9.678384  -36.109662    3.037621
  71 C     6.0000    0    12.011  -10.112869  -33.877668    4.327246
  72 C     6.0000    0    12.011  -12.477351  -33.279929    5.489276
  73 N     7.0000    0    14.007  -14.391852  -32.714882    6.406474
  74 C     6.0000    0    12.011   -8.165714  -32.059884    4.780176
  75 N     7.0000    0    14.007   -6.603913  -30.600808    5.282635
  76 C     6.0000    0    12.011  -11.301715  -38.391109    3.160416
  77 C     6.0000    0    12.011  -13.819586  -38.726158    3.897485
  78 C     6.0000    0    12.011  -14.798351  -41.183501    3.949773
  79 C     6.0000    0    12.011  -13.312403  -43.284442    3.318454
  80 C     6.0000    0    12.011  -10.796667  -42.961639    2.577757
  81 C     6.0000    0    12.011   -9.835155  -40.519168    2.489034
  82 C     6.0000    0    12.011   -7.266545  -39.686800    1.706442
  83 O     8.0000    0    15.999   -5.508552  -41.003599    1.050253
  84 H     1.0000    0     1.008   -6.482082    4.842442    4.526480
  85 H     1.0000    0     1.008   -2.043814    6.082008    5.779047
  86 H     1.0000    0     1.008    1.610292    3.795515    3.975889
  87 H     1.0000    0     1.008    1.022606    0.298085    0.918577
  88 H     1.0000    0     1.008  -10.501529   -2.652438   -0.422618
  89 H     1.0000    0     1.008  -12.445358   -6.772967   -1.731953
  90 H     1.0000    0     1.008   -4.185082  -11.097946   -5.853824
  91 H     1.0000    0     1.008   -0.188009  -10.981690   -8.804177
  92 H     1.0000    0     1.008    4.356953  -12.892335   -9.085803
  93 H     1.0000    0     1.008    3.762029  -16.162695   -8.883981
  94 H     1.0000    0     1.008    6.584751  -13.041170   -4.839853
  95 H     1.0000    0     1.008    7.962588  -15.209839   -7.030839
  96 H     1.0000    0     1.008    5.919303  -16.321810   -4.609477
  97 H     1.0000    0     1.008   -4.991409  -17.562056    3.071618
  98 H     1.0000    0     1.008   -3.093860  -15.720877    7.309990
  99 H     1.0000    0     1.008   -0.278621  -12.126354    8.895054
 100 H     1.0000    0     1.008   -1.061157   -9.308602    7.300749
 101 H     1.0000    0     1.008    3.763087  -12.434398    6.297078
 102 H     1.0000    0     1.008    3.606769   -9.550733    8.040652
 103 H     1.0000    0     1.008    2.960294   -9.567154    4.745802
 104 H     1.0000    0     1.008  -11.556034  -19.331313   -2.421949
 105 H     1.0000    0     1.008   -7.736784  -26.258897    2.995896
 106 H     1.0000    0     1.008  -10.671510  -25.597588    6.915075
 107 H     1.0000    0     1.008  -15.016539  -23.824136    8.091278
 108 H     1.0000    0     1.008  -17.280979  -24.301708    5.694350
 109 H     1.0000    0     1.008  -14.579483  -19.234218    6.754089
 110 H     1.0000    0     1.008  -17.762197  -19.981170    7.563704
 111 H     1.0000    0     1.008  -16.860382  -19.727966    4.336714
 112 H     1.0000    0     1.008  -13.479379  -28.080934   -2.331771
 113 H     1.0000    0     1.008  -15.678888  -28.754602   -6.779563
 114 H     1.0000    0     1.008  -15.615091  -26.976804  -11.294553
 115 H     1.0000    0     1.008  -12.523423  -26.193381  -12.246465
 116 H     1.0000    0     1.008  -16.501410  -22.280476  -10.521296
 117 H     1.0000    0     1.008  -15.677848  -22.935719  -13.723531
 118 H     1.0000    0     1.008  -13.417377  -21.566575  -11.641790
 119 H     1.0000    0     1.008   -2.041320  -19.757691   -1.816140
 120 H     1.0000    0     1.008   -1.356937  -32.233890   -0.230490
 121 H     1.0000    0     1.008   -3.788769  -36.666413    0.116010
 122 H     1.0000    0     1.008  -15.014951  -37.136218    4.420617
 123 H     1.0000    0     1.008  -16.761266  -41.467942    4.520830
 124 H     1.0000    0     1.008  -14.134887  -45.176209    3.408612
 125 H     1.0000    0     1.008   -9.590322  -44.555377    2.068910

--------------------------------
INTERNAL COORDINATES (ANGSTROEM)
--------------------------------
 C      0   0   0     0.000000000000     0.00000000     0.00000000
 O      1   0   0     1.213799272944     0.00000000     0.00000000
 C      1   2   0     1.488623245855   127.50427006     0.00000000
 C      3   1   2     1.390057538449   128.30431514     2.99368997
 C      4   3   1     1.398876688275   118.18460178   177.79748491
 C      5   4   3     1.402101722201   120.21529779     0.31844299
 C      6   5   4     1.401077114223   121.60881250     0.26799317
 C      7   6   5     1.399992024049   118.42673264   359.39651192
 C      8   7   6     1.486084234019   131.93973119   178.31455838
 C      9   8   7     1.384316773755   125.49153243   341.10746208
 C     10   9   8     1.429911964213   122.50356705   199.26204739
 N     11  10   9     1.162163793533   177.21907293   118.53123529
 C     10   9   8     1.429030225713   122.51133308    13.74028866
 N     13  10   9     1.162358326593   178.74748551   111.28247773
 C      9   8   7     1.455649190361   107.05659206   171.16371467
 C     15   9   8     1.373617382170   134.22283906   205.36788004
 C     16  15   9     1.420112139938   133.00599384    13.82465613
 C     17  16  15     1.402002426460   123.83945469   179.84095390
 C     18  17  16     1.401102586715   112.24016027   186.23428063
 C     19  18  17     1.417112518504   113.42137048     0.86830114
 S     20  19  18     1.726252211411   111.66131409     0.40772892
 C     20  19  18     1.405755883288   112.64513131   180.57217893
 C     22  20  19     1.522463874448   137.13837938   183.49462188
 C     23  22  20     1.515295766443   111.47130456   297.50569910
 C     24  23  22     1.374056661787   129.00712810   355.12884144
 C     25  24  23     1.429406772966   113.02216359   183.53299496
 C     26  25  24     1.373519909066   113.63091621     0.40701795
 C     27  26  25     1.501929392814   128.84149156   176.23947498
 C     28  27  26     1.530698996831   114.85553911   139.88162930
 S     24  23  22     1.745577031271   120.25762192   177.99066908
 C     23  22  20     1.523207311760   108.21825530    62.65460973
 C     31  23  22     1.373450587025   128.41877507    87.29727352
 C     32  31  23     1.428087476697   112.85692240   189.66590008
 C     33  32  31     1.373899895043   113.73695525     0.15334933
 C     34  33  32     1.500936510882   128.41186478   180.05466801
 C     35  34  33     1.532726652016   114.49179487   126.73509445
 S     31  23  22     1.745184459190   120.01378840   277.26240868
 C     23  22  20     1.544662930351   100.41737473   177.41113626
 C     38  23  22     1.422967953153   110.81185892   356.69943532
 C     22  20  19     1.387292995765   111.85583587   358.52354713
 S     40  22  20     1.741679287843   114.04787163     0.98279191
 C     39  38  23     1.404077268600   121.41811842   186.53630628
 C     42  39  38     1.385336163969   117.55428929   359.89062952
 C     43  42  39     1.545810489064   128.03721303   170.98975738
 C     44  43  42     1.524001084350   108.21582846   294.04163867
 C     45  44  43     1.373041077827   127.85277893   268.69939524
 C     46  45  44     1.427433436347   113.11935880   172.52598440
 C     47  46  45     1.373049251156   113.67395197   359.72094903
 C     48  47  46     1.499580807759   128.39377293   180.12335896
 C     49  48  47     1.534286083721   114.29608163   120.50718877
 S     45  44  43     1.748595912668   121.02771402    80.97837172
 C     44  43  42     1.514403843696   114.73706698    60.37348046
 C     52  44  43     1.373650182943   127.75939090   199.06008460
 C     53  52  44     1.428667428515   112.93482598   185.63714924
 C     54  53  52     1.374660635539   113.57566275     0.40259258
 C     55  54  53     1.501791848093   128.69955094   181.33758324
 C     56  55  54     1.534541328052   114.01074815   122.54008575
 S     52  44  43     1.742087560917   121.05929178    25.61534157
 C     44  43  42     1.519526358903   100.29827697   180.54787168
 C     59  44  43     1.386672628417   111.14107178     4.36258655
 C     43  42  39     1.424100808862   121.00101406   357.33090841
 C     38  23  22     1.385667946732   128.11614222   180.85321622
 S     60  59  44     1.742874971161   113.76232467   172.34106222
 C     63  60  59     1.758518946500    89.77158129   358.60514058
 C     59  44  43     1.403543969885   136.00228545   172.58812413
 S     65  59  44     1.727847999131   135.26830453     5.63651689
 C     66  65  59     1.768760671035    90.80207282   188.42143249
 C     67  66  65     1.396535090322   111.95516993   356.09523951
 C     67  66  65     1.425649752674   122.44841987   174.81742161
 C     69  67  66     1.370172238261   130.09514972   335.81061423
 C     70  69  67     1.461322819024   133.49876461   345.82950675
 C     71  70  69     1.383340888718   126.61902714   328.86563958
 C     72  71  70     1.429599641648   123.13267891   179.13685215
 N     73  72  71     1.162485777031   177.80607115   220.82197869
 C     72  71  70     1.429845928553   122.50189757   354.04215042
 N     75  72  71     1.161853693500   176.42042375   240.66851062
 C     71  70  69     1.483139941273   106.96897003   160.74907131
 C     77  71  70     1.399591458819   131.81434750   188.21748442
 C     78  77  71     1.399996289067   118.38345752   183.77564013
 C     79  78  77     1.402125831800   121.62150606     0.84690665
 C     80  79  78     1.398246018017   120.25655027   359.06236393
 C     81  80  79     1.389837461216   118.14068771   359.95820109
 C     82  81  80     1.487641771496   128.26144945   181.69460020
 O     83  82  81     1.213084174367   127.61129134   358.20556534
 H      4   3   1     1.091575388006   119.87951232   357.99878539
 H      5   4   3     1.092492692790   120.26696344   180.26042279
 H      6   5   4     1.092642690910   119.14757289   180.38568937
 H      7   6   5     1.088233252065   119.92732730   180.28068967
 H     16  15   9     1.098031920028   112.54304087   184.47373649
 H     18  17  16     1.089950248910   122.14036640     5.90490766
 H     25  24  23     1.089801195907   123.65328813     3.44065556
 H     26  25  24     1.090997726395   123.46200656   179.97580801
 H     28  27  26     1.101983326779   107.66995261    16.78925705
 H     28  27  26     1.106112719798   108.86650169   262.42058252
 H     29  28  27     1.100942626207   111.34175494   299.57461526
 H     29  28  27     1.101078589520   110.61986848   178.87114806
 H     29  28  27     1.102013474918   111.31512538    59.39983516
 H     32  31  23     1.089999381422   123.02665575     9.22468871
 H     33  32  31     1.091422735057   123.60248169   180.27461296
 H     35  34  33     1.102113698536   107.21279235     4.26972865
 H     35  34  33     1.104795970349   109.48790867   249.70051238
 H     36  35  34     1.100758740551   111.02281439   302.39870180
 H     36  35  34     1.101022919198   110.91788944   181.87972931
 H     36  35  34     1.101731900464   111.32445678    62.17640328
 H     42  39  38     1.091564897704   121.18302883   177.15780745
 H     46  45  44     1.088117754427   123.96087871   352.71733034
 H     47  46  45     1.091247557660   123.07881002   178.77672023
 H     49  48  47     1.101800363950   107.01987008   358.37681184
 H     49  48  47     1.104123108036   109.66285700   243.68516348
 H     50  49  48     1.101043049022   111.02414247   301.59223866
 H     50  49  48     1.100971043852   110.96903279   181.38416387
 H     50  49  48     1.101822725215   111.33187619    61.49968735
 H     53  52  44     1.090073346064   122.81350979     6.56322765
 H     54  53  52     1.091402812897   123.83767022   180.99815199
 H     56  55  54     1.101953923311   107.42783826     0.27257819
 H     56  55  54     1.105187318829   109.76370334   245.59308047
 H     57  56  55     1.100693389550   110.97649096   304.58907495
 H     57  56  55     1.101410262073   110.93977637   184.27504433
 H     57  56  55     1.101476087530   111.16112862    64.29472246
 H     62  38  23     1.091193949855   121.31660297   355.35877804
 H     68  67  66     1.090341652373   122.27175576   179.77669430
 H     69  67  66     1.098199028637   115.80759731   151.82730644
 H     78  77  71     1.088417958369   121.75095624     3.86403618
 H     79  78  77     1.092215674398   119.03306797   180.03681571
 H     80  79  78     1.092644163532   119.51652202   179.09053514
 H     81  80  79     1.091464862788   122.11483550   180.18077105

---------------------------
INTERNAL COORDINATES (A.U.)
---------------------------
 C      0   0   0     0.000000000000     0.00000000     0.00000000
 O      1   0   0     2.293748207417     0.00000000     0.00000000
 C      1   2   0     2.813090251255   127.50427006     0.00000000
 C      3   1   2     2.626828058062   128.30431514     2.99368997
 C      4   3   1     2.643493835967   118.18460178   177.79748491
 C      5   4   3     2.649588266860   120.21529779     0.31844299
 C      6   5   4     2.647652038387   121.60881250     0.26799317
 C      7   6   5     2.645601515126   118.42673264   359.39651192
 C      8   7   6     2.808292214234   131.93973119   178.31455838
 C      9   8   7     2.615979584991   125.49153243   341.10746208
 C     10   9   8     2.702142007980   122.50356705   199.26204739
 N     11  10   9     2.196171292537   177.21907293   118.53123529
 C     10   9   8     2.700475763692   122.51133308    13.74028866
 N     13  10   9     2.196538906744   178.74748551   111.28247773
 C      9   8   7     2.750778316847   107.05659206   171.16371467
 C     15   9   8     2.595760665095   134.22283906   205.36788004
 C     16  15   9     2.683623023940   133.00599384    13.82465613
 C     17  16  15     2.649400625103   123.83945469   179.84095390
 C     18  17  16     2.647700174420   112.24016027   186.23428063
 C     19  18  17     2.677954560923   113.42137048     0.86830114
 S     20  19  18     3.262143917642   111.66131409     0.40772892
 C     20  19  18     2.656493630564   112.64513131   180.57217893
 C     22  20  19     2.877039771496   137.13837938   183.49462188
 C     23  22  20     2.863494010468   111.47130456   297.50569910
 C     24  23  22     2.596590783267   129.00712810   355.12884144
 C     25  24  23     2.701187334877   113.02216359   183.53299496
 C     26  25  24     2.595576467623   113.63091621     0.40701795
 C     27  26  25     2.838235224906   128.84149156   176.23947498
 C     28  27  26     2.892601897479   114.85553911   139.88162930
 S     24  23  22     3.298662534765   120.25762192   177.99066908
 C     23  22  20     2.878444664413   108.21825530    62.65460973
 C     31  23  22     2.595445467951   128.41877507    87.29727352
 C     32  31  23     2.698694226241   112.85692240   189.66590008
 C     33  32  31     2.596294537055   113.73695525     0.15334933
 C     34  33  32     2.836358949971   128.41186478   180.05466801
 C     35  34  33     2.896433610472   114.49179487   126.73509445
 S     31  23  22     3.297920681045   120.01378840   277.26240868
 C     23  22  20     2.918989907583   100.41737473   177.41113626
 C     38  23  22     2.689019728805   110.81185892   356.69943532
 C     22  20  19     2.621603829504   111.85583587   358.52354713
 S     40  22  20     3.291296867146   114.04787163     0.98279191
 C     39  38  23     2.653321508519   121.41811842   186.53630628
 C     42  39  38     2.617905953318   117.55428929   359.89062952
 C     43  42  39     2.921158479274   128.03721303   170.98975738
 C     44  43  42     2.879944677221   108.21582846   294.04163867
 C     45  44  43     2.594671607717   127.85277893   268.69939524
 C     46  45  44     2.697458269097   113.11935880   172.52598440
 C     47  46  45     2.594687053070   113.67395197   359.72094903
 C     48  47  46     2.833797042349   128.39377293   180.12335896
 C     49  48  47     2.899380509319   114.29608163   120.50718877
 S     45  44  43     3.304367393837   121.02771402    80.97837172
 C     44  43  42     2.861808520742   114.73706698    60.37348046
 C     52  44  43     2.595822649574   127.75939090   199.06008460
 C     53  52  44     2.699790176347   112.93482598   185.63714924
 C     54  53  52     2.597732128251   113.57566275     0.40259258
 C     55  54  53     2.837975303052   128.69955094   181.33758324
 C     56  55  54     2.899862851202   114.01074815   122.54008575
 S     52  44  43     3.292068391443   121.05929178    25.61534157
 C     44  43  42     2.871488671601   100.29827697   180.54787168
 C     59  44  43     2.620431505112   111.14107178     4.36258655
 C     43  42  39     2.691160515844   121.00101406   357.33090841
 C     38  23  22     2.618532931876   128.11614222   180.85321622
 S     60  59  44     3.293556381160   113.76232467   172.34106222
 C     63  60  59     3.323119210197    89.77158129   358.60514058
 C     59  44  43     2.652313719999   136.00228545   172.58812413
 S     65  59  44     3.265159519401   135.26830453     5.63651689
 C     66  65  59     3.342473264707    90.80207282   188.42143249
 C     67  66  65     2.639068857119   111.95516993   356.09523951
 C     67  66  65     2.694087595447   122.44841987   174.81742161
 C     69  67  66     2.589250286614   130.09514972   335.81061423
 C     70  69  67     2.761499921205   133.49876461   345.82950675
 C     71  70  69     2.614135429533   126.61902714   328.86563958
 C     72  71  70     2.701551803867   123.13267891   179.13685215
 N     73  72  71     2.196779753168   177.80607115   220.82197869
 C     72  71  70     2.702017218668   122.50189757   354.04215042
 N     75  72  71     2.195585288400   176.42042375   240.66851062
 C     71  70  69     2.802728307286   106.96897003   160.74907131
 C     77  71  70     2.644844556544   131.81434750   188.21748442
 C     78  77  71     2.645609574842   118.38345752   183.77564013
 C     79  78  77     2.649633827398   121.62150606     0.84690665
 C     80  79  78     2.642302041898   120.25655027   359.06236393
 C     81  80  79     2.626412172363   118.14068771   359.95820109
 C     82  81  80     2.811235533509   128.26144945   181.69460020
 O     83  82  81     2.292396866948   127.61129134   358.20556534
 H      4   3   1     2.062778537860   119.87951232   357.99878539
 H      5   4   3     2.064511992684   120.26696344   180.26042279
 H      6   5   4     2.064795448051   119.14757289   180.38568937
 H      7   6   5     2.056462816229   119.92732730   180.28068967
 H     16  15   9     2.074979615156   112.54304087   184.47373649
 H     18  17  16     2.059707470040   122.14036640     5.90490766
 H     25  24  23     2.059425800684   123.65328813     3.44065556
 H     26  25  24     2.061686915618   123.46200656   179.97580801
 H     28  27  26     2.082446691761   107.66995261    16.78925705
 H     28  27  26     2.090250113666   108.86650169   262.42058252
 H     29  28  27     2.080480052692   111.34175494   299.57461526
 H     29  28  27     2.080736986118   110.61986848   178.87114806
 H     29  28  27     2.082503663485   111.31512538    59.39983516
 H     32  31  23     2.059800317031   123.02665575     9.22468871
 H     33  32  31     2.062490065594   123.60248169   180.27461296
 H     35  34  33     2.082693058675   107.21279235     4.26972865
 H     35  34  33     2.087761817820   109.48790867   249.70051238
 H     36  35  34     2.080132559162   111.02281439   302.39870180
 H     36  35  34     2.080631784455   110.91788944   181.87972931
 H     36  35  34     2.081971564882   111.32445678    62.17640328
 H     42  39  38     2.062758714063   121.18302883   177.15780745
 H     46  45  44     2.056244557325   123.96087871   352.71733034
 H     47  46  45     2.062159028289   123.07881002   178.77672023
 H     49  48  47     2.082100942120   107.01987008   358.37681184
 H     49  48  47     2.086490292323   109.66285700   243.68516348
 H     50  49  48     2.080669824310   111.02414247   301.59223866
 H     50  49  48     2.080533754257   110.96903279   181.38416387
 H     50  49  48     2.082143198787   111.33187619    61.49968735
 H     53  52  44     2.059940089949   122.81350979     6.56322765
 H     54  53  52     2.062452418167   123.83767022   180.99815199
 H     56  55  54     2.082391127257   107.42783826     0.27257819
 H     56  55  54     2.088501359269   109.76370334   245.59308047
 H     57  56  55     2.080009063668   110.97649096   304.58907495
 H     57  56  55     2.081363756409   110.93977637   184.27504433
 H     57  56  55     2.081488148494   111.16112862    64.29472246
 H     62  38  23     2.062057724218   121.31660297   355.35877804
 H     68  67  66     2.060447115393   122.27175576   179.77669430
 H     69  67  66     2.075295404663   115.80759731   151.82730644
 H     78  77  71     2.056811860559   121.75095624     3.86403618
 H     79  78  77     2.063988503788   119.03306797   180.03681571
 H     80  79  78     2.064798230902   119.51652202   179.09053514
 H     81  80  79     2.062569675467   122.11483550   180.18077105

---------------------
BASIS SET INFORMATION
---------------------
There are 5 groups of distinct atoms

 Group   1 Type C   : 11s6p2d1f contracted to 5s3p2d1f pattern {62111/411/11/1}
 Group   2 Type O   : 11s6p2d1f contracted to 5s3p2d1f pattern {62111/411/11/1}
 Group   3 Type N   : 11s6p2d1f contracted to 5s3p2d1f pattern {62111/411/11/1}
 Group   4 Type S   : 14s9p3d1f contracted to 5s5p2d1f pattern {73211/51111/21/1}
 Group   5 Type H   : 5s1p contracted to 3s1p pattern {311/1}

Atom   0C    basis set group =>   1
Atom   1O    basis set group =>   2
Atom   2C    basis set group =>   1
Atom   3C    basis set group =>   1
Atom   4C    basis set group =>   1
Atom   5C    basis set group =>   1
Atom   6C    basis set group =>   1
Atom   7C    basis set group =>   1
Atom   8C    basis set group =>   1
Atom   9C    basis set group =>   1
Atom  10C    basis set group =>   1
Atom  11N    basis set group =>   3
Atom  12C    basis set group =>   1
Atom  13N    basis set group =>   3
Atom  14C    basis set group =>   1
Atom  15C    basis set group =>   1
Atom  16C    basis set group =>   1
Atom  17C    basis set group =>   1
Atom  18C    basis set group =>   1
Atom  19C    basis set group =>   1
Atom  20S    basis set group =>   4
Atom  21C    basis set group =>   1
Atom  22C    basis set group =>   1
Atom  23C    basis set group =>   1
Atom  24C    basis set group =>   1
Atom  25C    basis set group =>   1
Atom  26C    basis set group =>   1
Atom  27C    basis set group =>   1
Atom  28C    basis set group =>   1
Atom  29S    basis set group =>   4
Atom  30C    basis set group =>   1
Atom  31C    basis set group =>   1
Atom  32C    basis set group =>   1
Atom  33C    basis set group =>   1
Atom  34C    basis set group =>   1
Atom  35C    basis set group =>   1
Atom  36S    basis set group =>   4
Atom  37C    basis set group =>   1
Atom  38C    basis set group =>   1
Atom  39C    basis set group =>   1
Atom  40S    basis set group =>   4
Atom  41C    basis set group =>   1
Atom  42C    basis set group =>   1
Atom  43C    basis set group =>   1
Atom  44C    basis set group =>   1
Atom  45C    basis set group =>   1
Atom  46C    basis set group =>   1
Atom  47C    basis set group =>   1
Atom  48C    basis set group =>   1
Atom  49C    basis set group =>   1
Atom  50S    basis set group =>   4
Atom  51C    basis set group =>   1
Atom  52C    basis set group =>   1
Atom  53C    basis set group =>   1
Atom  54C    basis set group =>   1
Atom  55C    basis set group =>   1
Atom  56C    basis set group =>   1
Atom  57S    basis set group =>   4
Atom  58C    basis set group =>   1
Atom  59C    basis set group =>   1
Atom  60C    basis set group =>   1
Atom  61C    basis set group =>   1
Atom  62S    basis set group =>   4
Atom  63C    basis set group =>   1
Atom  64C    basis set group =>   1
Atom  65S    basis set group =>   4
Atom  66C    basis set group =>   1
Atom  67C    basis set group =>   1
Atom  68C    basis set group =>   1
Atom  69C    basis set group =>   1
Atom  70C    basis set group =>   1
Atom  71C    basis set group =>   1
Atom  72C    basis set group =>   1
Atom  73N    basis set group =>   3
Atom  74C    basis set group =>   1
Atom  75N    basis set group =>   3
Atom  76C    basis set group =>   1
Atom  77C    basis set group =>   1
Atom  78C    basis set group =>   1
Atom  79C    basis set group =>   1
Atom  80C    basis set group =>   1
Atom  81C    basis set group =>   1
Atom  82C    basis set group =>   1
Atom  83O    basis set group =>   2
Atom  84H    basis set group =>   5
Atom  85H    basis set group =>   5
Atom  86H    basis set group =>   5
Atom  87H    basis set group =>   5
Atom  88H    basis set group =>   5
Atom  89H    basis set group =>   5
Atom  90H    basis set group =>   5
Atom  91H    basis set group =>   5
Atom  92H    basis set group =>   5
Atom  93H    basis set group =>   5
Atom  94H    basis set group =>   5
Atom  95H    basis set group =>   5
Atom  96H    basis set group =>   5
Atom  97H    basis set group =>   5
Atom  98H    basis set group =>   5
Atom  99H    basis set group =>   5
Atom 100H    basis set group =>   5
Atom 101H    basis set group =>   5
Atom 102H    basis set group =>   5
Atom 103H    basis set group =>   5
Atom 104H    basis set group =>   5
Atom 105H    basis set group =>   5
Atom 106H    basis set group =>   5
Atom 107H    basis set group =>   5
Atom 108H    basis set group =>   5
Atom 109H    basis set group =>   5
Atom 110H    basis set group =>   5
Atom 111H    basis set group =>   5
Atom 112H    basis set group =>   5
Atom 113H    basis set group =>   5
Atom 114H    basis set group =>   5
Atom 115H    basis set group =>   5
Atom 116H    basis set group =>   5
Atom 117H    basis set group =>   5
Atom 118H    basis set group =>   5
Atom 119H    basis set group =>   5
Atom 120H    basis set group =>   5
Atom 121H    basis set group =>   5
Atom 122H    basis set group =>   5
Atom 123H    basis set group =>   5
Atom 124H    basis set group =>   5
Atom 125H    basis set group =>   5
---------------------------------
AUXILIARY/J BASIS SET INFORMATION
---------------------------------
There are 5 groups of distinct atoms

 Group   1 Type C   : 12s5p4d2f1g contracted to 6s4p3d1f1g pattern {711111/2111/211/2/1}
 Group   2 Type O   : 12s5p4d2f1g contracted to 6s4p3d1f1g pattern {711111/2111/211/2/1}
 Group   3 Type N   : 12s5p4d2f1g contracted to 6s4p3d1f1g pattern {711111/2111/211/2/1}
 Group   4 Type S   : 14s5p5d2f1g contracted to 8s4p3d1f1g pattern {71111111/2111/311/2/1}
 Group   5 Type H   : 5s2p1d contracted to 3s1p1d pattern {311/2/1}

Atom   0C    basis set group =>   1
Atom   1O    basis set group =>   2
Atom   2C    basis set group =>   1
Atom   3C    basis set group =>   1
Atom   4C    basis set group =>   1
Atom   5C    basis set group =>   1
Atom   6C    basis set group =>   1
Atom   7C    basis set group =>   1
Atom   8C    basis set group =>   1
Atom   9C    basis set group =>   1
Atom  10C    basis set group =>   1
Atom  11N    basis set group =>   3
Atom  12C    basis set group =>   1
Atom  13N    basis set group =>   3
Atom  14C    basis set group =>   1
Atom  15C    basis set group =>   1
Atom  16C    basis set group =>   1
Atom  17C    basis set group =>   1
Atom  18C    basis set group =>   1
Atom  19C    basis set group =>   1
Atom  20S    basis set group =>   4
Atom  21C    basis set group =>   1
Atom  22C    basis set group =>   1
Atom  23C    basis set group =>   1
Atom  24C    basis set group =>   1
Atom  25C    basis set group =>   1
Atom  26C    basis set group =>   1
Atom  27C    basis set group =>   1
Atom  28C    basis set group =>   1
Atom  29S    basis set group =>   4
Atom  30C    basis set group =>   1
Atom  31C    basis set group =>   1
Atom  32C    basis set group =>   1
Atom  33C    basis set group =>   1
Atom  34C    basis set group =>   1
Atom  35C    basis set group =>   1
Atom  36S    basis set group =>   4
Atom  37C    basis set group =>   1
Atom  38C    basis set group =>   1
Atom  39C    basis set group =>   1
Atom  40S    basis set group =>   4
Atom  41C    basis set group =>   1
Atom  42C    basis set group =>   1
Atom  43C    basis set group =>   1
Atom  44C    basis set group =>   1
Atom  45C    basis set group =>   1
Atom  46C    basis set group =>   1
Atom  47C    basis set group =>   1
Atom  48C    basis set group =>   1
Atom  49C    basis set group =>   1
Atom  50S    basis set group =>   4
Atom  51C    basis set group =>   1
Atom  52C    basis set group =>   1
Atom  53C    basis set group =>   1
Atom  54C    basis set group =>   1
Atom  55C    basis set group =>   1
Atom  56C    basis set group =>   1
Atom  57S    basis set group =>   4
Atom  58C    basis set group =>   1
Atom  59C    basis set group =>   1
Atom  60C    basis set group =>   1
Atom  61C    basis set group =>   1
Atom  62S    basis set group =>   4
Atom  63C    basis set group =>   1
Atom  64C    basis set group =>   1
Atom  65S    basis set group =>   4
Atom  66C    basis set group =>   1
Atom  67C    basis set group =>   1
Atom  68C    basis set group =>   1
Atom  69C    basis set group =>   1
Atom  70C    basis set group =>   1
Atom  71C    basis set group =>   1
Atom  72C    basis set group =>   1
Atom  73N    basis set group =>   3
Atom  74C    basis set group =>   1
Atom  75N    basis set group =>   3
Atom  76C    basis set group =>   1
Atom  77C    basis set group =>   1
Atom  78C    basis set group =>   1
Atom  79C    basis set group =>   1
Atom  80C    basis set group =>   1
Atom  81C    basis set group =>   1
Atom  82C    basis set group =>   1
Atom  83O    basis set group =>   2
Atom  84H    basis set group =>   5
Atom  85H    basis set group =>   5
Atom  86H    basis set group =>   5
Atom  87H    basis set group =>   5
Atom  88H    basis set group =>   5
Atom  89H    basis set group =>   5
Atom  90H    basis set group =>   5
Atom  91H    basis set group =>   5
Atom  92H    basis set group =>   5
Atom  93H    basis set group =>   5
Atom  94H    basis set group =>   5
Atom  95H    basis set group =>   5
Atom  96H    basis set group =>   5
Atom  97H    basis set group =>   5
Atom  98H    basis set group =>   5
Atom  99H    basis set group =>   5
Atom 100H    basis set group =>   5
Atom 101H    basis set group =>   5
Atom 102H    basis set group =>   5
Atom 103H    basis set group =>   5
Atom 104H    basis set group =>   5
Atom 105H    basis set group =>   5
Atom 106H    basis set group =>   5
Atom 107H    basis set group =>   5
Atom 108H    basis set group =>   5
Atom 109H    basis set group =>   5
Atom 110H    basis set group =>   5
Atom 111H    basis set group =>   5
Atom 112H    basis set group =>   5
Atom 113H    basis set group =>   5
Atom 114H    basis set group =>   5
Atom 115H    basis set group =>   5
Atom 116H    basis set group =>   5
Atom 117H    basis set group =>   5
Atom 118H    basis set group =>   5
Atom 119H    basis set group =>   5
Atom 120H    basis set group =>   5
Atom 121H    basis set group =>   5
Atom 122H    basis set group =>   5
Atom 123H    basis set group =>   5
Atom 124H    basis set group =>   5
Atom 125H    basis set group =>   5


           ************************************************************
           *        Program running with 6 parallel MPI-processes     *
           *              working on a common directory               *
           ************************************************************
------------------------------------------------------------------------------
                           ORCA GTO INTEGRAL CALCULATION
                           -- RI-GTO INTEGRALS CHOSEN --
------------------------------------------------------------------------------

                         BASIS SET STATISTICS AND STARTUP INFO

Gaussian basis set:
 # of primitive gaussian shells          ... 1988
 # of primitive gaussian functions       ... 4336
 # of contracted shells                  ... 1108
 # of contracted basis functions         ... 2904
 Highest angular momentum                ...    3
 Maximum contraction depth               ...    7
Auxiliary gaussian basis set:
 # of primitive gaussian shells          ... 2376
 # of primitive gaussian functions       ... 6608
 # of contracted shells                  ... 1486
 # of contracted aux-basis functions     ... 4594
 Highest angular momentum                ...    4
 Maximum contraction depth               ...    7
Ratio of auxiliary to basis functions    ...  1.58
Integral package used                  ... LIBINT
 One Electron integrals                  ... done
 Ordering auxiliary basis shells         ... done
 Integral threshhold             Thresh  ...  2.500e-11
 Primitive cut-off               TCut    ...  2.500e-12
 Pre-screening matrix                    ... done
 Shell pair data                         ... 
 Ordering of the shell pairs             ... done (   0.040 sec) 202394 of 614386 pairs
 Determination of significant pairs      ... done (   0.001 sec)
 Creation of shell pair data             ... done (   0.026 sec)
 Storage of shell pair data              ... done (   0.030 sec)
 Shell pair data done in (   0.097 sec)
 Computing two index integrals           ... done
 Cholesky decomposition of the V-matrix  ... done


Timings:
 Total evaluation time                   ...   9.978 sec (  0.166 min)
 One electron matrix time                ...   3.435 sec (  0.057 min) = 34.4%
 Schwartz matrix evaluation time         ...   4.941 sec (  0.082 min) = 49.5%
 Two index repulsion integral time       ...   0.598 sec (  0.010 min) =  6.0%
 Cholesky decomposition of V             ...   0.890 sec (  0.015 min) =  8.9%
 Three index repulsion integral time     ...   0.000 sec (  0.000 min) =  0.0%



           ************************************************************
           *        Program running with 6 parallel MPI-processes     *
           *              working on a common directory               *
           ************************************************************
-------------------------------------------------------------------------------
                                 ORCA SCF
-------------------------------------------------------------------------------

------------
SCF SETTINGS
------------
Hamiltonian:
 Density Functional     Method          .... DFT(GTOs)
 Exchange Functional    Exchange        .... B88
   X-Alpha parameter    XAlpha          ....  0.666667
   Becke's b parameter  XBeta           ....  0.004200
 Correlation Functional Correlation     .... LYP
 LDA part of GGA corr.  LDAOpt          .... VWN-5
 Gradients option       PostSCFGGA      .... off
 Hybrid DFT is turned on
   Fraction HF Exchange ScalHFX         ....  0.200000
   Scaling of DF-GGA-X  ScalDFX         ....  0.720000
   Scaling of DF-GGA-C  ScalDFC         ....  0.810000
   Scaling of DF-LDA-C  ScalLDAC        ....  1.000000
   Perturbative correction              ....  0.000000
   Density functional embedding theory  .... OFF
   NL short-range parameter             ....  4.800000
 RI-approximation to the Coulomb term is turned on
   Number of auxiliary basis functions  .... 4594
   RIJ-COSX (HFX calculated with COS-X)).... on


General Settings:
 Integral files         IntName         .... ITIC-Th
 Hartree-Fock type      HFTyp           .... RHF
 Total Charge           Charge          ....    0
 Multiplicity           Mult            ....    1
 Number of Electrons    NEL             ....  634
 Basis Dimension        Dim             .... 2904
 Nuclear Repulsion      ENuc            ....  15820.3981358932 Eh

Convergence Acceleration:
 DIIS                   CNVDIIS         .... on
   Start iteration      DIISMaxIt       ....    12
   Startup error        DIISStart       ....  0.200000
   # of expansion vecs  DIISMaxEq       ....     5
   Bias factor          DIISBfac        ....   1.050
   Max. coefficient     DIISMaxC        ....  10.000
 Newton-Raphson         CNVNR           .... off
 SOSCF                  CNVSOSCF        .... on
   Start iteration      SOSCFMaxIt      ....   150
   Startup grad/error   SOSCFStart      ....  0.003300
 Level Shifting         CNVShift        .... on
   Level shift para.    LevelShift      ....    0.2500
   Turn off err/grad.   ShiftErr        ....    0.0010
 Zerner damping         CNVZerner       .... off
 Static damping         CNVDamp         .... on
   Fraction old density DampFac         ....    0.7000
   Max. Damping (<1)    DampMax         ....    0.9800
   Min. Damping (>=0)   DampMin         ....    0.0000
   Turn off err/grad.   DampErr         ....    0.1000
 Fernandez-Rico         CNVRico         .... off

SCF Procedure:
 Maximum # iterations   MaxIter         ....   125
 SCF integral mode      SCFMode         .... Direct
   Integral package                     .... LIBINT
 Reset frequency        DirectResetFreq ....    20
 Integral Threshold     Thresh          ....  2.500e-11 Eh
 Primitive CutOff       TCut            ....  2.500e-12 Eh

Convergence Tolerance:
 Convergence Check Mode ConvCheckMode   .... Total+1el-Energy
 Convergence forced     ConvForced      .... 1
 Energy Change          TolE            ....  1.000e-08 Eh
 1-El. energy change                    ....  1.000e-05 Eh
 Orbital Gradient       TolG            ....  1.000e-05
 Orbital Rotation angle TolX            ....  1.000e-05
 DIIS Error             TolErr          ....  5.000e-07


Diagonalization of the overlap matrix:
Smallest eigenvalue                        ... 3.159e-06
Time for diagonalization                   ...    1.434 sec
Threshold for overlap eigenvalues          ... 1.000e-08
Number of eigenvalues below threshold      ... 0
Time for construction of square roots      ...    1.113 sec
Total time needed                          ...    2.564 sec

-------------------
DFT GRID GENERATION
-------------------

General Integration Accuracy     IntAcc      ...  4.670
Radial Grid Type                 RadialGrid  ... Gauss-Chebyshev
Angular Grid (max. acc.)         AngularGrid ... Lebedev-302
Angular grid pruning method      GridPruning ... 3 (G Style)
Weight generation scheme         WeightScheme... Becke
Basis function cutoff            BFCut       ...    1.0000e-11
Integration weight cutoff        WCut        ...    1.0000e-14
Grids for H and He will be reduced by one unit

# of grid points (after initial pruning)     ... 669428 (   0.0 sec)
# of grid points (after weights+screening)   ... 563998 (  10.1 sec)
nearest neighbour list constructed           ...    0.0 sec
Grid point re-assignment to atoms done       ...    0.1 sec
Grid point division into batches done        ...    1.6 sec
Reduced shell lists constructed in    4.2 sec

Total number of grid points                  ...   563998
Total number of batches                      ...     8881
Average number of points per batch           ...       63
Average number of grid points per atom       ...     4476
Average number of shells per batch           ...   177.21 (15.99%)
Average number of basis functions per batch  ...   449.76 (15.49%)
Average number of large shells per batch     ...   102.95 (58.09%)
Average number of large basis fcns per batch ...   271.62 (60.39%)
Maximum spatial batch extension              ...  19.46, 18.94, 20.10 au
Average spatial batch extension              ...   0.29,  0.30,  0.32 au

Time for grid setup =   14.925 sec

------------------------------
INITIAL GUESS: MODEL POTENTIAL
------------------------------
Loading Hartree-Fock densities                     ... done
Calculating cut-offs                               ... done
Setting up the integral package                    ... done
Initializing the effective Hamiltonian             ... done
Starting the Coulomb interaction                   ... done (   7.2 sec)
Reading the grid                                   ... done
Mapping shells                                     ... done
Starting the XC term evaluation                    ... done (   5.6 sec)
  promolecular density results
     # of electrons  =    633.978997800
     EX              =   -615.216360445
     EC              =    -22.567966610
     EX+EC           =   -637.784327056
Transforming the Hamiltonian                       ... done (   1.0 sec)
Diagonalizing the Hamiltonian                      ... done (   1.5 sec)
Back transforming the eigenvectors                 ... done (   0.4 sec)
Now organizing SCF variables                       ... done
                      ------------------
                      INITIAL GUESS DONE (  31.1 sec)
                      ------------------
--------------------
COSX GRID GENERATION
--------------------

General Integration Accuracy     IntAcc      ...  3.340
Radial Grid Type                 RadialGrid  ... Gauss-Chebyshev
Angular Grid (max. acc.)         AngularGrid ... Lebedev-50
Angular grid pruning method      GridPruning ... 3 (G Style)
Weight generation scheme         WeightScheme... Becke
Basis function cutoff            BFCut       ...    1.0000e-11
Integration weight cutoff        WCut        ...    1.0000e-14
Grids for H and He will be reduced by one unit

# of grid points (after initial pruning)     ...  63112 (   0.0 sec)
# of grid points (after weights+screening)   ...  55878 (   0.9 sec)
nearest neighbour list constructed           ...    0.0 sec
Grid point re-assignment to atoms done       ...    0.0 sec
Grid point division into batches done        ...    0.0 sec
Reduced shell lists constructed in    0.4 sec

Total number of grid points                  ...    55878
Total number of batches                      ...      945
Average number of points per batch           ...       59
Average number of grid points per atom       ...      443
Average number of shells per batch           ...   211.48 (19.09%)
Average number of basis functions per batch  ...   539.82 (18.59%)
Average number of large shells per batch     ...   123.18 (58.24%)
Average number of large basis fcns per batch ...   327.81 (60.72%)
Maximum spatial batch extension              ...  14.16, 16.80, 16.48 au
Average spatial batch extension              ...   0.54,  0.70,  0.76 au

Overlap Fitting                  UseSFitting ... on
Constructing numerical overlap ... done (      0.5 sec)
Inverting numerical overlap    ... done (      0.4 sec)
Obtaining analytic overlap     ... done (      0.0 sec)
Final contraction and storage  ... done (      1.0 sec)


General Integration Accuracy     IntAcc      ...  3.670
Radial Grid Type                 RadialGrid  ... Gauss-Chebyshev
Angular Grid (max. acc.)         AngularGrid ... Lebedev-50
Angular grid pruning method      GridPruning ... 3 (G Style)
Weight generation scheme         WeightScheme... Becke
Basis function cutoff            BFCut       ...    1.0000e-11
Integration weight cutoff        WCut        ...    1.0000e-14
Grids for H and He will be reduced by one unit

# of grid points (after initial pruning)     ...  78976 (   0.0 sec)
# of grid points (after weights+screening)   ...  69629 (   1.1 sec)
nearest neighbour list constructed           ...    0.0 sec
Grid point re-assignment to atoms done       ...    0.0 sec
Grid point division into batches done        ...    0.0 sec
Reduced shell lists constructed in    0.4 sec

Total number of grid points                  ...    69629
Total number of batches                      ...     1147
Average number of points per batch           ...       60
Average number of grid points per atom       ...      553
Average number of shells per batch           ...   209.19 (18.88%)
Average number of basis functions per batch  ...   533.89 (18.38%)
Average number of large shells per batch     ...   120.80 (57.75%)
Average number of large basis fcns per batch ...   321.31 (60.18%)
Maximum spatial batch extension              ...  15.58, 17.20, 16.61 au
Average spatial batch extension              ...   0.50,  0.62,  0.66 au

Overlap Fitting                  UseSFitting ... on
Constructing numerical overlap ... done (      0.6 sec)
Inverting numerical overlap    ... done (      0.4 sec)
Obtaining analytic overlap     ... done (      0.0 sec)
Final contraction and storage  ... done (      1.0 sec)


General Integration Accuracy     IntAcc      ...  4.010
Radial Grid Type                 RadialGrid  ... Gauss-Chebyshev
Angular Grid (max. acc.)         AngularGrid ... Lebedev-110
Angular grid pruning method      GridPruning ... 3 (G Style)
Weight generation scheme         WeightScheme... Becke
Basis function cutoff            BFCut       ...    1.0000e-11
Integration weight cutoff        WCut        ...    1.0000e-14
Grids for H and He will be reduced by one unit

# of grid points (after initial pruning)     ... 152588 (   0.0 sec)
# of grid points (after weights+screening)   ... 132804 (   2.4 sec)
nearest neighbour list constructed           ...    0.0 sec
Grid point re-assignment to atoms done       ...    0.0 sec
Grid point division into batches done        ...    0.1 sec
Reduced shell lists constructed in    0.8 sec

Total number of grid points                  ...   132804
Total number of batches                      ...     2135
Average number of points per batch           ...       62
Average number of grid points per atom       ...     1054
Average number of shells per batch           ...   193.67 (17.48%)
Average number of basis functions per batch  ...   493.73 (17.00%)
Average number of large shells per batch     ...   113.36 (58.53%)
Average number of large basis fcns per batch ...   300.97 (60.96%)
Maximum spatial batch extension              ...  15.24, 18.01, 17.22 au
Average spatial batch extension              ...   0.44,  0.49,  0.53 au

Overlap Fitting                  UseSFitting ... on
Constructing numerical overlap ... done (      1.0 sec)
Inverting numerical overlap    ... done (      0.4 sec)
Obtaining analytic overlap     ... done (      0.0 sec)
Final contraction and storage  ... done (      1.0 sec)

Time for X-Grid setup             =   13.010 sec
--------------
SCF ITERATIONS
--------------
ITER       Energy         Delta-E        Max-DP      RMS-DP      [F,P]     Damp
               ***  Starting incremental Fock matrix formation  ***
  0  -6244.3065662632   0.000000000000 0.28217071  0.00073296  0.3017616 0.7000
  1  -6245.3893079988  -1.082741735541 0.14934715  0.00057773  0.1032167 0.7000
                               ***Turning on DIIS***
  2  -6245.7557103230  -0.366402324178 0.18204380  0.00084307  0.0482336 0.0000
  3  -6246.3817441823  -0.626033859286 0.14270645  0.00051744  0.0584544 0.0000
  4  -6246.5148210396  -0.133076857375 0.04979130  0.00018028  0.0401012 0.0000
  5  -6246.5337822336  -0.018961193946 0.03890419  0.00008747  0.0104773 0.0000
                      *** Initiating the SOSCF procedure ***
                           *** Shutting down DIIS ***
                      *** Re-Reading the Fockian *** 
                      *** Removing any level shift *** 
ITER      Energy       Delta-E        Grad      Rot      Max-DP    RMS-DP
  6  -6246.53497032  -0.0011880840  0.000991  0.000991  0.014163  0.000026
               *** Restarting incremental Fock matrix formation ***
  7  -6246.53512987  -0.0001595523  0.000654  0.007825  0.010292  0.000055
  8  -6246.53513111  -0.0000012413  0.000409  0.003994  0.004220  0.000021
  9  -6246.53516637  -0.0000352583  0.000258  0.003134  0.005541  0.000022
 10  -6246.53516688  -0.0000005106  0.000156  0.000456  0.001114  0.000004
 11  -6246.53517265  -0.0000057730  0.000062  0.000668  0.001633  0.000006
 12  -6246.53517125   0.0000014062  0.000110  0.000155  0.001015  0.000001
 13  -6246.53517302  -0.0000017721  0.000020  0.000371  0.001339  0.000003
 14  -6246.53517296   0.0000000556  0.000034  0.000145  0.000571  0.000001
 15  -6246.53517316  -0.0000001993  0.000013  0.000105  0.000416  0.000001
 16  -6246.53517295   0.0000002085  0.000025  0.000042  0.001245  0.000001
 17  -6246.53517310  -0.0000001445  0.000006  0.000050  0.000512  0.000001
 18  -6246.53517329  -0.0000001954  0.000010  0.000026  0.000246  0.000001
                  ***Gradient check signals convergence***
              ***Rediagonalizing the Fockian in SOSCF/NRSCF***

               *****************************************************
               *                     SUCCESS                       *
               *           SCF CONVERGED AFTER  19 CYCLES          *
               *****************************************************

Setting up the final grid:

General Integration Accuracy     IntAcc      ...  5.010
Radial Grid Type                 RadialGrid  ... Gauss-Chebyshev
Angular Grid (max. acc.)         AngularGrid ... Lebedev-434
Angular grid pruning method      GridPruning ... 3 (G Style)
Weight generation scheme         WeightScheme... Becke
Basis function cutoff            BFCut       ...    1.0000e-11
Integration weight cutoff        WCut        ...    1.0000e-14
Grids for H and He will be reduced by one unit

# of grid points (after initial pruning)     ... 1187888 (   0.1 sec)
# of grid points (after weights+screening)   ... 997830 (  17.3 sec)
nearest neighbour list constructed           ...    0.0 sec
Grid point re-assignment to atoms done       ...    0.2 sec
Grid point division into batches done        ...    5.3 sec
Reduced shell lists constructed in    9.8 sec

Total number of grid points                  ...   997830
Total number of batches                      ...    15656
Average number of points per batch           ...       63
Average number of grid points per atom       ...     7919
Average number of shells per batch           ...   173.75 (15.68%)
Average number of basis functions per batch  ...   440.42 (15.17%)
Average number of large shells per batch     ...   100.91 (58.08%)
Average number of large basis fcns per batch ...   265.88 (60.37%)
Maximum spatial batch extension              ...  15.70, 20.12, 19.19 au
Average spatial batch extension              ...   0.24,  0.25,  0.26 au

Final grid set up in   28.1 sec
Final integration                            ... done (  12.2 sec)
Change in XC energy                          ...    -0.000103572
Integrated number of electrons               ...   633.999947599
Previous integrated no of electrons          ...   633.999897581
Old exchange energy                            =   -124.166423190 Eh
New exchange energy                            =   -124.169432043 Eh
Exchange energy change after final integration =     -0.003008854 Eh
Total energy after final integration           =  -6246.538285449 Eh
Final COS-X integration done in                =   360.044 sec

----------------
TOTAL SCF ENERGY
----------------

Total Energy       :        -6246.53828545 Eh         -169976.94821 eV

Components:
Nuclear Repulsion  :        15820.39813589 Eh          430494.91922 eV
Electronic Energy  :       -22066.93642134 Eh         -600471.86742 eV
One Electron Energy:       -40098.58982086 Eh        -1091138.10141 eV
Two Electron Energy:        18031.65339952 Eh          490666.23399 eV

Virial components:
Potential Energy   :       -12472.73600519 Eh         -339400.40148 eV
Kinetic Energy     :         6226.19771974 Eh          169423.45328 eV
Virial Ratio       :            2.00326693


DFT components:
N(Alpha)           :      316.999973799372 electrons
N(Beta)            :      316.999973799372 electrons
N(Total)           :      633.999947598745 electrons
E(X)               :     -493.395180876075 Eh       
E(C)               :      -26.520025237435 Eh       
E(XC)              :     -519.915206113510 Eh       
DFET-embed. en.    :        0.000000000000 Eh       

---------------
SCF CONVERGENCE
---------------

  Last Energy change         ...    2.7045e-07  Tolerance :   1.0000e-08
  Last MAX-Density change    ...    5.7732e-15  Tolerance :   1.0000e-07
  Last RMS-Density change    ...    1.1886e-17  Tolerance :   5.0000e-09
  Last Orbital Gradient      ...    1.1859e-06  Tolerance :   1.0000e-05
  Last Orbital Rotation      ...    1.2551e-05  Tolerance :   1.0000e-05

             **** THE GBW FILE WAS UPDATED (ITIC-Th.gbw) ****
             **** DENSITY FILE WAS UPDATED (ITIC-Th.scfp) ****
             **** ENERGY FILE WAS UPDATED (ITIC-Th.en.tmp) ****
             **** THE GBW FILE WAS UPDATED (ITIC-Th.gbw) ****
             **** DENSITY FILE WAS UPDATED (ITIC-Th.scfp) ****
----------------
ORBITAL ENERGIES
----------------

  NO   OCC          E(Eh)            E(eV) 
   0   2.0000     -88.910502     -2419.3778 
   1   2.0000     -88.909479     -2419.3499 
   2   2.0000     -88.904877     -2419.2247 
   3   2.0000     -88.902204     -2419.1519 
   4   2.0000     -88.883750     -2418.6498 
   5   2.0000     -88.880707     -2418.5670 
   6   2.0000     -88.878825     -2418.5158 
   7   2.0000     -88.878506     -2418.5071 
   8   2.0000     -19.127764      -520.4929 
   9   2.0000     -19.123774      -520.3843 
  10   2.0000     -14.330015      -389.9395 
  11   2.0000     -14.327998      -389.8847 
  12   2.0000     -14.325751      -389.8235 
  13   2.0000     -14.323434      -389.7605 
  14   2.0000     -10.273971      -279.5690 
  15   2.0000     -10.270109      -279.4639 
  16   2.0000     -10.259113      -279.1647 
  17   2.0000     -10.255854      -279.0760 
  18   2.0000     -10.254997      -279.0527 
  19   2.0000     -10.251370      -278.9540 
  20   2.0000     -10.241017      -278.6722 
  21   2.0000     -10.240762      -278.6653 
  22   2.0000     -10.236059      -278.5373 
  23   2.0000     -10.234798      -278.5030 
  24   2.0000     -10.234625      -278.4983 
  25   2.0000     -10.233969      -278.4804 
  26   2.0000     -10.233282      -278.4618 
  27   2.0000     -10.232890      -278.4511 
  28   2.0000     -10.232868      -278.4505 
  29   2.0000     -10.231676      -278.4181 
  30   2.0000     -10.230088      -278.3748 
  31   2.0000     -10.229737      -278.3653 
  32   2.0000     -10.228560      -278.3333 
  33   2.0000     -10.225790      -278.2579 
  34   2.0000     -10.225536      -278.2510 
  35   2.0000     -10.223753      -278.2025 
  36   2.0000     -10.222898      -278.1792 
  37   2.0000     -10.219851      -278.0963 
  38   2.0000     -10.219689      -278.0919 
  39   2.0000     -10.217779      -278.0399 
  40   2.0000     -10.215673      -277.9826 
  41   2.0000     -10.214994      -277.9641 
  42   2.0000     -10.212959      -277.9087 
  43   2.0000     -10.212599      -277.8989 
  44   2.0000     -10.211418      -277.8668 
  45   2.0000     -10.210941      -277.8538 
  46   2.0000     -10.210445      -277.8403 
  47   2.0000     -10.210421      -277.8397 
  48   2.0000     -10.209928      -277.8263 
  49   2.0000     -10.209783      -277.8223 
  50   2.0000     -10.209617      -277.8178 
  51   2.0000     -10.209044      -277.8022 
  52   2.0000     -10.208498      -277.7873 
  53   2.0000     -10.208437      -277.7857 
  54   2.0000     -10.208185      -277.7788 
  55   2.0000     -10.208041      -277.7749 
  56   2.0000     -10.207506      -277.7604 
  57   2.0000     -10.207402      -277.7575 
  58   2.0000     -10.205959      -277.7183 
  59   2.0000     -10.205181      -277.6971 
  60   2.0000     -10.204956      -277.6910 
  61   2.0000     -10.204659      -277.6829 
  62   2.0000     -10.204220      -277.6709 
  63   2.0000     -10.204142      -277.6688 
[...]
   310a -> 320a  :     0.041765 (c= -0.20436500)
   311a -> 320a  :     0.044124 (c= -0.21005804)
   313a -> 320a  :     0.012321 (c= -0.11100225)
   316a -> 322a  :     0.013590 (c=  0.11657692)

STATE 45:  E=   0.130949 au      3.563 eV    28740.0 cm**-1
   299a -> 317a  :     0.117090 (c=  0.34218435)
   303a -> 317a  :     0.033874 (c=  0.18404827)
   303a -> 318a  :     0.116771 (c=  0.34171781)
   309a -> 319a  :     0.210203 (c= -0.45847900)
   309a -> 320a  :     0.020667 (c= -0.14375899)
   310a -> 319a  :     0.138743 (c=  0.37248185)
   310a -> 320a  :     0.139999 (c= -0.37416461)
   311a -> 320a  :     0.011213 (c= -0.10589022)
   315a -> 321a  :     0.011042 (c= -0.10508057)
   316a -> 323a  :     0.112833 (c=  0.33590646)

STATE 46:  E=   0.131392 au      3.575 eV    28837.3 cm**-1
   299a -> 317a  :     0.392711 (c=  0.62666682)
   309a -> 319a  :     0.036871 (c=  0.19201919)
   310a -> 319a  :     0.079542 (c= -0.28203111)
   310a -> 320a  :     0.095615 (c=  0.30921706)
   311a -> 320a  :     0.020428 (c=  0.14292489)
   314a -> 321a  :     0.017028 (c=  0.13049227)
   316a -> 321a  :     0.010449 (c= -0.10222225)
   316a -> 323a  :     0.253428 (c=  0.50341676)

STATE 47:  E=   0.131982 au      3.591 eV    28966.7 cm**-1
   298a -> 317a  :     0.012646 (c=  0.11245655)
   298a -> 318a  :     0.014084 (c=  0.11867760)
   301a -> 317a  :     0.012091 (c= -0.10995858)
   302a -> 317a  :     0.033339 (c=  0.18259009)
   302a -> 320a  :     0.040754 (c= -0.20187558)
   303a -> 317a  :     0.034812 (c=  0.18658044)
   303a -> 318a  :     0.045801 (c=  0.21401115)
   304a -> 318a  :     0.019498 (c=  0.13963580)
   306a -> 318a  :     0.019938 (c=  0.14120296)
   306a -> 320a  :     0.012362 (c= -0.11118564)
   307a -> 318a  :     0.011831 (c= -0.10877181)
   307a -> 320a  :     0.028407 (c=  0.16854276)
   309a -> 319a  :     0.120562 (c= -0.34722061)
   310a -> 319a  :     0.208163 (c= -0.45624870)
   310a -> 320a  :     0.185701 (c=  0.43093039)
   311a -> 320a  :     0.035779 (c= -0.18915337)
   313a -> 320a  :     0.015345 (c= -0.12387540)
   316a -> 321a  :     0.011083 (c=  0.10527662)
   316a -> 322a  :     0.013418 (c=  0.11583452)

STATE 48:  E=   0.133616 au      3.636 eV    29325.4 cm**-1
   301a -> 317a  :     0.280656 (c= -0.52976959)
   301a -> 318a  :     0.044772 (c=  0.21159333)
   303a -> 318a  :     0.401736 (c= -0.63382660)
   305a -> 318a  :     0.013076 (c=  0.11435176)
   309a -> 319a  :     0.033043 (c= -0.18177867)
   313a -> 321a  :     0.010750 (c= -0.10368175)
   315a -> 321a  :     0.094323 (c= -0.30712090)
   316a -> 321a  :     0.011503 (c=  0.10725192)
   316a -> 323a  :     0.014923 (c=  0.12216029)

STATE 49:  E=   0.134661 au      3.664 eV    29554.8 cm**-1
   297a -> 317a  :     0.017156 (c= -0.13098193)
   299a -> 317a  :     0.025596 (c= -0.15998764)
   300a -> 317a  :     0.013350 (c=  0.11554021)
   300a -> 319a  :     0.012157 (c=  0.11025780)
   301a -> 317a  :     0.018031 (c= -0.13428020)
   303a -> 318a  :     0.058533 (c=  0.24193680)
   303a -> 319a  :     0.019345 (c= -0.13908520)
   308a -> 319a  :     0.037392 (c=  0.19336993)
   309a -> 319a  :     0.139097 (c=  0.37295676)
   310a -> 319a  :     0.039380 (c= -0.19844294)
   310a -> 320a  :     0.026479 (c= -0.16272383)
   314a -> 321a  :     0.127688 (c=  0.35733510)
   315a -> 321a  :     0.366225 (c= -0.60516515)

STATE 50:  E=   0.135047 au      3.675 eV    29639.5 cm**-1
   297a -> 317a  :     0.027434 (c= -0.16563350)
   299a -> 317a  :     0.039935 (c=  0.19983681)
   300a -> 317a  :     0.013006 (c=  0.11404584)
   300a -> 319a  :     0.013449 (c=  0.11597183)
   301a -> 317a  :     0.077352 (c= -0.27812146)
   303a -> 318a  :     0.010702 (c=  0.10344919)
   303a -> 319a  :     0.017655 (c= -0.13287256)
   309a -> 319a  :     0.073641 (c=  0.27136873)
   310a -> 319a  :     0.032933 (c= -0.18147410)
   310a -> 320a  :     0.035220 (c= -0.18766948)
   311a -> 320a  :     0.011168 (c= -0.10567724)
   314a -> 321a  :     0.491853 (c= -0.70132214)
   315a -> 321a  :     0.022806 (c=  0.15101690)
   316a -> 321a  :     0.010102 (c=  0.10050734)
   316a -> 322a  :     0.013667 (c= -0.11690533)


-----------------------------
TD-DFT/TDA-EXCITATION SPECTRA
-----------------------------

Center of mass = ( -6.7749,-19.0486, -0.4617)
Calculating the Dipole integrals                  ... done
Transforming integrals                            ... done
Calculating the Linear Momentum integrals         ... done
Transforming integrals                            ... done
Calculating angular momentum integrals            ... done
Transforming integrals                            ... done

-----------------------------------------------------------------------------
         ABSORPTION SPECTRUM VIA TRANSITION ELECTRIC DIPOLE MOMENTS
-----------------------------------------------------------------------------
State   Energy    Wavelength  fosc         T2        TX        TY        TZ  
        (cm-1)      (nm)                 (au**2)    (au)      (au)      (au) 
-----------------------------------------------------------------------------
   1   14542.3    687.6   1.557254913  35.25339  -1.08106  -5.78697   0.77179
   2   16686.9    599.3   0.253988244   5.01087  -0.44293  -2.18036  -0.24637
   3   17142.7    583.3   0.006402086   0.12295  -0.23878  -0.21916   0.13379
   4   17650.8    566.5   0.008164557   0.15228  -0.01023   0.35957  -0.15128
   5   19184.1    521.3   0.010496862   0.18013  -0.15007   0.09352   0.38583
   6   19256.6    519.3   0.085368447   1.45946   0.30859   1.11334  -0.35314
   7   19798.1    505.1   0.063549833   1.05673   0.05056  -1.02173  -0.10127
   8   19865.7    503.4   0.305003954   5.05449   0.17739   2.24058  -0.05311
   9   20144.3    496.4   0.076326946   1.24738   0.04705   1.06572  -0.33076
  10   20319.7    492.1   0.033830670   0.54811  -0.03339  -0.72416   0.15027
  11   21335.8    468.7   0.032382162   0.49966  -0.41816  -0.12372   0.55632
  12   21593.9    463.1   0.054065141   0.82426   0.00317  -0.67489  -0.60727
  13   22089.1    452.7   0.152190976   2.26823  -0.51699  -1.39570  -0.23012
  14   22318.8    448.1   0.003831252   0.05651  -0.09311   0.19186   0.10504
  15   22334.2    447.7   0.004662774   0.06873   0.04394  -0.24671  -0.07704
  16   22645.2    441.6   0.035286162   0.51298  -0.44939  -0.55752   0.01428
  17   23478.1    425.9   0.012060204   0.16911   0.28243   0.29226  -0.06267
  18   23903.1    418.4   0.008570635   0.11804  -0.22995  -0.24457   0.07317
  19   24135.2    414.3   0.006864317   0.09363  -0.12487  -0.27336  -0.05757
  20   24392.4    410.0   0.003985668   0.05379  -0.01554   0.11831  -0.19888
  21   24536.1    407.6   0.004860799   0.06522  -0.13369  -0.19603  -0.09444
  22   24684.6    405.1   0.009834274   0.13116   0.33618   0.00166  -0.13468
  23   24721.1    404.5   0.039186024   0.52184  -0.20297   0.56566   0.40084
  24   25089.2    398.6   0.000667529   0.00876  -0.08484  -0.02205   0.03278
  25   25292.6    395.4   0.006172603   0.08034  -0.16838  -0.13248   0.18558
  26   25346.5    394.5   0.000086581   0.00112   0.02552  -0.02176   0.00034
  27   25510.7    392.0   0.002098325   0.02708   0.14846  -0.00306  -0.07092
  28   25730.2    388.6   0.023257674   0.29758  -0.02597  -0.47034   0.27510
  29   25864.9    386.6   0.005732959   0.07297  -0.03324   0.25326   0.08788
  30   25945.2    385.4   0.007849486   0.09960   0.07463  -0.28888   0.10285
  31   26145.7    382.5   0.052582702   0.66209  -0.03734  -0.81180   0.04095
  32   26283.3    380.5   0.008401551   0.10523   0.07489   0.31524   0.01585
  33   26409.9    378.6   0.035581077   0.44354   0.02491   0.65675   0.10765
  34   26553.2    376.6   0.049666408   0.61578   0.02723  -0.77661  -0.10916
  35   26664.7    375.0   0.016043658   0.19808   0.07328  -0.39372  -0.19415
  36   26965.2    370.8   0.036424531   0.44470  -0.06162   0.58357   0.31679
  37   27042.5    369.8   0.025310701   0.30813  -0.14299  -0.53532  -0.03342
  38   27323.8    366.0   0.007017291   0.08455   0.13885  -0.25012  -0.05203
  39   27388.6    365.1   0.009590625   0.11528   0.19076  -0.16347  -0.22840
  40   27520.2    363.4   0.041114512   0.49183   0.20033  -0.58307  -0.33427
  41   27858.5    359.0   0.097983568   1.15790  -0.08226   1.04881   0.22610
  42   27985.4    357.3   0.028694123   0.33755   0.03629   0.57934  -0.02443
  43   28110.0    355.7   0.002241157   0.02625  -0.05835  -0.11367  -0.09961
  44   28410.3    352.0   0.059905039   0.69417  -0.21469   0.64180   0.48597
  45   28740.0    347.9   0.013066879   0.14968   0.36271   0.10269   0.08706
  46   28837.3    346.8   0.022609060   0.25811  -0.18573   0.47287  -0.00193
  47   28966.7    345.2   0.011866497   0.13486   0.16269   0.26724   0.19229
  48   29325.4    341.0   0.062069891   0.69681   0.29537  -0.63783  -0.45026
  49   29554.8    338.4   0.013326298   0.14844   0.07946   0.36872  -0.07855
  50   29639.5    337.4   0.082943177   0.92127   0.57286   0.69515  -0.33146

-----------------------------------------------------------------------------
         ABSORPTION SPECTRUM VIA TRANSITION VELOCITY DIPOLE MOMENTS
-----------------------------------------------------------------------------
State   Energy    Wavelength   fosc        P2         PX        PY        PZ  
        (cm-1)      (nm)                 (au**2)     (au)      (au)      (au) 
-----------------------------------------------------------------------------
   1   14542.3    687.6   0.172305936   0.01713   0.02258   0.12602   0.02710
   2   16686.9    599.3   0.027959278   0.00319  -0.00274   0.05431  -0.01523
   3   17142.7    583.3   0.004981947   0.00058  -0.01847   0.01006   0.01189
   4   17650.8    566.5   0.005285523   0.00064  -0.01326  -0.01892  -0.01018
   5   19184.1    521.3   0.006722469   0.00088  -0.01641   0.01466   0.01993
   6   19256.6    519.3   0.039053237   0.00514  -0.00562  -0.06809  -0.02173
   7   19798.1    505.1   0.025876614   0.00350   0.05076   0.02691  -0.01416
   8   19865.7    503.4   0.059384512   0.00806  -0.05247  -0.07138   0.01464
   9   20144.3    496.4   0.022827117   0.00314  -0.03060  -0.04696   0.00088
  10   20319.7    492.1   0.012960849   0.00180   0.02189   0.03632  -0.00116
  11   21335.8    468.7   0.041851039   0.00610  -0.06423   0.03756   0.02379
  12   21593.9    463.1   0.003198501   0.00047   0.00262   0.00929  -0.01946
  13   22089.1    452.7   0.050527871   0.00763  -0.05312   0.06889  -0.00774
  14   22318.8    448.1   0.028582331   0.00436  -0.05508  -0.03114  -0.01888
  15   22334.2    447.7   0.002670978   0.00041   0.00406  -0.01155  -0.01606
  16   22645.2    441.6   0.025057715   0.00388  -0.02864   0.05214   0.01841
  17   23478.1    425.9   0.020822280   0.00334   0.05394  -0.00461   0.02026
  18   23903.1    418.4   0.003730578   0.00061  -0.02210   0.01084  -0.00188
  19   24135.2    414.3   0.005931892   0.00098  -0.02973   0.00854  -0.00463
  20   24392.4    410.0   0.002914735   0.00049  -0.00322  -0.01950  -0.00976
  21   24536.1    407.6   0.001953302   0.00033  -0.01585   0.00453  -0.00748
  22   24684.6    405.1   0.017245584   0.00291   0.04979  -0.01742  -0.01126
  23   24721.1    404.5   0.014043089   0.00237  -0.03826  -0.00690   0.02934
  24   25089.2    398.6   0.000759739   0.00013  -0.00651   0.00610   0.00712
  25   25292.6    395.4   0.003077916   0.00053  -0.02244   0.00506  -0.00169
  26   25346.5    394.5   0.001288941   0.00022   0.01322   0.00084  -0.00691
  27   25510.7    392.0   0.002638723   0.00046   0.02029  -0.00614  -0.00326
  28   25730.2    388.6   0.005501136   0.00097   0.01402   0.02726  -0.00527
  29   25864.9    386.6   0.004009893   0.00071  -0.01676  -0.02047  -0.00301
  30   25945.2    385.4   0.003415514   0.00061   0.01045   0.02179  -0.00467
  31   26145.7    382.5   0.019306642   0.00345   0.04564   0.03574  -0.00945
  32   26283.3    380.5   0.002322578   0.00042  -0.00040  -0.01989   0.00463
  33   26409.9    378.6   0.006868690   0.00124  -0.01126  -0.03139   0.01131
  34   26553.2    376.6   0.015615268   0.00283   0.03014   0.04382  -0.00231
  35   26664.7    375.0   0.004826383   0.00088   0.02106   0.02057  -0.00363
  36   26965.2    370.8   0.010930509   0.00201  -0.04173  -0.01240   0.01092
  37   27042.5    369.8   0.005939366   0.00110   0.01375   0.02942  -0.00658
  38   27323.8    366.0   0.006809596   0.00127   0.03320   0.01203  -0.00493
  39   27388.6    365.1   0.009404513   0.00176   0.03821  -0.00903  -0.01480
  40   27520.2    363.4   0.014339202   0.00270   0.04432   0.01758  -0.02057
  41   27858.5    359.0   0.026011821   0.00495  -0.04887  -0.03404   0.03749
  42   27985.4    357.3   0.006755545   0.00129  -0.01584  -0.02213   0.02349
  43   28110.0    355.7   0.002516524   0.00048  -0.01668   0.01400  -0.00306
  44   28410.3    352.0   0.018376721   0.00357  -0.04261  -0.03926   0.01453
  45   28740.0    347.9   0.025117316   0.00493   0.06928  -0.00889   0.00741
  46   28837.3    346.8   0.025124991   0.00495  -0.06192  -0.03334   0.00245
  47   28966.7    345.2   0.012497360   0.00247   0.02655  -0.04075  -0.01042
  48   29325.4    341.0   0.026060230   0.00522   0.06940   0.00682  -0.01897
  49   29554.8    338.4   0.008085315   0.00163   0.02363  -0.03009   0.01300
  50   29639.5    337.4   0.024975891   0.00506   0.02217  -0.06756  -0.00173

-------------------------------------------------------------------
                             CD SPECTRUM
-------------------------------------------------------------------
State  Energy     Wavelength     R         MX        MY        MZ   
       (cm-1)       (nm)     (1e40*cgs)   (au)      (au)      (au)  
-------------------------------------------------------------------
   1   14542.3    687.6    658.71864  -0.47256  -0.16022  -0.05290
   2   16686.9    599.3     -4.77751  -0.25267   0.05144   0.04014
   3   17142.7    583.3      4.12982   0.01176  -0.00383   0.08018
   4   17650.8    566.5      8.53294   0.02669   0.02524  -0.06146
   5   19184.1    521.3    -16.75515   0.05551  -0.08671  -0.04950
   6   19256.6    519.3     35.70864   0.13024   0.03284   0.00284
   7   19798.1    505.1     18.86838  -0.19009  -0.04303  -0.05594
   8   19865.7    503.4    106.75309   0.37441   0.07668   0.22211
   9   20144.3    496.4     92.98726   0.10782   0.17027  -0.03237
  10   20319.7    492.1     50.48861  -0.03818  -0.13039   0.07581
  11   21335.8    468.7    -94.57888  -0.07801  -0.05920  -0.43241
  12   21593.9    463.1    -203.02856   0.02531   0.05823   0.64457
  13   22089.1    452.7    -61.12005  -0.16389   0.05556   0.59461
  14   22318.8    448.1    -11.04388  -0.00373  -0.01522  -0.19853
  15   22334.2    447.7    -23.29613  -0.10157   0.07120   0.35547
  16   22645.2    441.6      8.28763  -0.03854   0.00560   0.23652
  17   23478.1    425.9     13.01051   0.06477  -0.00058  -0.15114
  18   23903.1    418.4      5.52973  -0.04968   0.00096   0.00739
  19   24135.2    414.3     10.51824  -0.01005   0.00116  -0.37128
  20   24392.4    410.0     10.43034   0.03473   0.06513  -0.07521
  21   24536.1    407.6     -0.74910  -0.05238   0.05896  -0.03142
  22   24684.6    405.1    -25.18291  -0.10186   0.07945   0.14333
  23   24721.1    404.5     33.43733  -0.06827   0.05870   0.05953
  24   25089.2    398.6      2.10575   0.00604  -0.01169   0.14401
  25   25292.6    395.4    -11.19924  -0.16177   0.02613  -0.25612
  26   25346.5    394.5     -0.16602  -0.02220  -0.00966   0.01260
  27   25510.7    392.0     -0.02900   0.06363   0.01474   0.13343
  28   25730.2    388.6    -52.22616  -0.28479   0.02406  -0.38842
  29   25864.9    386.6     -7.27407  -0.07247   0.02761  -0.28256
  30   25945.2    385.4     -4.90381  -0.11263  -0.01045  -0.04877
  31   26145.7    382.5      4.79783  -0.18896  -0.01113  -0.14452
  32   26283.3    380.5      3.85313   0.01388   0.02052   0.04193
  33   26409.9    378.6     17.75532   0.13938   0.04633   0.03496
  34   26553.2    376.6     -0.71894  -0.02663  -0.07600   0.54804
  35   26664.7    375.0     -4.51263  -0.00349  -0.01728   0.08302
  36   26965.2    370.8     28.04188  -0.03500   0.02962   0.12639
  37   27042.5    369.8    -20.88810  -0.11983   0.11250   0.03635
  38   27323.8    366.0    -12.55335  -0.12546   0.01561   0.10190
  39   27388.6    365.1    -15.53605  -0.10426   0.06947   0.00748
  40   27520.2    363.4    -12.77406  -0.12539  -0.00366   0.01230
  41   27858.5    359.0     40.16200   0.10616   0.04396   0.21148
  42   27985.4    357.3     -5.38900   0.01941  -0.01273   0.19491
  43   28110.0    355.7     -4.13981  -0.03280  -0.00972   0.11845
  44   28410.3    352.0    -16.55738   0.06699   0.08394  -0.15353
  45   28740.0    347.9      3.18278   0.03644   0.02880  -0.10824
  46   28837.3    346.8     -8.21293   0.09406   0.00007  -0.00740
  47   28966.7    345.2    -33.13282   0.05602   0.13772  -0.60427
  48   29325.4    341.0     -8.53340  -0.01899   0.06476  -0.06400
  49   29554.8    338.4     -2.88886   0.06913   0.02387   0.26001
  50   29639.5    337.4     10.64024   0.12466   0.01931   0.18785

Total run time:    22871.919 sec

           *** ORCA-CIS/TD-DFT FINISHED WITHOUT ERROR ***

-----------------------
CIS/TD-DFT TOTAL ENERGY
-----------------------

    E(SCF)  =  -6246.538285449 Eh
    DE(CIS) =      0.066259789 Eh (Root  1)
    ----------------------------- ---------
    E(tot)  =  -6246.472025660 Eh


-------------------------   --------------------
FINAL SINGLE POINT ENERGY     -6246.472025660005
-------------------------   --------------------


                            ***************************************
                            *     ORCA property calculations      *
                            ***************************************

                                    ---------------------
                                    Active property flags
                                    ---------------------
   (+) Dipole Moment


------------------------------------------------------------------------------
                       ORCA ELECTRIC PROPERTIES CALCULATION
------------------------------------------------------------------------------

Dipole Moment Calculation                       ... on
Quadrupole Moment Calculation                   ... off
Polarizability Calculation                      ... off
GBWName                                         ... ITIC-Th.gbw
Electron density file                           ... ITIC-Th.scfp
The origin for moment calculation is the CENTER OF MASS  = (-6.774917, -19.048560 -0.461680)

-------------
DIPOLE MOMENT
-------------
                                X             Y             Z
Electronic contribution:     -2.52266      -7.12293      -6.09450
Nuclear contribution   :      1.85020       5.77626       6.57886
                        -----------------------------------------
Total Dipole Moment    :     -0.67246      -1.34667       0.48436
                        -----------------------------------------
Magnitude (a.u.)       :      1.58124
Magnitude (Debye)      :      4.01920



--------------------
Rotational spectrum 
--------------------
 
Rotational constants in cm-1:     0.001355     0.000279     0.000274 
Rotational constants in MHz :    40.636295     8.367153     8.212076 

 Dipole components along the rotational axes: 
x,y,z [a.u.] :     1.480314    -0.445031    -0.333090 
x,y,z [Debye]:     3.762660    -1.131180    -0.846649 

 

Timings for individual modules:

Sum of individual times         ...    26642.138 sec (= 444.036 min)
GTO integral calculation        ...       10.634 sec (=   0.177 min)   0.0 %
SCF iterations                  ...     3757.912 sec (=  62.632 min)  14.1 %
CIS module                      ...    22873.591 sec (= 381.227 min)  85.9 %
                             ****ORCA TERMINATED NORMALLY****
TOTAL RUN TIME: 0 days 7 hours 24 minutes 4 seconds 355 msec
