
                                 *****************
                                 * O   R   C   A *
                                 *****************

           --- An Ab Initio, DFT and Semiempirical electronic structure package ---

                  #######################################################
                  #                        -***-                        #
                  #          Department of theory and spectroscopy      #
                  #               Directorship: Frank Neese             #
                  #        Max Planck Institute fuer Kohlenforschung    #
                  #                Kaiser Wilhelm Platz 1               #
                  #                 D-45470 Muelheim/Ruhr               #
                  #                      Germany                        #
                  #                                                     #
                  #                  All rights reserved                #
                  #                        -***-                        #
                  #######################################################


                         Program Version 4.2.0 -  RELEASE  -


 With contributions from (in alphabetic order):
   Daniel Aravena         : Magnetic Suceptibility
   Michael Atanasov       : Ab Initio Ligand Field Theory (pilot matlab implementation)
   Alexander A. Auer      : GIAO ZORA, VPT2
   Ute Becker             : Parallelization
   Giovanni Bistoni       : ED, misc. LED, open-shell LED, HFLED
   Martin Brehm           : Molecular dynamics
   Dmytro Bykov           : SCF Hessian
   Vijay G. Chilkuri      : MRCI spin determinant printing, contributions to CSF-ICE
   Dipayan Datta          : RHF DLPNO-CCSD density
   Achintya Kumar Dutta   : EOM-CC, STEOM-CC
   Dmitry Ganyushin       : Spin-Orbit,Spin-Spin,Magnetic field MRCI
   Miquel Garcia          : C-PCM Hessian, Gaussian charge scheme
   Yang Guo               : DLPNO-NEVPT2, CIM, IAO-localization
   Andreas Hansen         : Spin unrestricted coupled pair/coupled cluster methods
   Benjamin Helmich-Paris : CASSCF linear response (MC-RPA)
   Lee Huntington         : MR-EOM, pCC
   Robert Izsak           : Overlap fitted RIJCOSX, COSX-SCS-MP3, EOM
   Christian Kollmar      : KDIIS, OOCD, Brueckner-CCSD(T), CCSD density
   Simone Kossmann        : Meta GGA functionals, TD-DFT gradient, OOMP2, MP2 Hessian
   Martin Krupicka        : AUTO-CI
   Lucas Lang             : DCDCAS
   Dagmar Lenk            : GEPOL surface, SMD
   Dimitrios Liakos       : Extrapolation schemes; Compound Job, initial MDCI parallelization
   Dimitrios Manganas     : Further ROCIS development; embedding schemes
   Dimitrios Pantazis     : SARC Basis sets
   Taras Petrenko         : DFT Hessian,TD-DFT gradient, ASA, ECA, R-Raman, ABS, FL, XAS/XES, NRVS
   Peter Pinski           : DLPNO-MP2, DLPNO-MP2 Gradient
   Christoph Reimann      : Effective Core Potentials
   Marius Retegan         : Local ZFS, SOC
   Christoph Riplinger    : Optimizer, TS searches, QM/MM, DLPNO-CCSD(T), (RO)-DLPNO pert. Triples
   Tobias Risthaus        : Range-separated hybrids, TD-DFT gradient, RPA, STAB
   Michael Roemelt        : Original ROCIS implementation
   Masaaki Saitow         : Open-shell DLPNO-CCSD energy and density
   Barbara Sandhoefer     : DKH picture change effects
   Avijit Sen             : IP-ROCIS
   Kantharuban Sivalingam : CASSCF convergence, NEVPT2, FIC-MRCI
   Bernardo de Souza      : ESD, SOC TD-DFT
   Georgi Stoychev        : AutoAux, RI-MP2 NMR
   Willem Van den Heuvel  : Paramagnetic NMR
   Boris Wezisla          : Elementary symmetry handling
   Frank Wennmohs         : Technical directorship


 We gratefully acknowledge several colleagues who have allowed us to
 interface, adapt or use parts of their codes:
   Stefan Grimme, W. Hujo, H. Kruse,             : VdW corrections, initial TS optimization,
                  C. Bannwarth                     DFT functionals, gCP, sTDA/sTD-DF
   Ed Valeev, F. Pavosevic, A. Kumar             : LibInt (2-el integral package), F12 methods
   Garnet Chan, S. Sharma, J. Yang, R. Olivares  : DMRG
   Ulf Ekstrom                                   : XCFun DFT Library
   Mihaly Kallay                                 : mrcc  (arbitrary order and MRCC methods)
   Andreas Klamt, Michael Diedenhofen            : otool_cosmo (COSMO solvation model)
   Jiri Pittner, Ondrej Demel                    : Mk-CCSD
   Frank Weinhold                                : gennbo (NPA and NBO analysis)
   Christopher J. Cramer and Donald G. Truhlar   : smd solvation model
   Lars Goerigk                                  : TD-DFT with DH, B97 family of functionals
   V. Asgeirsson, H. Jonsson                     : NEB implementation
   FAccTs GmbH                                   : IRC, NEB, NEB-TS, Multilevel, MM, QM/MM, CI optimization
   S Lehtola, MJT Oliveira, MAL Marques          : LibXC Library


 Your calculation uses the libint2 library for the computation of 2-el integrals
 For citations please refer to: http://libint.valeyev.net

 Your ORCA version has been built with support for libXC version: 4.2.3
 For citations please refer to: https://tddft.org/programs/libxc/

 This ORCA versions uses:
   CBLAS   interface :  Fast vector & matrix operations
   LAPACKE interface :  Fast linear algebra routines
   SCALAPACK package :  Parallel linear algebra routines


----- Orbital basis set information -----
Your calculation utilizes the basis: def2-TZVP
   F. Weigend and R. Ahlrichs, Phys. Chem. Chem. Phys. 7, 3297 (2005).

----- AuxJ basis set information -----
Your calculation utilizes the auxiliary basis: def2/J
   F. Weigend, Phys. Chem. Chem. Phys. 8, 1057 (2006).

================================================================================
                                        WARNINGS
                       Please study these warnings very carefully!
================================================================================

INFO   : Checking CIS options ...

WARNING: CIS/ROCIS methods need fully converged wavefunctions
  ===> : Setting SCFConvForced true
         You can overwrite this default with %scf ConvForced false 


INFO   : the flag for use of LIBINT has been found!

================================================================================
                                       INPUT FILE
================================================================================
NAME = M34.inp
|  1> # ORCA input file
|  2> # M34.out
|  3> ! B3LYP def2-TZVP def2/J RIJCOSX Grid4 TightSCF
|  4> %maxcore 1000
|  5> %tddft
|  6>   maxdim 5
|  7>   nroots 50
|  8>   end
|  9> * xyz 0 1
| 10>    C       -1.15780        -0.55646        -0.11151
| 11>    C       -1.80821        -0.44266         1.15485
| 12>    C       -1.20500        -1.02894         2.27491
| 13>    C       -0.07249        -1.79735         2.07557
| 14>    C        0.53508        -1.99503         0.80789
| 15>    C       -0.02989        -1.34638        -0.31365
| 16>    O        0.62345        -1.51828        -1.49175
| 17>    C       -0.05473        -1.50843        -2.74043
| 18>    O       -1.66550        -0.85581         3.55920
| 19>    C       -1.37197         0.42374         4.12335
| 20>    S        0.71106        -2.61245         3.40716
| 21>    C        1.88974        -3.21990         2.29994
| 22>    C        1.69137        -2.81936         0.95870
| 23>    S       -1.90390         0.46970        -1.34214
| 24>    C       -3.12877         0.94320        -0.22260
| 25>    C       -2.98595         0.34935         1.04371
| 26>    C       -4.27549         1.73147        -0.19789
| 27>    C       -4.82689         1.56260         1.09935
| 28>    N       -4.03664         0.72127         1.84711
| 29>    S       -5.19956         2.79381        -1.18290
| 30>    C       -6.34461         3.01432         0.14377
| 31>    C       -5.99159         2.28175         1.28438
| 32>    C        3.03787        -3.99947         2.34308
| 33>    C        3.52212        -4.05560         1.01290
| 34>    N        2.70373        -3.33250         0.18818
| 35>    S        4.04264        -4.86849         3.42716
| 36>    C        5.14511        -5.26820         2.10329
| 37>    C        4.70386        -4.77154         0.88163
| 38>    C       -7.49152         3.81634         0.12573
| 39>    C       -8.01374         4.61819        -0.86073
| 40>    C        6.26588        -6.05640         2.40591
| 41>    C        7.38682        -6.33704         1.66947
| 42>    C       -7.43945         4.82414        -2.19317
| 43>    C       -8.33119         5.78618        -2.87506
| 44>    C       -9.38537         6.13426        -2.01448
| 45>    C       -9.21944         5.41380        -0.75036
| 46>    C        8.18632        -7.53108         2.04163
| 47>    C        9.10545        -7.75539         0.90137
| 48>    C        8.95091        -6.71557        -0.03116
| 49>    C        7.98337        -5.74917         0.49668
| 50>    C       -8.21448         6.30867        -4.14733
| 51>    C       -9.18444         7.20634        -4.56379
| 52>    C      -10.23534         7.55936        -3.71722
| 53>    C      -10.35167         7.03272        -2.43906
| 54>    C        9.98921        -8.79586         0.69683
| 55>    C       10.72372        -8.79459        -0.47870
| 56>    C       10.56661        -7.77279        -1.41498
| 57>    C        9.68677        -6.72098        -1.20459
| 58>    F       -9.11239         7.73987        -5.78905
| 59>    F      -11.15752         8.42913        -4.14449
| 60>    O       -6.43753         4.32021        -2.66374
| 61>    C      -10.07432         5.49693         0.31817
| 62>    C       -9.94192         4.80386         1.53970
| 63>    C      -11.23423         6.30071         0.34268
| 64>    C       -4.52768         0.06536         3.03878
| 65>    C       -5.65061        -0.91439         2.70343
| 66>    C        2.96975        -3.20728        -1.22424
| 67>    C        2.37438        -4.37770        -2.00252
| 68>    C       -1.18480        -2.52490        -2.82217
| 69>    C        0.11429         0.65131         4.35870
| 70>    O        8.07835        -8.19825         3.04402
| 71>    C        7.88254        -4.44659         0.07501
| 72>    F       11.27723        -7.80483        -2.54823
| 73>    F       11.58980        -9.78602        -0.72042
| 74>    N      -12.18969         6.93042         0.43202
| 75>    N       -9.91349         4.27945         2.56168
| 76>    C        7.16823        -3.44579         0.76159
| 77>    C        8.53814        -3.92992        -1.06062
| 78>    N        9.00951        -3.45695        -1.99457
| 79>    N        6.62213        -2.58468         1.28927
| 80>    H        0.73362        -1.76619        -3.45334
| 81>    H       -0.41906        -0.50549        -2.98379
| 82>    H       -1.91091         0.42805         5.07355
| 83>    H       -1.77486         1.21632         3.47833
| 84>    H       -6.57968         2.30916         2.18426
| 85>    H        5.20406        -4.97710        -0.04717
| 86>    H       -8.03957         3.78592         1.05967
| 87>    H        6.21761        -6.59071         3.35068
| 88>    H       -7.39982         6.03198        -4.79714
| 89>    H      -11.18255         7.34014        -1.82613
| 90>    H       10.10885        -9.58438         1.42244
| 91>    H        9.60004        -5.95560        -1.95846
| 92>    H       -4.89172         0.83489         3.72583
| 93>    H       -3.70760        -0.47681         3.50587
| 94>    H       -6.49046        -0.40148         2.24096
| 95>    H       -5.99475        -1.39872         3.61249
| 96>    H       -5.29043        -1.67868         2.01845
| 97>    H        4.05544        -3.18154        -1.35183
| 98>    H        2.55360        -2.26598        -1.57576
| 99>    H        2.78678        -5.32144        -1.65207
|100>    H        2.59517        -4.27175        -3.06077
|101>    H        1.29604        -4.40310        -1.87001
|102>    H       -0.81680        -3.52205        -2.59199
|103>    H       -1.59249        -2.52495        -3.82843
|104>    H       -1.98254        -2.28024        -2.12557
|105>    H        0.65743         0.66173         3.41577
|106>    H        0.52027        -0.13628         4.98800
|107>    H        0.25590         1.60845         4.85266
|108> *
|109> 
|110>                          ****END OF INPUT****
================================================================================

                       ****************************
                       * Single Point Calculation *
                       ****************************

---------------------------------
CARTESIAN COORDINATES (ANGSTROEM)
---------------------------------
  C     -1.157800   -0.556460   -0.111510
  C     -1.808210   -0.442660    1.154850
  C     -1.205000   -1.028940    2.274910
  C     -0.072490   -1.797350    2.075570
  C      0.535080   -1.995030    0.807890
  C     -0.029890   -1.346380   -0.313650
  O      0.623450   -1.518280   -1.491750
  C     -0.054730   -1.508430   -2.740430
  O     -1.665500   -0.855810    3.559200
  C     -1.371970    0.423740    4.123350
  S      0.711060   -2.612450    3.407160
  C      1.889740   -3.219900    2.299940
  C      1.691370   -2.819360    0.958700
  S     -1.903900    0.469700   -1.342140
  C     -3.128770    0.943200   -0.222600
  C     -2.985950    0.349350    1.043710
  C     -4.275490    1.731470   -0.197890
  C     -4.826890    1.562600    1.099350
  N     -4.036640    0.721270    1.847110
  S     -5.199560    2.793810   -1.182900
  C     -6.344610    3.014320    0.143770
  C     -5.991590    2.281750    1.284380
  C      3.037870   -3.999470    2.343080
  C      3.522120   -4.055600    1.012900
  N      2.703730   -3.332500    0.188180
  S      4.042640   -4.868490    3.427160
  C      5.145110   -5.268200    2.103290
  C      4.703860   -4.771540    0.881630
  C     -7.491520    3.816340    0.125730
  C     -8.013740    4.618190   -0.860730
  C      6.265880   -6.056400    2.405910
  C      7.386820   -6.337040    1.669470
  C     -7.439450    4.824140   -2.193170
  C     -8.331190    5.786180   -2.875060
  C     -9.385370    6.134260   -2.014480
  C     -9.219440    5.413800   -0.750360
  C      8.186320   -7.531080    2.041630
  C      9.105450   -7.755390    0.901370
  C      8.950910   -6.715570   -0.031160
  C      7.983370   -5.749170    0.496680
  C     -8.214480    6.308670   -4.147330
  C     -9.184440    7.206340   -4.563790
  C    -10.235340    7.559360   -3.717220
  C    -10.351670    7.032720   -2.439060
  C      9.989210   -8.795860    0.696830
  C     10.723720   -8.794590   -0.478700
  C     10.566610   -7.772790   -1.414980
  C      9.686770   -6.720980   -1.204590
  F     -9.112390    7.739870   -5.789050
  F    -11.157520    8.429130   -4.144490
  O     -6.437530    4.320210   -2.663740
  C    -10.074320    5.496930    0.318170
  C     -9.941920    4.803860    1.539700
  C    -11.234230    6.300710    0.342680
  C     -4.527680    0.065360    3.038780
  C     -5.650610   -0.914390    2.703430
  C      2.969750   -3.207280   -1.224240
  C      2.374380   -4.377700   -2.002520
  C     -1.184800   -2.524900   -2.822170
  C      0.114290    0.651310    4.358700
  O      8.078350   -8.198250    3.044020
  C      7.882540   -4.446590    0.075010
  F     11.277230   -7.804830   -2.548230
  F     11.589800   -9.786020   -0.720420
  N    -12.189690    6.930420    0.432020
  N     -9.913490    4.279450    2.561680
  C      7.168230   -3.445790    0.761590
  C      8.538140   -3.929920   -1.060620
  N      9.009510   -3.456950   -1.994570
  N      6.622130   -2.584680    1.289270
  H      0.733620   -1.766190   -3.453340
  H     -0.419060   -0.505490   -2.983790
  H     -1.910910    0.428050    5.073550
  H     -1.774860    1.216320    3.478330
  H     -6.579680    2.309160    2.184260
  H      5.204060   -4.977100   -0.047170
  H     -8.039570    3.785920    1.059670
  H      6.217610   -6.590710    3.350680
  H     -7.399820    6.031980   -4.797140
  H    -11.182550    7.340140   -1.826130
  H     10.108850   -9.584380    1.422440
  H      9.600040   -5.955600   -1.958460
  H     -4.891720    0.834890    3.725830
  H     -3.707600   -0.476810    3.505870
  H     -6.490460   -0.401480    2.240960
  H     -5.994750   -1.398720    3.612490
  H     -5.290430   -1.678680    2.018450
  H      4.055440   -3.181540   -1.351830
  H      2.553600   -2.265980   -1.575760
  H      2.786780   -5.321440   -1.652070
  H      2.595170   -4.271750   -3.060770
  H      1.296040   -4.403100   -1.870010
  H     -0.816800   -3.522050   -2.591990
  H     -1.592490   -2.524950   -3.828430
  H     -1.982540   -2.280240   -2.125570
  H      0.657430    0.661730    3.415770
  H      0.520270   -0.136280    4.988000
  H      0.255900    1.608450    4.852660

----------------------------
CARTESIAN COORDINATES (A.U.)
----------------------------
  NO LB      ZA    FRAG     MASS         X           Y           Z
   0 C     6.0000    0    12.011   -2.187925   -1.051557   -0.210723
   1 C     6.0000    0    12.011   -3.417022   -0.836506    2.182350
   2 C     6.0000    0    12.011   -2.277120   -1.944415    4.298957
   3 C     6.0000    0    12.011   -0.136986   -3.396499    3.922259
   4 C     6.0000    0    12.011    1.011155   -3.770060    1.526691
   5 C     6.0000    0    12.011   -0.056484   -2.544289   -0.592713
   6 O     8.0000    0    15.999    1.178150   -2.869133   -2.818999
   7 C     6.0000    0    12.011   -0.103425   -2.850520   -5.178662
   8 O     8.0000    0    15.999   -3.147339   -1.617247    6.725913
   9 C     6.0000    0    12.011   -2.592648    0.800753    7.792002
  10 S    16.0000    0    32.060    1.343709   -4.936815    6.438599
  11 C     6.0000    0    12.011    3.571091   -6.084729    4.346257
  12 C     6.0000    0    12.011    3.196226   -5.327818    1.811680
  13 S    16.0000    0    32.060   -3.597850    0.887604   -2.536277
  14 C     6.0000    0    12.011   -5.912518    1.782390   -0.420653
  15 C     6.0000    0    12.011   -5.642628    0.660176    1.972326
  16 C     6.0000    0    12.011   -8.079505    3.272004   -0.373958
  17 C     6.0000    0    12.011   -9.121500    2.952886    2.077470
  18 N     7.0000    0    14.007   -7.628144    1.363003    3.490532
  19 S    16.0000    0    32.060   -9.825744    5.279536   -2.235357
  20 C     6.0000    0    12.011  -11.989575    5.696239    0.271686
  21 C     6.0000    0    12.011  -11.322464    4.311883    2.427126
  22 C     6.0000    0    12.011    5.740742   -7.557903    4.427780
  23 C     6.0000    0    12.011    6.655842   -7.663973    1.914104
  24 N     7.0000    0    14.007    5.109309   -6.297512    0.355609
  25 S    16.0000    0    32.060    7.639482   -9.200113    6.476394
  26 C     6.0000    0    12.011    9.722849   -9.955455    3.974642
  27 C     6.0000    0    12.011    8.889007   -9.016904    1.666039
  28 C     6.0000    0    12.011  -14.156921    7.211837    0.237595
  29 C     6.0000    0    12.011  -15.143774    8.727114   -1.626544
  30 C     6.0000    0    12.011   11.840797  -11.444937    4.546511
  31 C     6.0000    0    12.011   13.959067  -11.975270    3.154841
  32 C     6.0000    0    12.011  -14.058523    9.116303   -4.144491
  33 C     6.0000    0    12.011  -15.743667   10.934296   -5.433076
  34 C     6.0000    0    12.011  -17.735779   11.592071   -3.806816
  35 C     6.0000    0    12.011  -17.422217   10.230599   -1.417975
  36 C     6.0000    0    12.011   15.469903  -14.231679    3.858122
  37 C     6.0000    0    12.011   17.206807  -14.655563    1.703342
  38 C     6.0000    0    12.011   16.914769  -12.690588   -0.058884
  39 C     6.0000    0    12.011   15.086383  -10.864357    0.938589
  40 C     6.0000    0    12.011  -15.523118   11.921659   -7.837318
  41 C     6.0000    0    12.011  -17.356076   13.618009   -8.624313
  42 C     6.0000    0    12.011  -19.341989   14.285120   -7.024528
  43 C     6.0000    0    12.011  -19.561821   13.289915   -4.609155
  44 C     6.0000    0    12.011   18.876871  -16.621767    1.316818
  45 C     6.0000    0    12.011   20.264894  -16.619367   -0.904612
  46 C     6.0000    0    12.011   19.967999  -14.688444   -2.673925
  47 C     6.0000    0    12.011   18.305342  -12.700812   -2.276345
  48 F     9.0000    0    18.998  -17.219922   14.626235  -10.939719
  49 F     9.0000    0    18.998  -21.084657   15.928747   -7.831951
  50 O     8.0000    0    15.999  -12.165169    8.164014   -5.033739
  51 C     6.0000    0    12.011  -19.037706   10.387692    0.601254
  52 C     6.0000    0    12.011  -18.787506    9.077980    2.909611
  53 C     6.0000    0    12.011  -21.229618   11.906616    0.647571
  54 C     6.0000    0    12.011   -8.556075    0.123513    5.742462
  55 C     6.0000    0    12.011  -10.678105   -1.727947    5.108742
  56 C     6.0000    0    12.011    5.612014   -6.060881   -2.313478
  57 C     6.0000    0    12.011    4.486928   -8.272654   -3.784214
  58 C     6.0000    0    12.011   -2.238948   -4.771370   -5.333128
  59 C     6.0000    0    12.011    0.215977    1.230798    8.236749
  60 O     8.0000    0    15.999   15.265869  -15.492447    5.752364
  61 C     6.0000    0    12.011   14.895842   -8.402837    0.141748
  62 F     9.0000    0    18.998   21.310876  -14.748991   -4.815457
  63 F     9.0000    0    18.998   21.901548  -18.492898   -1.361397
  64 N     7.0000    0    14.007  -23.035176   13.096596    0.816399
  65 N     7.0000    0    14.007  -18.733781    8.086989    4.840874
  66 C     6.0000    0    12.011   13.545992   -6.511599    1.439197
  67 C     6.0000    0    12.011   16.134746   -7.426473   -2.004281
  68 N     7.0000    0    14.007   17.025507   -6.532689   -3.769191
  69 N     7.0000    0    14.007   12.514012   -4.884337    2.436367
  70 H     1.0000    0     1.008    1.386341   -3.337615   -6.525867
  71 H     1.0000    0     1.008   -0.791909   -0.955238   -5.638546
  72 H     1.0000    0     1.008   -3.611097    0.808897    9.587620
  73 H     1.0000    0     1.008   -3.353999    2.298512    6.573091
  74 H     1.0000    0     1.008  -12.433793    4.363680    4.127653
  75 H     1.0000    0     1.008    9.834248   -9.405356   -0.089138
  76 H     1.0000    0     1.008  -15.192586    7.154352    2.002486
  77 H     1.0000    0     1.008   11.749580  -12.454637    6.331868
  78 H     1.0000    0     1.008  -13.983633   11.398790   -9.065281
  79 H     1.0000    0     1.008  -21.131957   13.870854   -3.450886
  80 H     1.0000    0     1.008   19.102958  -18.111853    2.688022
  81 H     1.0000    0     1.008   18.141446  -11.254453   -3.700953
  82 H     1.0000    0     1.008   -9.244011    1.577713    7.040798
  83 H     1.0000    0     1.008   -7.006349   -0.901040    6.625134
  84 H     1.0000    0     1.008  -12.265192   -0.758687    4.234801
  85 H     1.0000    0     1.008  -11.328436   -2.643198    6.826617
  86 H     1.0000    0     1.008   -9.997464   -3.172245    3.814318
  87 H     1.0000    0     1.008    7.663671   -6.012239   -2.554588
  88 H     1.0000    0     1.008    4.825605   -4.282082   -2.977755
  89 H     1.0000    0     1.008    5.266251  -10.056064   -3.121960
  90 H     1.0000    0     1.008    4.904161   -8.072438   -5.784017
  91 H     1.0000    0     1.008    2.449161   -8.320653   -3.533807
  92 H     1.0000    0     1.008   -1.543528   -6.655710   -4.898151
  93 H     1.0000    0     1.008   -3.009370   -4.771464   -7.234684
  94 H     1.0000    0     1.008   -3.746458   -4.309029   -4.016745
  95 H     1.0000    0     1.008    1.242363    1.250488    6.454870
  96 H     1.0000    0     1.008    0.983168   -0.257532    9.425954
  97 H     1.0000    0     1.008    0.483581    3.039530    9.170198

--------------------------------
INTERNAL COORDINATES (ANGSTROEM)
--------------------------------
 C      0   0   0     0.000000000000     0.00000000     0.00000000
 C      1   0   0     1.428163596266     0.00000000     0.00000000
 C      2   1   0     1.400757275940   118.65607690     0.00000000
 C      3   2   1     1.383029017700   118.02915909   354.00276188
 C      4   3   2     1.419588415598   123.81702549     1.85493325
 C      1   2   3     1.391766918022   122.89405500     7.30610482
 O      6   1   2     1.358058310825   125.99489776   178.79804281
 C      7   6   1     1.420995030709   122.12820843   327.15505055
 O      3   2   1     1.375294532455   123.35459940   172.61087129
 C      9   3   2     1.428871332871   114.37089427   285.04623263
 S      4   3   2     1.746845883471   121.10989574   182.22010184
 C     11   4   3     1.727488979212    88.94283101   180.49987722
 C     12  11   4     1.413756586581   114.37478569   359.80039961
 S      1   2   3     1.767517963841   112.26344381   189.97891903
 C     14   1   2     1.725653087529    90.41369546   355.94997909
 C     15  14   1     1.405914787958   113.34936469     0.00000000
 C     15  14   1     1.391742409859   138.74368890   182.38755794
 C     17  15  14     1.419644552168   105.59743410   176.19555595
 N     16  15  14     1.373945239993   109.55133683   183.22293495
 S     17  15  14     1.718346979105   141.54297617   356.24727830
 C     20  17  15     1.766300498641    89.72777864   179.66763497
 C     18  17  15     1.381281619873   112.82886203   180.46380142
 C     12  11   4     1.388449833952   137.87896622   178.24775940
 C     23  12  11     1.416695970136   106.00525635   181.61969356
 N     24  23  12     1.368502422541   109.90696498     0.25018736
 S     23  12  11     1.714639308922   142.07143219     0.51574029
 C     26  23  12     1.768570033078    90.37606784   182.79702020
 C     24  23  12     1.387916180502   113.59579129   178.12129036
 C     21  20  17     1.399629976137   126.37578595   179.93293126
 C     29  21  20     1.374329102690   130.91602814   359.37718765
 C     27  26  23     1.403197597382   117.60774010   180.71461378
 C     31  27  26     1.370258795557   130.73289531   192.26847155
 C     30  29  21     1.465476291245   125.85269884   359.67462484
 C     33  30  29     1.478409673027   105.92857936   181.37021571
 C     34  33  30     1.404654083823   109.35076754   359.58782280
 C     30  29  21     1.448754395679   125.58867849   180.38330108
 C     32  31  27     1.484397129208   118.07354254   199.81395307
 C     37  32  31     1.481657113033   105.24508746   166.66433789
 C     38  37  32     1.405247467495   109.29649975     4.56750849
 C     32  31  27     1.441145177801   133.82421669    15.87041917
 C     34  33  30     1.380321693338   128.34860961   179.43935728
 C     41  34  33     1.385666901568   117.58440181   180.21714403
 C     42  41  34     1.394881606195   120.59199758   359.97169052
 C     35  34  33     1.386085941780   119.74612762   179.82591397
 C     38  37  32     1.380378995095   128.70468165   185.40228858
 C     45  38  37     1.386137559516   117.66028629   178.46796100
 C     46  45  38     1.394768450496   120.68175288     0.00000000
 C     39  38  37     1.385083814287   120.05850499   181.45912390
 F     42  41  34     1.338322655790   119.71803824   179.95281623
 F     43  42  41     1.337712771188   119.34534556   179.94926796
 O     33  30  29     1.216234046637   128.05235013     1.33849199
 C     36  30  29     1.370943752384   127.70767523   358.24295199
 C     52  36  30     1.410677612284   125.91536046   359.75191325
 C     52  36  30     1.411401515020   124.09221084   180.04772401
 C     19  16  15     1.446172741618   128.22269375   159.23398058
 C     55  19  16     1.527527894966   111.07628728   267.05376719
 C     25  24  23     1.442697801066   121.70792028   179.36443869
 C     57  25  24     1.526456082467   111.14260660    86.08268016
 C      8   7   6     1.522153373810   113.38342857   304.21871280
 C     10   9   3     1.521889127039   113.30215082   293.00847944
 O     37  32  31     1.208949561355   127.13449103   348.68498781
 C     40  32  31     1.372839005201   127.34384264    27.36936165
 F     47  46  45     1.338007065938   119.41853148   180.76835069
 F     46  45  38     1.338453050988   119.69359479   180.18916975
 N     54  52  36     1.147789236445   176.28405772   180.66287426
 N     53  52  36     1.149024470323   175.36235009   181.41910735
 C     62  40  32     1.408272527780   124.18001817     0.94283099
 C     62  40  32     1.409402265430   124.13542615   177.49122433
 N     68  62  40     1.148108400936   175.90784588   149.42997232
 N     67  62  40     1.148120997326   176.69502770   159.04443204
 H      8   7   6     1.093698591112   103.12901107   185.25203888
 H      8   7   6     1.094462919472   111.13801297    69.62330863
 H     10   9   3     1.092407863254   104.21788412   173.10447697
 H     10   9   3     1.098432614638   109.81326383    56.37258980
 H     22  18  17     1.075353509596   125.90893085   180.19783477
 H     28  24  23     1.074767134592   125.21608362   176.45639610
 H     29  21  20     1.083295020989   112.79026259   179.69044194
 H     31  27  26     1.086465610086   115.35953143    16.95247754
 H     41  34  33     1.078184264307   121.48379724     0.18619391
 H     44  35  34     1.077289104976   123.25579364   180.08966806
 H     45  38  37     1.078233458997   121.50345687   358.43131236
 H     48  39  38     1.077798039616   123.16456108   179.30425217
 H     55  19  16     1.093955778357   108.14753096   146.07205613
 H     55  19  16     1.088417467427   108.88772370    27.32314321
 H     56  55  19     1.087337662136   111.01593891   299.66683059
 H     56  55  19     1.086000907965   109.58660693   179.50667800
 H     56  55  19     1.087688575328   110.21323030    60.06765315
 H     57  25  24     1.093464462980   107.41905601   325.42352821
 H     57  25  24     1.087562790325   108.72350374   207.87545097
 H     58  57  25     1.087903557352   110.67418209   300.89870468
 H     58  57  25     1.086216686071   110.03922182   180.68023534
 H     58  57  25     1.086748000090   110.04565920    60.75914282
 H     59   8   7     1.087526990424   110.46915142   304.95147311
 H     59   8   7     1.085711898341   109.18271509   185.27449459
 H     59   8   7     1.086967885082   111.10913986    65.56106231
 H     60  10   9     1.088221770091   110.78477367    64.37312953
 H     60  10   9     1.086800928643   110.24229816   303.88820384
 H     60  10   9     1.086354846862   109.23009606   184.07306545

---------------------------
INTERNAL COORDINATES (A.U.)
---------------------------
 C      0   0   0     0.000000000000     0.00000000     0.00000000
 C      1   0   0     2.698838071379     0.00000000     0.00000000
 C      2   1   0     2.647047631625   118.65607690     0.00000000
 C      3   2   1     2.613546078719   118.02915909   354.00276188
 C      4   3   2     2.682633328367   123.81702549     1.85493325
 C      1   2   3     2.630058317313   122.89405500     7.30610482
 O      6   1   2     2.566358281354   125.99489776   178.79804281
 C      7   6   1     2.685291445703   122.12820843   327.15505055
 O      3   2   1     2.598930019819   123.35459940   172.61087129
 C      9   3   2     2.700175499737   114.37089427   285.04623263
 S      4   3   2     3.301060317928   121.10989574   182.22010184
 C     11   4   3     3.264481070078    88.94283101   180.49987722
 C     12  11   4     2.671612768665   114.37478569   359.80039961
 S      1   2   3     3.340124888445   112.26344381   189.97891903
 C     14   1   2     3.261011737586    90.41369546   355.94997909
 C     15  14   1     2.656793916871   113.34936469     0.00000000
 C     15  14   1     2.630012003597   138.74368890   182.38755794
 C     17  15  14     2.682739411111   105.59743410   176.19555595
 N     16  15  14     2.596380226592   109.55133683   183.22293495
 S     17  15  14     3.247205193560   141.54297617   356.24727830
 C     20  17  15     3.337824212640    89.72777864   179.66763497
 C     18  17  15     2.610243975380   112.82886203   180.46380142
 C     12  11   4     2.623789936857   137.87896622   178.24775940
 C     23  12  11     2.677167398587   106.00525635   181.61969356
 N     24  23  12     2.586094792210   109.90696498     0.25018736
 S     23  12  11     3.240198712318   142.07143219     0.51574029
 C     26  23  12     3.342113011177    90.37606784   182.79702020
 C     24  23  12     2.622781477987   113.59579129   178.12129036
 C     21  20  17     2.644917343725   126.37578595   179.93293126
 C     29  21  20     2.597105621961   130.91602814   359.37718765
 C     27  26  23     2.651659170829   117.60774010   180.71461378
 C     31  27  26     2.589413856199   130.73289531   192.26847155
 C     30  29  21     2.769348846207   125.85269884   359.67462484
 C     33  30  29     2.793789395761   105.92857936   181.37021571
 C     34  33  30     2.654411531319   109.35076754   359.58782280
 C     30  29  21     2.737749043148   125.58867849   180.38330108
 C     32  31  27     2.805104048181   118.07354254   199.81395307
 C     37  32  31     2.799926168008   105.24508746   166.66433789
 C     38  37  32     2.655532863951   109.29649975     4.56750849
 C     32  31  27     2.723369705266   133.82421669    15.87041917
 C     34  33  30     2.608429977120   128.34860961   179.43935728
 C     41  34  33     2.618530956802   117.58440181   180.21714403
 C     42  41  34     2.635944224952   120.59199758   359.97169052
 C     35  34  33     2.619322828042   119.74612762   179.82591397
 C     38  37  32     2.608538261747   128.70468165   185.40228858
 C     45  38  37     2.619420371427   117.66028629   178.46796100
 C     46  45  38     2.635730391672   120.68175288     0.00000000
 C     39  38  37     2.617429081530   120.05850499   181.45912390
 F     42  41  34     2.529063298265   119.71803824   179.95281623
 F     43  42  41     2.527910783395   119.34534556   179.94926796
 O     33  30  29     2.298349262896   128.05235013     1.33849199
 C     36  30  29     2.590708237016   127.70767523   358.24295199
 C     52  36  30     2.665794350471   125.91536046   359.75191325
 C     52  36  30     2.667162328389   124.09221084   180.04772401
 C     19  16  15     2.732870424001   128.22269375   159.23398058
 C     55  19  16     2.886609383411   111.07628728   267.05376719
 C     25  24  23     2.726303738025   121.70792028   179.36443869
 C     57  25  24     2.884583951321   111.14260660    86.08268016
 C      8   7   6     2.876453010324   113.38342857   304.21871280
 C     10   9   3     2.875953656296   113.30215082   293.00847944
 O     37  32  31     2.284583580685   127.13449103   348.68498781
 C     40  32  31     2.594289745794   127.34384264    27.36936165
 F     47  46  45     2.528466919874   119.41853148   180.76835069
 F     46  45  38     2.529309709479   119.69359479   180.18916975
 N     54  52  36     2.169007316344   176.28405772   180.66287426
 N     53  52  36     2.171341570084   175.36235009   181.41910735
 C     62  40  32     2.661249399429   124.18001817     0.94283099
 C     62  40  32     2.663384294191   124.13542615   177.49122433
 N     68  62  40     2.169610449823   175.90784588   149.42997232
 N     67  62  40     2.169634253550   176.69502770   159.04443204
 H      8   7   6     2.066790810257   103.12901107   185.25203888
 H      8   7   6     2.068235181535   111.13801297    69.62330863
 H     10   9   3     2.064351688093   104.21788412   173.10447697
 H     10   9   3     2.075736818232   109.81326383    56.37258980
 H     22  18  17     2.032123630287   125.90893085   180.19783477
 H     28  24  23     2.031015542119   125.21608362   176.45639610
 H     29  21  20     2.047130911910   112.79026259   179.69044194
 H     31  27  26     2.053122456987   115.35953143    16.95247754
 H     41  34  33     2.037472981444   121.48379724     0.18619391
 H     44  35  34     2.035781375462   123.25579364   180.08966806
 H     45  38  37     2.037565945934   121.50345687   358.43131236
 H     48  39  38     2.036743122551   123.16456108   179.30425217
 H     55  19  16     2.067276823715   108.14753096   146.07205613
 H     55  19  16     2.056810932813   108.88772370    27.32314321
 H     56  55  19     2.054770396536   111.01593891   299.66683059
 H     56  55  19     2.052244297243   109.58660693   179.50667800
 H     56  55  19     2.055433526366   110.21323030    60.06765315
 H     57  25  24     2.066348372207   107.41905601   325.42352821
 H     57  25  24     2.055195827158   108.72350374   207.87545097
 H     58  57  25     2.055839783515   110.67418209   300.89870468
 H     58  57  25     2.052652058771   110.03922182   180.68023534
 H     58  57  25     2.053656096757   110.04565920    60.75914282
 H     59   8   7     2.055128175148   110.46915142   304.95147311
 H     59   8   7     2.051698148205   109.18271509   185.27449459
 H     59   8   7     2.054071619173   111.10913986    65.56106231
 H     60  10   9     2.056441118443   110.78477367    64.37312953
 H     60  10   9     2.053756117227   110.24229816   303.88820384
 H     60  10   9     2.052913144827   109.23009606   184.07306545

---------------------
BASIS SET INFORMATION
---------------------
There are 6 groups of distinct atoms

 Group   1 Type C   : 11s6p2d1f contracted to 5s3p2d1f pattern {62111/411/11/1}
 Group   2 Type O   : 11s6p2d1f contracted to 5s3p2d1f pattern {62111/411/11/1}
 Group   3 Type S   : 14s9p3d1f contracted to 5s5p2d1f pattern {73211/51111/21/1}
 Group   4 Type N   : 11s6p2d1f contracted to 5s3p2d1f pattern {62111/411/11/1}
 Group   5 Type F   : 11s6p2d1f contracted to 5s3p2d1f pattern {62111/411/11/1}
 Group   6 Type H   : 5s1p contracted to 3s1p pattern {311/1}

Atom   0C    basis set group =>   1
Atom   1C    basis set group =>   1
Atom   2C    basis set group =>   1
Atom   3C    basis set group =>   1
Atom   4C    basis set group =>   1
Atom   5C    basis set group =>   1
Atom   6O    basis set group =>   2
Atom   7C    basis set group =>   1
Atom   8O    basis set group =>   2
Atom   9C    basis set group =>   1
Atom  10S    basis set group =>   3
Atom  11C    basis set group =>   1
Atom  12C    basis set group =>   1
Atom  13S    basis set group =>   3
Atom  14C    basis set group =>   1
Atom  15C    basis set group =>   1
Atom  16C    basis set group =>   1
Atom  17C    basis set group =>   1
Atom  18N    basis set group =>   4
Atom  19S    basis set group =>   3
Atom  20C    basis set group =>   1
Atom  21C    basis set group =>   1
Atom  22C    basis set group =>   1
Atom  23C    basis set group =>   1
Atom  24N    basis set group =>   4
Atom  25S    basis set group =>   3
Atom  26C    basis set group =>   1
Atom  27C    basis set group =>   1
Atom  28C    basis set group =>   1
Atom  29C    basis set group =>   1
Atom  30C    basis set group =>   1
Atom  31C    basis set group =>   1
Atom  32C    basis set group =>   1
Atom  33C    basis set group =>   1
Atom  34C    basis set group =>   1
Atom  35C    basis set group =>   1
Atom  36C    basis set group =>   1
Atom  37C    basis set group =>   1
Atom  38C    basis set group =>   1
Atom  39C    basis set group =>   1
Atom  40C    basis set group =>   1
Atom  41C    basis set group =>   1
Atom  42C    basis set group =>   1
Atom  43C    basis set group =>   1
Atom  44C    basis set group =>   1
Atom  45C    basis set group =>   1
Atom  46C    basis set group =>   1
Atom  47C    basis set group =>   1
Atom  48F    basis set group =>   5
Atom  49F    basis set group =>   5
Atom  50O    basis set group =>   2
Atom  51C    basis set group =>   1
Atom  52C    basis set group =>   1
Atom  53C    basis set group =>   1
Atom  54C    basis set group =>   1
Atom  55C    basis set group =>   1
Atom  56C    basis set group =>   1
Atom  57C    basis set group =>   1
Atom  58C    basis set group =>   1
Atom  59C    basis set group =>   1
Atom  60O    basis set group =>   2
Atom  61C    basis set group =>   1
Atom  62F    basis set group =>   5
Atom  63F    basis set group =>   5
Atom  64N    basis set group =>   4
Atom  65N    basis set group =>   4
Atom  66C    basis set group =>   1
Atom  67C    basis set group =>   1
Atom  68N    basis set group =>   4
Atom  69N    basis set group =>   4
Atom  70H    basis set group =>   6
Atom  71H    basis set group =>   6
Atom  72H    basis set group =>   6
Atom  73H    basis set group =>   6
Atom  74H    basis set group =>   6
Atom  75H    basis set group =>   6
Atom  76H    basis set group =>   6
Atom  77H    basis set group =>   6
Atom  78H    basis set group =>   6
Atom  79H    basis set group =>   6
Atom  80H    basis set group =>   6
Atom  81H    basis set group =>   6
Atom  82H    basis set group =>   6
Atom  83H    basis set group =>   6
Atom  84H    basis set group =>   6
Atom  85H    basis set group =>   6
Atom  86H    basis set group =>   6
Atom  87H    basis set group =>   6
Atom  88H    basis set group =>   6
Atom  89H    basis set group =>   6
Atom  90H    basis set group =>   6
Atom  91H    basis set group =>   6
Atom  92H    basis set group =>   6
Atom  93H    basis set group =>   6
Atom  94H    basis set group =>   6
Atom  95H    basis set group =>   6
Atom  96H    basis set group =>   6
Atom  97H    basis set group =>   6
---------------------------------
AUXILIARY/J BASIS SET INFORMATION
---------------------------------
There are 6 groups of distinct atoms

 Group   1 Type C   : 12s5p4d2f1g contracted to 6s4p3d1f1g pattern {711111/2111/211/2/1}
 Group   2 Type O   : 12s5p4d2f1g contracted to 6s4p3d1f1g pattern {711111/2111/211/2/1}
 Group   3 Type S   : 14s5p5d2f1g contracted to 8s4p3d1f1g pattern {71111111/2111/311/2/1}
 Group   4 Type N   : 12s5p4d2f1g contracted to 6s4p3d1f1g pattern {711111/2111/211/2/1}
 Group   5 Type F   : 12s5p4d2f1g contracted to 6s4p3d1f1g pattern {711111/2111/211/2/1}
 Group   6 Type H   : 5s2p1d contracted to 3s1p1d pattern {311/2/1}

Atom   0C    basis set group =>   1
Atom   1C    basis set group =>   1
Atom   2C    basis set group =>   1
Atom   3C    basis set group =>   1
Atom   4C    basis set group =>   1
Atom   5C    basis set group =>   1
Atom   6O    basis set group =>   2
Atom   7C    basis set group =>   1
Atom   8O    basis set group =>   2
Atom   9C    basis set group =>   1
Atom  10S    basis set group =>   3
Atom  11C    basis set group =>   1
Atom  12C    basis set group =>   1
Atom  13S    basis set group =>   3
Atom  14C    basis set group =>   1
Atom  15C    basis set group =>   1
Atom  16C    basis set group =>   1
Atom  17C    basis set group =>   1
Atom  18N    basis set group =>   4
Atom  19S    basis set group =>   3
Atom  20C    basis set group =>   1
Atom  21C    basis set group =>   1
Atom  22C    basis set group =>   1
Atom  23C    basis set group =>   1
Atom  24N    basis set group =>   4
Atom  25S    basis set group =>   3
Atom  26C    basis set group =>   1
Atom  27C    basis set group =>   1
Atom  28C    basis set group =>   1
Atom  29C    basis set group =>   1
Atom  30C    basis set group =>   1
Atom  31C    basis set group =>   1
Atom  32C    basis set group =>   1
Atom  33C    basis set group =>   1
Atom  34C    basis set group =>   1
Atom  35C    basis set group =>   1
Atom  36C    basis set group =>   1
Atom  37C    basis set group =>   1
Atom  38C    basis set group =>   1
Atom  39C    basis set group =>   1
Atom  40C    basis set group =>   1
Atom  41C    basis set group =>   1
Atom  42C    basis set group =>   1
Atom  43C    basis set group =>   1
Atom  44C    basis set group =>   1
Atom  45C    basis set group =>   1
Atom  46C    basis set group =>   1
Atom  47C    basis set group =>   1
Atom  48F    basis set group =>   5
Atom  49F    basis set group =>   5
Atom  50O    basis set group =>   2
Atom  51C    basis set group =>   1
Atom  52C    basis set group =>   1
Atom  53C    basis set group =>   1
Atom  54C    basis set group =>   1
Atom  55C    basis set group =>   1
Atom  56C    basis set group =>   1
Atom  57C    basis set group =>   1
Atom  58C    basis set group =>   1
Atom  59C    basis set group =>   1
Atom  60O    basis set group =>   2
Atom  61C    basis set group =>   1
Atom  62F    basis set group =>   5
Atom  63F    basis set group =>   5
Atom  64N    basis set group =>   4
Atom  65N    basis set group =>   4
Atom  66C    basis set group =>   1
Atom  67C    basis set group =>   1
Atom  68N    basis set group =>   4
Atom  69N    basis set group =>   4
Atom  70H    basis set group =>   6
Atom  71H    basis set group =>   6
Atom  72H    basis set group =>   6
Atom  73H    basis set group =>   6
Atom  74H    basis set group =>   6
Atom  75H    basis set group =>   6
Atom  76H    basis set group =>   6
Atom  77H    basis set group =>   6
Atom  78H    basis set group =>   6
Atom  79H    basis set group =>   6
Atom  80H    basis set group =>   6
Atom  81H    basis set group =>   6
Atom  82H    basis set group =>   6
Atom  83H    basis set group =>   6
Atom  84H    basis set group =>   6
Atom  85H    basis set group =>   6
Atom  86H    basis set group =>   6
Atom  87H    basis set group =>   6
Atom  88H    basis set group =>   6
Atom  89H    basis set group =>   6
Atom  90H    basis set group =>   6
Atom  91H    basis set group =>   6
Atom  92H    basis set group =>   6
Atom  93H    basis set group =>   6
Atom  94H    basis set group =>   6
Atom  95H    basis set group =>   6
Atom  96H    basis set group =>   6
Atom  97H    basis set group =>   6
------------------------------------------------------------------------------
                           ORCA GTO INTEGRAL CALCULATION
                           -- RI-GTO INTEGRALS CHOSEN --
------------------------------------------------------------------------------

                         BASIS SET STATISTICS AND STARTUP INFO

Gaussian basis set:
 # of primitive gaussian shells          ... 1596
 # of primitive gaussian functions       ... 3512
 # of contracted shells                  ...  890
 # of contracted basis functions         ... 2362
 Highest angular momentum                ...    3
 Maximum contraction depth               ...    7
Auxiliary gaussian basis set:
 # of primitive gaussian shells          ... 1916
 # of primitive gaussian functions       ... 5376
 # of contracted shells                  ... 1198
 # of contracted aux-basis functions     ... 3746
 Highest angular momentum                ...    4
 Maximum contraction depth               ...    7
Ratio of auxiliary to basis functions    ...  1.59
Integral package used                  ... LIBINT
 One Electron integrals                  ... done
 Ordering auxiliary basis shells         ... done
 Integral threshhold             Thresh  ...  2.500e-11
 Primitive cut-off               TCut    ...  2.500e-12
 Pre-screening matrix                    ... done
 Shell pair data                         ... 
 Ordering of the shell pairs             ... done (   0.034 sec) 132419 of 396495 pairs
 Determination of significant pairs      ... done (   0.001 sec)
 Creation of shell pair data             ... done (   0.018 sec)
 Storage of shell pair data              ... done (   0.022 sec)
 Shell pair data done in (   0.075 sec)
 Computing two index integrals           ... done
 Cholesky decomposition of the V-matrix  ... done


Timings:
 Total evaluation time                   ...   7.312 sec (  0.122 min)
 One electron matrix time                ...   2.088 sec (  0.035 min) = 28.6%
 Schwartz matrix evaluation time         ...   3.610 sec (  0.060 min) = 49.4%
 Two index repulsion integral time       ...   0.362 sec (  0.006 min) =  5.0%
 Cholesky decomposition of V             ...   1.157 sec (  0.019 min) = 15.8%
 Three index repulsion integral time     ...   0.000 sec (  0.000 min) =  0.0%

-------------------------------------------------------------------------------
                                 ORCA SCF
-------------------------------------------------------------------------------

------------
SCF SETTINGS
------------
Hamiltonian:
 Density Functional     Method          .... DFT(GTOs)
 Exchange Functional    Exchange        .... B88
   X-Alpha parameter    XAlpha          ....  0.666667
   Becke's b parameter  XBeta           ....  0.004200
 Correlation Functional Correlation     .... LYP
 LDA part of GGA corr.  LDAOpt          .... VWN-5
 Gradients option       PostSCFGGA      .... off
 Hybrid DFT is turned on
   Fraction HF Exchange ScalHFX         ....  0.200000
   Scaling of DF-GGA-X  ScalDFX         ....  0.720000
   Scaling of DF-GGA-C  ScalDFC         ....  0.810000
   Scaling of DF-LDA-C  ScalLDAC        ....  1.000000
   Perturbative correction              ....  0.000000
   Density functional embedding theory  .... OFF
   NL short-range parameter             ....  4.800000
 RI-approximation to the Coulomb term is turned on
   Number of auxiliary basis functions  .... 3746
   RIJ-COSX (HFX calculated with COS-X)).... on


General Settings:
 Integral files         IntName         .... M34
 Hartree-Fock type      HFTyp           .... RHF
 Total Charge           Charge          ....    0
 Multiplicity           Mult            ....    1
 Number of Electrons    NEL             ....  514
 Basis Dimension        Dim             .... 2362
 Nuclear Repulsion      ENuc            ....  10480.4055852535 Eh

Convergence Acceleration:
 DIIS                   CNVDIIS         .... on
   Start iteration      DIISMaxIt       ....    12
   Startup error        DIISStart       ....  0.200000
   # of expansion vecs  DIISMaxEq       ....     5
   Bias factor          DIISBfac        ....   1.050
   Max. coefficient     DIISMaxC        ....  10.000
 Newton-Raphson         CNVNR           .... off
 SOSCF                  CNVSOSCF        .... on
   Start iteration      SOSCFMaxIt      ....   150
   Startup grad/error   SOSCFStart      ....  0.003300
 Level Shifting         CNVShift        .... on
   Level shift para.    LevelShift      ....    0.2500
   Turn off err/grad.   ShiftErr        ....    0.0010
 Zerner damping         CNVZerner       .... off
 Static damping         CNVDamp         .... on
   Fraction old density DampFac         ....    0.7000
   Max. Damping (<1)    DampMax         ....    0.9800
   Min. Damping (>=0)   DampMin         ....    0.0000
   Turn off err/grad.   DampErr         ....    0.1000
 Fernandez-Rico         CNVRico         .... off

SCF Procedure:
 Maximum # iterations   MaxIter         ....   125
 SCF integral mode      SCFMode         .... Direct
   Integral package                     .... LIBINT
 Reset frequency        DirectResetFreq ....    20
 Integral Threshold     Thresh          ....  2.500e-11 Eh
 Primitive CutOff       TCut            ....  2.500e-12 Eh

Convergence Tolerance:
 Convergence Check Mode ConvCheckMode   .... Total+1el-Energy
 Convergence forced     ConvForced      .... 1
 Energy Change          TolE            ....  1.000e-08 Eh
 1-El. energy change                    ....  1.000e-05 Eh
 Orbital Gradient       TolG            ....  1.000e-05
 Orbital Rotation angle TolX            ....  1.000e-05
 DIIS Error             TolErr          ....  5.000e-07


Diagonalization of the overlap matrix:
Smallest eigenvalue                        ... 3.066e-06
Time for diagonalization                   ...    3.075 sec
Threshold for overlap eigenvalues          ... 1.000e-08
Number of eigenvalues below threshold      ... 0
Time for construction of square roots      ...    0.978 sec
Total time needed                          ...    4.070 sec

-------------------
DFT GRID GENERATION
-------------------

General Integration Accuracy     IntAcc      ...  4.670
Radial Grid Type                 RadialGrid  ... Gauss-Chebyshev
Angular Grid (max. acc.)         AngularGrid ... Lebedev-302
Angular grid pruning method      GridPruning ... 3 (G Style)
Weight generation scheme         WeightScheme... Becke
Basis function cutoff            BFCut       ...    1.0000e-11
Integration weight cutoff        WCut        ...    1.0000e-14
Grids for H and He will be reduced by one unit

# of grid points (after initial pruning)     ... 532648 (   1.3 sec)
# of grid points (after weights+screening)   ... 454872 (  15.4 sec)
nearest neighbour list constructed           ...    0.0 sec
Grid point re-assignment to atoms done       ...    0.1 sec
Grid point division into batches done        ...    1.7 sec
Reduced shell lists constructed in   16.9 sec

Total number of grid points                  ...   454872
Total number of batches                      ...     7159
Average number of points per batch           ...       63
Average number of grid points per atom       ...     4642
Average number of shells per batch           ...   161.85 (18.19%)
Average number of basis functions per batch  ...   408.36 (17.29%)
Average number of large shells per batch     ...    98.42 (60.81%)
Average number of large basis fcns per batch ...   252.04 (61.72%)
Maximum spatial batch extension              ...  20.70, 21.17, 22.41 au
Average spatial batch extension              ...   2.18,  2.23,  2.15 au

Time for grid setup =   33.653 sec

------------------------------
INITIAL GUESS: MODEL POTENTIAL
------------------------------
Loading Hartree-Fock densities                     ... done
Calculating cut-offs                               ... done
Setting up the integral package                    ... done
Initializing the effective Hamiltonian             ... done
Starting the Coulomb interaction                   ... done (  27.0 sec)
Reading the grid                                   ... done
Mapping shells                                     ... done
Starting the XC term evaluation                    ... done (  26.5 sec)
  promolecular density results
     # of electrons  =    513.985507291
     EX              =   -488.589757561
     EC              =    -18.361433575
     EX+EC           =   -506.951191136
Transforming the Hamiltonian                       ... done (   0.9 sec)
Diagonalizing the Hamiltonian                      ... done (   3.1 sec)
Back transforming the eigenvectors                 ... done (   0.4 sec)
Now organizing SCF variables                       ... done
                      ------------------
                      INITIAL GUESS DONE (  92.4 sec)
                      ------------------
--------------------
COSX GRID GENERATION
--------------------

General Integration Accuracy     IntAcc      ...  3.340
Radial Grid Type                 RadialGrid  ... Gauss-Chebyshev
Angular Grid (max. acc.)         AngularGrid ... Lebedev-50
Angular grid pruning method      GridPruning ... 3 (G Style)
Weight generation scheme         WeightScheme... Becke
Basis function cutoff            BFCut       ...    1.0000e-11
Integration weight cutoff        WCut        ...    1.0000e-14
Grids for H and He will be reduced by one unit

# of grid points (after initial pruning)     ...  49980 (   0.1 sec)
# of grid points (after weights+screening)   ...  44645 (   1.4 sec)
nearest neighbour list constructed           ...    0.0 sec
Grid point re-assignment to atoms done       ...    0.0 sec
Grid point division into batches done        ...    0.0 sec
Reduced shell lists constructed in    2.0 sec

Total number of grid points                  ...    44645
Total number of batches                      ...      756
Average number of points per batch           ...       59
Average number of grid points per atom       ...      456
Average number of shells per batch           ...   196.55 (22.08%)
Average number of basis functions per batch  ...   503.42 (21.31%)
Average number of large shells per batch     ...   120.90 (61.51%)
Average number of large basis fcns per batch ...   314.55 (62.48%)
Maximum spatial batch extension              ...  19.25, 25.32, 19.87 au
Average spatial batch extension              ...   4.64,  4.94,  4.46 au

Overlap Fitting                  UseSFitting ... on
Constructing numerical overlap ... done (      2.4 sec)
Inverting numerical overlap    ... done (      0.3 sec)
Obtaining analytic overlap     ... done (      0.0 sec)
Final contraction and storage  ... done (      0.5 sec)


General Integration Accuracy     IntAcc      ...  3.670
Radial Grid Type                 RadialGrid  ... Gauss-Chebyshev
Angular Grid (max. acc.)         AngularGrid ... Lebedev-50
Angular grid pruning method      GridPruning ... 3 (G Style)
Weight generation scheme         WeightScheme... Becke
Basis function cutoff            BFCut       ...    1.0000e-11
Integration weight cutoff        WCut        ...    1.0000e-14
Grids for H and He will be reduced by one unit

# of grid points (after initial pruning)     ...  62380 (   0.1 sec)
# of grid points (after weights+screening)   ...  55474 (   1.8 sec)
nearest neighbour list constructed           ...    0.0 sec
Grid point re-assignment to atoms done       ...    0.0 sec
Grid point division into batches done        ...    0.0 sec
Reduced shell lists constructed in    2.9 sec

Total number of grid points                  ...    55474
Total number of batches                      ...      918
Average number of points per batch           ...       60
Average number of grid points per atom       ...      566
Average number of shells per batch           ...   192.08 (21.58%)
Average number of basis functions per batch  ...   490.59 (20.77%)
Average number of large shells per batch     ...   117.50 (61.17%)
Average number of large basis fcns per batch ...   305.05 (62.18%)
Maximum spatial batch extension              ...  23.72, 26.33, 20.11 au
Average spatial batch extension              ...   4.32,  4.62,  4.14 au

Overlap Fitting                  UseSFitting ... on
Constructing numerical overlap ... done (      2.6 sec)
Inverting numerical overlap    ... done (      0.3 sec)
Obtaining analytic overlap     ... done (      0.0 sec)
Final contraction and storage  ... done (      0.5 sec)


General Integration Accuracy     IntAcc      ...  4.010
Radial Grid Type                 RadialGrid  ... Gauss-Chebyshev
Angular Grid (max. acc.)         AngularGrid ... Lebedev-110
Angular grid pruning method      GridPruning ... 3 (G Style)
Weight generation scheme         WeightScheme... Becke
Basis function cutoff            BFCut       ...    1.0000e-11
Integration weight cutoff        WCut        ...    1.0000e-14
Grids for H and He will be reduced by one unit

# of grid points (after initial pruning)     ... 121848 (   0.2 sec)
# of grid points (after weights+screening)   ... 107243 (   3.6 sec)
nearest neighbour list constructed           ...    0.0 sec
Grid point re-assignment to atoms done       ...    0.0 sec
Grid point division into batches done        ...    0.1 sec
Reduced shell lists constructed in    5.0 sec

Total number of grid points                  ...   107243
Total number of batches                      ...     1724
Average number of points per batch           ...       62
Average number of grid points per atom       ...     1094
Average number of shells per batch           ...   181.97 (20.45%)
Average number of basis functions per batch  ...   463.88 (19.64%)
Average number of large shells per batch     ...   111.98 (61.54%)
Average number of large basis fcns per batch ...   290.06 (62.53%)
Maximum spatial batch extension              ...  27.53, 23.04, 20.90 au
Average spatial batch extension              ...   3.56,  3.69,  3.43 au

Overlap Fitting                  UseSFitting ... on
Constructing numerical overlap ... done (      4.5 sec)
Inverting numerical overlap    ... done (      0.3 sec)
Obtaining analytic overlap     ... done (      0.0 sec)
Final contraction and storage  ... done (      0.5 sec)

Time for X-Grid setup             =   29.003 sec
--------------
SCF ITERATIONS
--------------
ITER       Energy         Delta-E        Max-DP      RMS-DP      [F,P]     Damp
               ***  Starting incremental Fock matrix formation  ***
  0  -4617.4659304542   0.000000000000 0.17585496  0.00096800  0.2987689 0.7000
  1  -4618.2434647884  -0.777534334227 0.15294520  0.00082444  0.1027892 0.7000
                               ***Turning on DIIS***
  2  -4618.5210979815  -0.277633193085 0.17654566  0.00111644  0.0443920 0.0000
  3  -4618.9953295265  -0.474231545033 0.16350566  0.00078902  0.0569636 0.0000
  4  -4619.0881106421  -0.092781115623 0.04311099  0.00023549  0.0347962 0.0000
  5  -4619.0994710526  -0.011360410417 0.02258571  0.00010663  0.0095780 0.0000
                      *** Initiating the SOSCF procedure ***
                           *** Shutting down DIIS ***
                      *** Re-Reading the Fockian *** 
                      *** Removing any level shift *** 
ITER      Energy       Delta-E        Grad      Rot      Max-DP    RMS-DP
  6  -4619.10042292  -0.0009518665  0.001182  0.001182  0.006987  0.000032
               *** Restarting incremental Fock matrix formation ***
  7  -4619.10053618  -0.0001132568  0.000640  0.007974  0.009159  0.000055
  8  -4619.10056545  -0.0000292789  0.000344  0.007071  0.004711  0.000030
  9  -4619.10056877  -0.0000033169  0.000632  0.005340  0.004420  0.000026
 10  -4619.10058252  -0.0000137480  0.000181  0.001292  0.001962  0.000012
 11  -4619.10058278  -0.0000002598  0.000215  0.001356  0.001601  0.000010
 12  -4619.10058601  -0.0000032323  0.000111  0.000566  0.000932  0.000006
 13  -4619.10058550   0.0000005150  0.000091  0.000563  0.000759  0.000005
 14  -4619.10058691  -0.0000014097  0.000020  0.000174  0.000378  0.000002
 15  -4619.10058675   0.0000001550  0.000030  0.000157  0.000274  0.000001
 16  -4619.10058705  -0.0000003033  0.000005  0.000029  0.000359  0.000001
 17  -4619.10058705   0.0000000055  0.000010  0.000024  0.000394  0.000001
 18  -4619.10058707  -0.0000000226  0.000003  0.000016  0.001066  0.000002
 19  -4619.10058708  -0.0000000040  0.000005  0.000012  0.000132  0.000000
                  ***Gradient check signals convergence***
              ***Rediagonalizing the Fockian in SOSCF/NRSCF***

               *****************************************************
               *                     SUCCESS                       *
               *           SCF CONVERGED AFTER  20 CYCLES          *
               *****************************************************

Setting up the final grid:

General Integration Accuracy     IntAcc      ...  5.010
Radial Grid Type                 RadialGrid  ... Gauss-Chebyshev
Angular Grid (max. acc.)         AngularGrid ... Lebedev-434
Angular grid pruning method      GridPruning ... 3 (G Style)
Weight generation scheme         WeightScheme... Becke
Basis function cutoff            BFCut       ...    1.0000e-11
Integration weight cutoff        WCut        ...    1.0000e-14
Grids for H and He will be reduced by one unit

# of grid points (after initial pruning)     ... 940812 (   1.4 sec)
# of grid points (after weights+screening)   ... 800682 (  25.5 sec)
nearest neighbour list constructed           ...    0.0 sec
Grid point re-assignment to atoms done       ...    0.1 sec
Grid point division into batches done        ...    5.3 sec
Reduced shell lists constructed in   27.5 sec

Total number of grid points                  ...   800682
Total number of batches                      ...    12560
Average number of points per batch           ...       63
Average number of grid points per atom       ...     8170
Average number of shells per batch           ...   156.37 (17.57%)
Average number of basis functions per batch  ...   392.71 (16.63%)
Average number of large shells per batch     ...    94.81 (60.63%)
Average number of large basis fcns per batch ...   241.90 (61.60%)
Maximum spatial batch extension              ...  21.56, 22.82, 21.64 au
Average spatial batch extension              ...   1.78,  1.80,  1.77 au

Final grid set up in   54.5 sec
Final integration                            ... done (  53.3 sec)
Change in XC energy                          ...    -0.000114798
Integrated number of electrons               ...   514.000007227
Previous integrated no of electrons          ...   513.999399565
Old exchange energy                            =    -98.599165591 Eh
New exchange energy                            =    -98.600491527 Eh
Exchange energy change after final integration =     -0.001325935 Eh
Total energy after final integration           =  -4619.102027763 Eh
Final COS-X integration done in                =  1479.431 sec

----------------
TOTAL SCF ENERGY
----------------

Total Energy       :        -4619.10202776 Eh         -125692.15624 eV

Components:
Nuclear Repulsion  :        10480.40558525 Eh          285186.33457 eV
Electronic Energy  :       -15099.50761302 Eh         -410878.49081 eV
One Electron Energy:       -27204.39661853 Eh         -740269.26655 eV
Two Electron Energy:        12104.88900551 Eh          329390.77574 eV

Virial components:
Potential Energy   :        -9224.23418015 Eh         -251004.17285 eV
Kinetic Energy     :         4605.13215239 Eh          125312.01661 eV
Virial Ratio       :            2.00303354


DFT components:
N(Alpha)           :      257.000003613692 electrons
N(Beta)            :      257.000003613692 electrons
N(Total)           :      514.000007227384 electrons
E(X)               :     -392.085725710538 Eh       
E(C)               :      -21.549229544973 Eh       
E(XC)              :     -413.634955255511 Eh       
DFET-embed. en.    :        0.000000000000 Eh       

---------------
SCF CONVERGENCE
---------------

  Last Energy change         ...    4.5215e-08  Tolerance :   1.0000e-08
  Last MAX-Density change    ...    3.9968e-15  Tolerance :   1.0000e-07
  Last RMS-Density change    ...    1.2563e-17  Tolerance :   5.0000e-09
  Last Orbital Gradient      ...    5.6208e-07  Tolerance :   1.0000e-05
  Last Orbital Rotation      ...    4.1108e-06  Tolerance :   1.0000e-05

             **** THE GBW FILE WAS UPDATED (M34.gbw) ****
             **** DENSITY FILE WAS UPDATED (M34.scfp) ****
             **** ENERGY FILE WAS UPDATED (M34.en.tmp) ****
             **** THE GBW FILE WAS UPDATED (M34.gbw) ****
             **** DENSITY FILE WAS UPDATED (M34.scfp) ****
----------------
ORBITAL ENERGIES
----------------

  NO   OCC          E(Eh)            E(eV) 
   0   2.0000     -88.907324     -2419.2913 
   1   2.0000     -88.905767     -2419.2489 
   2   2.0000     -88.902220     -2419.1524 
   3   2.0000     -88.901867     -2419.1428 
   4   2.0000     -24.724605      -672.7907 
   5   2.0000     -24.723853      -672.7702 
   6   2.0000     -24.723413      -672.7583 
   7   2.0000     -24.722814      -672.7420 
   8   2.0000     -19.188989      -522.1589 
   9   2.0000     -19.178368      -521.8699 
  10   2.0000     -19.137940      -520.7698 
  11   2.0000     -19.129869      -520.5502 
  12   2.0000     -14.397362      -391.7721 
  13   2.0000     -14.396899      -391.7595 
  14   2.0000     -14.330883      -389.9632 
  15   2.0000     -14.329536      -389.9265 
  16   2.0000     -14.329050      -389.9133 
  17   2.0000     -14.326288      -389.8381 
  18   2.0000     -10.299108      -280.2530 
  19   2.0000     -10.299085      -280.2523 
  20   2.0000     -10.298483      -280.2360 
  21   2.0000     -10.298220      -280.2288 
  22   2.0000     -10.280089      -279.7354 
  23   2.0000     -10.276551      -279.6392 
  24   2.0000     -10.275215      -279.6028 
  25   2.0000     -10.263366      -279.2804 
  26   2.0000     -10.255986      -279.0796 
  27   2.0000     -10.255902      -279.0773 
  28   2.0000     -10.255588      -279.0687 
  29   2.0000     -10.255249      -279.0595 
  30   2.0000     -10.254415      -279.0368 
  31   2.0000     -10.250698      -278.9357 
  32   2.0000     -10.249927      -278.9147 
  33   2.0000     -10.248896      -278.8866 
  34   2.0000     -10.240997      -278.6717 
  35   2.0000     -10.237751      -278.5834 
  36   2.0000     -10.237612      -278.5796 
  37   2.0000     -10.237467      -278.5757 
  38   2.0000     -10.235810      -278.5305 
  39   2.0000     -10.234998      -278.5085 
  40   2.0000     -10.234113      -278.4844 
  41   2.0000     -10.231936      -278.4251 
  42   2.0000     -10.230026      -278.3732 
  43   2.0000     -10.229917      -278.3702 
  44   2.0000     -10.229484      -278.3584 
  45   2.0000     -10.229304      -278.3535 
  46   2.0000     -10.229043      -278.3464 
  47   2.0000     -10.228949      -278.3439 
  48   2.0000     -10.228012      -278.3184 
  49   2.0000     -10.227927      -278.3160 
  50   2.0000     -10.227774      -278.3119 
  51   2.0000     -10.226703      -278.2827 
  52   2.0000     -10.226617      -278.2804 
  53   2.0000     -10.225837      -278.2592 
  54   2.0000     -10.225754      -278.2569 
  55   2.0000     -10.225172      -278.2411 
  56   2.0000     -10.219698      -278.0921 
  57   2.0000     -10.219168      -278.0777 
  58   2.0000     -10.219031      -278.0740 
  59   2.0000     -10.218328      -278.0548 
  60   2.0000     -10.217405      -278.0297 
  61   2.0000     -10.216903      -278.0161 
  62   2.0000     -10.215465      -277.9769 
  63   2.0000     -10.215231      -277.9706 
  64   2.0000     -10.211642      -277.8729 
  65   2.0000     -10.210046      -277.8295 
  66   2.0000     -10.187817      -277.2246 
  67   2.0000     -10.187671      -277.2206 
  68   2.0000     -10.185513      -277.1619 
  69   2.0000     -10.179819      -277.0070 
  70   2.0000      -7.983281      -217.2361 
  71   2.0000      -7.982312      -217.2098 
  72   2.0000      -7.978272      -217.0998 
  73   2.0000      -7.976901      -217.0625 
  74   2.0000      -5.946035      -161.7998 
  75   2.0000      -5.945330      -161.7807 
  76   2.0000      -5.942289      -161.6979 
  77   2.0000      -5.941610      -161.6794 
  78   2.0000      -5.941222      -161.6689 
  79   2.0000      -5.939935      -161.6338 
  80   2.0000      -5.939419      -161.6198 
  81   2.0000      -5.937723      -161.5737 
  82   2.0000      -5.937474      -161.5669 
  83   2.0000      -5.935708      -161.5188 
  84   2.0000      -5.933887      -161.4693 
  85   2.0000      -5.932861      -161.4414 
  86   2.0000      -1.267066       -34.4786 
  87   2.0000      -1.266939       -34.4752 
  88   2.0000      -1.253658       -34.1138 
  89   2.0000      -1.253608       -34.1124 
  90   2.0000      -1.104707       -30.0606 
  91   2.0000      -1.092475       -29.7278 
  92   2.0000      -1.069454       -29.1013 
  93   2.0000      -1.061050       -28.8726 
  94   2.0000      -1.033298       -28.1175 
  95   2.0000      -1.032687       -28.1008 
  96   2.0000      -0.945901       -25.7393 
  97   2.0000      -0.945361       -25.7246 
  98   2.0000      -0.927451       -25.2372 
  99   2.0000      -0.926588       -25.2137 
 100   2.0000      -0.926344       -25.2071 
 101   2.0000      -0.925388       -25.1811 
 102   2.0000      -0.923553       -25.1312 
 103   2.0000      -0.909265       -24.7424 
 104   2.0000      -0.908026       -24.7087 
 105   2.0000      -0.901943       -24.5431 
 106   2.0000      -0.879534       -23.9333 
 107   2.0000      -0.878993       -23.9186 
 108   2.0000      -0.856233       -23.2993 
 109   2.0000      -0.836973       -22.7752 
 110   2.0000      -0.829712       -22.5776 
 111   2.0000      -0.826665       -22.4947 
 112   2.0000      -0.822090       -22.3702 
 113   2.0000      -0.814212       -22.1558 
 114   2.0000      -0.804990       -21.9049 
 115   2.0000      -0.801850       -21.8194 
 116   2.0000      -0.799861       -21.7653 
 117   2.0000      -0.799641       -21.7593 
 118   2.0000      -0.786268       -21.3954 
 119   2.0000      -0.781771       -21.2731 
 120   2.0000      -0.777145       -21.1472 
 121   2.0000      -0.776518       -21.1301 
 122   2.0000      -0.760289       -20.6885 
 123   2.0000      -0.753761       -20.5109 
 124   2.0000      -0.744113       -20.2483 
 125   2.0000      -0.740445       -20.1485 
 126   2.0000      -0.724190       -19.7062 
 127   2.0000      -0.720990       -19.6191 
 128   2.0000      -0.704184       -19.1618 
 129   2.0000      -0.701778       -19.0963 
 130   2.0000      -0.696962       -18.9653 
 131   2.0000      -0.685967       -18.6661 
 132   2.0000      -0.675760       -18.3884 
 133   2.0000      -0.666620       -18.1397 
 134   2.0000      -0.664277       -18.0759 
 135   2.0000      -0.656727       -17.8704 
 136   2.0000      -0.648984       -17.6598 
 137   2.0000      -0.644079       -17.5263 
 138   2.0000      -0.637929       -17.3589 
 139   2.0000      -0.632118       -17.2008 
 140   2.0000      -0.619110       -16.8468 
 141   2.0000      -0.617418       -16.8008 
 142   2.0000      -0.614167       -16.7123 
 143   2.0000      -0.607446       -16.5294 
 144   2.0000      -0.604350       -16.4452 
 145   2.0000      -0.597805       -16.2671 
 146   2.0000      -0.589301       -16.0357 
 147   2.0000      -0.580669       -15.8008 
 148   2.0000      -0.578144       -15.7321 
 149   2.0000      -0.576169       -15.6784 
 150   2.0000      -0.575409       -15.6577 
 151   2.0000      -0.572572       -15.5805 
 152   2.0000      -0.570207       -15.5161 
 153   2.0000      -0.553830       -15.0705 
 154   2.0000      -0.547576       -14.9003 
 155   2.0000      -0.545673       -14.8485 
 156   2.0000      -0.542973       -14.7750 
 157   2.0000      -0.539007       -14.6671 
 158   2.0000      -0.536879       -14.6092 
 159   2.0000      -0.532445       -14.4886 
 160   2.0000      -0.527081       -14.3426 
 161   2.0000      -0.523887       -14.2557 
 162   2.0000      -0.520541       -14.1646 
 163   2.0000      -0.519129       -14.1262 
 164   2.0000      -0.518901       -14.1200 
 165   2.0000      -0.515793       -14.0354 
 166   2.0000      -0.513730       -13.9793 
 167   2.0000      -0.502358       -13.6699 
 168   2.0000      -0.496304       -13.5051 
 169   2.0000      -0.495670       -13.4879 
 170   2.0000      -0.493484       -13.4284 
 171   2.0000      -0.489934       -13.3318 
 172   2.0000      -0.484626       -13.1873 
 173   2.0000      -0.484211       -13.1760 
 174   2.0000      -0.483942       -13.1687 
 175   2.0000      -0.483880       -13.1670 
 176   2.0000      -0.483841       -13.1660 
 177   2.0000      -0.483765       -13.1639 
 178   2.0000      -0.478444       -13.0191 
 179   2.0000      -0.471489       -12.8299 
 180   2.0000      -0.469136       -12.7658 
 181   2.0000      -0.468324       -12.7437 
 182   2.0000      -0.466259       -12.6876 
 183   2.0000      -0.463800       -12.6206 
 184   2.0000      -0.462235       -12.5780 
 185   2.0000      -0.460718       -12.5368 
 186   2.0000      -0.458081       -12.4650 
 187   2.0000      -0.457479       -12.4486 
 188   2.0000      -0.447989       -12.1904 
 189   2.0000      -0.445154       -12.1133 
 190   2.0000      -0.437787       -11.9128 
 191   2.0000      -0.435494       -11.8504 
 192   2.0000      -0.434515       -11.8238 
 193   2.0000      -0.431386       -11.7386 
 194   2.0000      -0.430540       -11.7156 
 195   2.0000      -0.429926       -11.6989 
 196   2.0000      -0.428931       -11.6718 
 197   2.0000      -0.427412       -11.6305 
 198   2.0000      -0.427152       -11.6234 
 199   2.0000      -0.424597       -11.5539 
 200   2.0000      -0.422401       -11.4941 
 201   2.0000      -0.421886       -11.4801 
 202   2.0000      -0.419210       -11.4073 
 203   2.0000      -0.417753       -11.3676 
 204   2.0000      -0.413118       -11.2415 
 205   2.0000      -0.410781       -11.1779 
 206   2.0000      -0.408975       -11.1288 
 207   2.0000      -0.406246       -11.0545 
 208   2.0000      -0.405348       -11.0301 
 209   2.0000      -0.403381       -10.9765 
 210   2.0000      -0.400784       -10.9059 
 211   2.0000      -0.398130       -10.8337 
 212   2.0000      -0.394157       -10.7255 
 213   2.0000      -0.392819       -10.6891 
 214   2.0000      -0.390706       -10.6316 
 215   2.0000      -0.388353       -10.5676 
 216   2.0000      -0.388044       -10.5592 
 217   2.0000      -0.387463       -10.5434 
 218   2.0000      -0.386322       -10.5124 
 219   2.0000      -0.382983       -10.4215 
 220   2.0000      -0.382523       -10.4090 
 221   2.0000      -0.382335       -10.4039 
 222   2.0000      -0.380544       -10.3551 
 223   2.0000      -0.379652       -10.3309 
 224   2.0000      -0.377277       -10.2662 
 225   2.0000      -0.372929       -10.1479 
 226   2.0000      -0.368400       -10.0247 
 227   2.0000      -0.365861        -9.9556 
 228   2.0000      -0.364352        -9.9145 
 229   2.0000      -0.363516        -9.8918 
 230   2.0000      -0.362579        -9.8663 
 231   2.0000      -0.360066        -9.7979 
 232   2.0000      -0.357406        -9.7255 
 233   2.0000      -0.352576        -9.5941 
 234   2.0000      -0.349142        -9.5006 
 235   2.0000      -0.348571        -9.4851 
 236   2.0000      -0.345572        -9.4035 
 237   2.0000      -0.344205        -9.3663 
 238   2.0000      -0.340253        -9.2588 
 239   2.0000      -0.332596        -9.0504 
 240   2.0000      -0.318233        -8.6596 
 241   2.0000      -0.313549        -8.5321 
 242   2.0000      -0.304186        -8.2773 
 243   2.0000      -0.295608        -8.0439 
 244   2.0000      -0.295114        -8.0305 
 245   2.0000      -0.292845        -7.9687 
 246   2.0000      -0.286852        -7.8056 
 247   2.0000      -0.279159        -7.5963 
 248   2.0000      -0.278029        -7.5655 
 249   2.0000      -0.276247        -7.5171 
 250   2.0000      -0.266501        -7.2518 
 251   2.0000      -0.264277        -7.1913 
 252   2.0000      -0.256975        -6.9927 
 253   2.0000      -0.241408        -6.5690 
 254   2.0000      -0.231565        -6.3012 
 255   2.0000      -0.225915        -6.1475 
 256   2.0000      -0.203275        -5.5314 
 257   0.0000      -0.133586        -3.6351 
 258   0.0000      -0.123459        -3.3595 
 259   0.0000      -0.108617        -2.9556 
 260   0.0000      -0.104114        -2.8331 
 261   0.0000      -0.068982        -1.8771 
 262   0.0000      -0.054318        -1.4781 
 263   0.0000      -0.040280        -1.0961 
 264   0.0000      -0.037147        -1.0108 
 265   0.0000      -0.023721        -0.6455 
 266   0.0000      -0.019600        -0.5333 
 267   0.0000      -0.018073        -0.4918 
 268   0.0000      -0.015924        -0.4333 
 269   0.0000      -0.013576        -0.3694 
 270   0.0000      -0.007491        -0.2038 
 271   0.0000       0.001824         0.0496 
 272   0.0000       0.003225         0.0878 
 273   0.0000       0.007294         0.1985 
 274   0.0000       0.008741         0.2379 
 275   0.0000       0.010236         0.2785 
 276   0.0000       0.015538         0.4228 
 277   0.0000       0.017441         0.4746 
 278   0.0000       0.022627         0.6157 
 279   0.0000       0.026412         0.7187 
 280   0.0000       0.030339         0.8256 
 281   0.0000       0.030395         0.8271 
 282   0.0000       0.030652         0.8341 
 283   0.0000       0.031217         0.8495 
 284   0.0000       0.032921         0.8958 
 285   0.0000       0.036744         0.9999 
 286   0.0000       0.037461         1.0194 
 287   0.0000       0.039762         1.0820 
 288   0.0000       0.042113         1.1459 
 289   0.0000       0.044414         1.2086 
 290   0.0000       0.045808         1.2465 
 291   0.0000       0.048589         1.3222 
 292   0.0000       0.049938         1.3589 
 293   0.0000       0.052365         1.4249 
 294   0.0000       0.053338         1.4514 
 295   0.0000       0.059019         1.6060 
 296   0.0000       0.060446         1.6448 
 297   0.0000       0.062349         1.6966 
 298   0.0000       0.065578         1.7845 
 299   0.0000       0.067048         1.8245 
 300   0.0000       0.067230         1.8294 
 301   0.0000       0.069766         1.8984 
 302   0.0000       0.072959         1.9853 
 303   0.0000       0.075060         2.0425 
 304   0.0000       0.076903         2.0926 
 305   0.0000       0.079510         2.1636 
 306   0.0000       0.080831         2.1995 
[...]
   251a -> 259a  :     0.022340 (c=  0.14946677)
   251a -> 260a  :     0.164602 (c=  0.40571133)
   255a -> 264a  :     0.010945 (c=  0.10461641)
   256a -> 263a  :     0.188508 (c=  0.43417529)
   256a -> 265a  :     0.033176 (c=  0.18214257)

STATE 45:  E=   0.152402 au      4.147 eV    33448.3 cm**-1
   243a -> 257a  :     0.012801 (c= -0.11314289)
   244a -> 257a  :     0.103676 (c=  0.32198721)
   246a -> 258a  :     0.300398 (c=  0.54808546)
   247a -> 258a  :     0.019099 (c=  0.13819758)
   247a -> 260a  :     0.012002 (c=  0.10955526)
   249a -> 260a  :     0.029959 (c= -0.17308674)
   250a -> 259a  :     0.025373 (c=  0.15928941)
   250a -> 260a  :     0.051211 (c=  0.22629885)
   251a -> 259a  :     0.078150 (c= -0.27955244)
   251a -> 260a  :     0.017555 (c=  0.13249549)
   253a -> 261a  :     0.024706 (c=  0.15718284)
   254a -> 261a  :     0.182515 (c=  0.42721717)
   256a -> 264a  :     0.029156 (c=  0.17075036)

STATE 46:  E=   0.152763 au      4.157 eV    33527.6 cm**-1
   242a -> 257a  :     0.023518 (c= -0.15335657)
   243a -> 257a  :     0.023474 (c=  0.15321250)
   244a -> 257a  :     0.089910 (c= -0.29984989)
   245a -> 257a  :     0.018299 (c= -0.13527256)
   246a -> 258a  :     0.041186 (c= -0.20294439)
   247a -> 257a  :     0.012467 (c= -0.11165404)
   247a -> 258a  :     0.021416 (c=  0.14634264)
   247a -> 259a  :     0.038448 (c= -0.19608077)
   249a -> 259a  :     0.021527 (c=  0.14672000)
   250a -> 259a  :     0.012573 (c= -0.11213007)
   251a -> 259a  :     0.118675 (c= -0.34449252)
   251a -> 260a  :     0.068460 (c=  0.26164854)
   253a -> 261a  :     0.044778 (c=  0.21160880)
   254a -> 261a  :     0.134574 (c=  0.36684276)
   255a -> 261a  :     0.078448 (c= -0.28008634)
   256a -> 264a  :     0.158845 (c= -0.39855377)

STATE 47:  E=   0.155321 au      4.227 eV    34089.1 cm**-1
   250a -> 259a  :     0.015374 (c= -0.12399140)
   250a -> 260a  :     0.276417 (c= -0.52575383)
   251a -> 259a  :     0.054297 (c=  0.23301640)
   251a -> 260a  :     0.177462 (c=  0.42126208)
   254a -> 265a  :     0.012220 (c=  0.11054272)
   255a -> 261a  :     0.012429 (c=  0.11148749)
   256a -> 264a  :     0.015652 (c=  0.12510609)
   256a -> 265a  :     0.300145 (c= -0.54785506)
   256a -> 267a  :     0.012871 (c= -0.11345221)

STATE 48:  E=   0.155670 au      4.236 eV    34165.6 cm**-1
   242a -> 257a  :     0.014056 (c= -0.11855958)
   247a -> 259a  :     0.010251 (c=  0.10124921)
   250a -> 260a  :     0.213284 (c= -0.46182659)
   251a -> 259a  :     0.015596 (c=  0.12488375)
   251a -> 260a  :     0.049391 (c=  0.22224188)
   254a -> 265a  :     0.022308 (c= -0.14936006)
   255a -> 264a  :     0.011832 (c= -0.10877295)
   256a -> 263a  :     0.032466 (c= -0.18018225)
   256a -> 265a  :     0.507088 (c=  0.71210108)
   256a -> 268a  :     0.018418 (c=  0.13571202)

STATE 49:  E=   0.157328 au      4.281 eV    34529.6 cm**-1
   243a -> 258a  :     0.022632 (c= -0.15044065)
   244a -> 258a  :     0.240037 (c=  0.48993546)
   245a -> 258a  :     0.322838 (c=  0.56818843)
   246a -> 257a  :     0.024549 (c=  0.15668046)
   246a -> 259a  :     0.024349 (c= -0.15604032)
   247a -> 257a  :     0.015847 (c=  0.12588651)
   247a -> 259a  :     0.089406 (c= -0.29900826)
   249a -> 259a  :     0.057487 (c=  0.23976477)
   250a -> 258a  :     0.015260 (c=  0.12353006)
   250a -> 259a  :     0.014527 (c= -0.12052733)
   251a -> 260a  :     0.013407 (c=  0.11578695)
   254a -> 262a  :     0.010683 (c=  0.10335874)
   255a -> 261a  :     0.015260 (c=  0.12353019)
   256a -> 263a  :     0.010091 (c= -0.10045170)
   256a -> 264a  :     0.023054 (c=  0.15183699)

STATE 50:  E=   0.157883 au      4.296 eV    34651.3 cm**-1
   242a -> 257a  :     0.205655 (c= -0.45349187)
   243a -> 258a  :     0.045586 (c=  0.21350878)
   244a -> 258a  :     0.012898 (c= -0.11356889)
   245a -> 257a  :     0.011756 (c=  0.10842574)
   247a -> 259a  :     0.014787 (c= -0.12160072)
   250a -> 259a  :     0.051074 (c=  0.22599449)
   250a -> 260a  :     0.013156 (c=  0.11469968)
   251a -> 258a  :     0.011813 (c=  0.10868967)
   251a -> 260a  :     0.012890 (c=  0.11353535)
   253a -> 261a  :     0.317325 (c= -0.56331634)
   255a -> 262a  :     0.167814 (c=  0.40965110)


-----------------------------
TD-DFT/TDA-EXCITATION SPECTRA
-----------------------------

Center of mass = ( -0.8488, -1.4345,  0.1719)
Calculating the Dipole integrals                  ... done
Transforming integrals                            ... done
Calculating the Linear Momentum integrals         ... done
Transforming integrals                            ... done
Calculating angular momentum integrals            ... done
Transforming integrals                            ... done

-----------------------------------------------------------------------------
         ABSORPTION SPECTRUM VIA TRANSITION ELECTRIC DIPOLE MOMENTS
-----------------------------------------------------------------------------
State   Energy    Wavelength  fosc         T2        TX        TY        TZ  
        (cm-1)      (nm)                 (au**2)    (au)      (au)      (au) 
-----------------------------------------------------------------------------
   1   14031.7    712.7   1.722035998  40.40256  -5.31049   3.40226  -0.79111
   2   15872.5    630.0   0.085693660   1.77738  -0.84586   0.94222  -0.41729
   3   17927.0    557.8   0.905214841  16.62335  -3.55941   1.94510   0.41301
   4   18478.7    541.2   0.378716573   6.74714   1.98937  -1.52831   0.67365
   5   19084.9    524.0   0.336562495   5.80565  -1.83727   1.51627  -0.36196
   6   19400.2    515.5   0.013707688   0.23261  -0.39097   0.27707  -0.05465
   7   20830.4    480.1   0.017930947   0.28339  -0.47678  -0.07060   0.22601
   8   21573.5    463.5   0.066107023   1.00879   0.94891  -0.28584  -0.16329
   9   22149.9    451.5   0.129609098   1.92637  -0.58177   1.07899  -0.65091
  10   22827.2    438.1   0.012525285   0.18064   0.17717  -0.34573   0.17238
  11   23502.9    425.5   0.375066478   5.25367  -1.88028   1.30280  -0.14458
  12   24319.8    411.2   0.042667786   0.57758   0.02967   0.52669  -0.54708
  13   24523.8    407.8   0.061094784   0.82015   0.40605  -0.66653   0.45936
  14   24563.4    407.1   0.016228734   0.21751  -0.41102   0.21359   0.05429
  15   25527.0    391.7   0.034942423   0.45064   0.52886  -0.28400   0.30049
  16   25904.0    386.0   0.041627540   0.52904  -0.51856   0.50961  -0.02096
  17   26273.6    380.6   0.010328779   0.12942  -0.30165   0.19113  -0.04355
  18   26298.3    380.3   0.010493940   0.13137   0.27271  -0.23327   0.05082
  19   26557.0    376.5   0.025529373   0.31647   0.50135  -0.24716   0.06352
  20   27035.3    369.9   0.002751503   0.03351   0.08208   0.12145   0.10963
  21   27289.0    366.4   0.019092740   0.23033   0.08023   0.24723  -0.40345
  22   27455.2    364.2   0.243178997   2.91593   0.92543  -1.07853   0.94673
  23   27461.7    364.1   0.000587757   0.00705   0.04227  -0.06349   0.03504
  24   27695.6    361.1   0.022950035   0.27280  -0.04025   0.23992  -0.46219
  25   27920.0    358.2   0.057321669   0.67589  -0.52635   0.59750   0.20456
  26   29406.9    340.1   0.034084490   0.38158   0.33625  -0.39484  -0.33558
  27   29641.3    337.4   0.074751659   0.83023   0.70175  -0.57151  -0.10562
  28   29963.8    333.7   0.001527860   0.01679  -0.08157   0.09716  -0.02633
  29   30046.1    332.8   0.053956335   0.59119   0.00574   0.47959  -0.60096
  30   30252.9    330.5   0.001268039   0.01380   0.03309   0.03510  -0.10711
  31   30756.8    325.1   0.006266751   0.06708   0.18252   0.02463  -0.18210
  32   30867.9    324.0   0.008973408   0.09570  -0.18246   0.18989   0.16233
  33   31177.2    320.7   0.015973406   0.16867  -0.30615   0.24258   0.12687
  34   31458.7    317.9   0.011031431   0.11544   0.15879  -0.29700   0.04493
  35   31593.4    316.5   0.000197002   0.00205  -0.02470   0.03799  -0.00005
  36   31773.5    314.7   0.006765402   0.07010   0.11993  -0.17241  -0.16121
  37   31893.9    313.5   0.017158055   0.17711  -0.28140   0.25709   0.17839
  38   32154.2    311.0   0.003058933   0.03132   0.01195  -0.16452  -0.06409
  39   32202.6    310.5   0.060844135   0.62202  -0.27470   0.51012  -0.53510
  40   32882.8    304.1   0.108194101   1.08320  -0.75717   0.55136   0.45377
  41   32992.6    303.1   0.234566610   2.34059   0.82842  -1.23235   0.36827
  42   33086.7    302.2   0.233528066   2.32360  -0.97052   0.63496   0.98920
  43   33279.7    300.5   0.036080507   0.35692   0.19859   0.30357  -0.47468
  44   33397.7    299.4   0.195663744   1.92872   0.20608   0.92476  -1.01542
  45   33448.3    299.0   0.032566933   0.32054  -0.38382   0.32589   0.25887
  46   33527.6    298.3   0.113521235   1.11468  -0.78767   0.41037   0.57083
  47   34089.1    293.3   0.028414993   0.27441  -0.22323   0.45809  -0.12141
  48   34165.6    292.7   0.022693208   0.21867  -0.33437   0.11413   0.30633
  49   34529.6    289.6   0.056985511   0.54331  -0.17255   0.51942  -0.49371
  50   34651.3    288.6   0.107387596   1.02026  -0.69408   0.67785   0.28111

-----------------------------------------------------------------------------
         ABSORPTION SPECTRUM VIA TRANSITION VELOCITY DIPOLE MOMENTS
-----------------------------------------------------------------------------
State   Energy    Wavelength   fosc        P2         PX        PY        PZ  
        (cm-1)      (nm)                 (au**2)     (au)      (au)      (au) 
-----------------------------------------------------------------------------
   1   14031.7    712.7   0.416861205   0.03998   0.15837  -0.09147  -0.08080
   2   15872.5    630.0   0.009304484   0.00101   0.03078  -0.00367  -0.00695
   3   17927.0    557.8   0.453522878   0.05557   0.12289  -0.14682   0.13751
   4   18478.7    541.2   0.174852003   0.02208  -0.12617   0.05192   0.05889
   5   19084.9    524.0   0.076178014   0.00994   0.09214  -0.03402  -0.01700
   6   19400.2    515.5   0.000681344   0.00009   0.00655  -0.00443  -0.00527
   7   20830.4    480.1   0.007196129   0.00102   0.01819  -0.02126  -0.01555
   8   21573.5    463.5   0.054729510   0.00807  -0.06702   0.05542   0.02252
   9   22149.9    451.5   0.021570159   0.00327   0.04672  -0.03287   0.00130
  10   22827.2    438.1   0.006750318   0.00105  -0.01840   0.00325   0.02653
  11   23502.9    425.5   0.194488080   0.03124   0.12390  -0.10356   0.07186
  12   24319.8    411.2   0.001187825   0.00020   0.00764  -0.01012   0.00605
  13   24523.8    407.8   0.027221454   0.00456  -0.05550   0.03636  -0.01266
  14   24563.4    407.1   0.025717183   0.00432   0.03951  -0.02776  -0.04456
  15   25527.0    391.7   0.053361000   0.00931  -0.06956   0.05246   0.04147
  16   25904.0    386.0   0.014819370   0.00262   0.04636  -0.00789  -0.02030
  17   26273.6    380.6   0.006941734   0.00125   0.01585  -0.03133  -0.00367
  18   26298.3    380.3   0.006845434   0.00123  -0.02863   0.01187  -0.01641
  19   26557.0    376.5   0.009142602   0.00166  -0.03591   0.01910   0.00227
  20   27035.3    369.9   0.009861128   0.00182  -0.02288  -0.00617   0.03550
  21   27289.0    366.4   0.008821785   0.00165  -0.00266  -0.02070   0.03478
  22   27455.2    364.2   0.048513312   0.00910  -0.08739   0.02771   0.02644
  23   27461.7    364.1   0.000171888   0.00003  -0.00554   0.00125   0.00022
  24   27695.6    361.1   0.013347053   0.00253   0.01143   0.01534  -0.04648
  25   27920.0    358.2   0.011270576   0.00215   0.04080   0.01150  -0.01881
  26   29406.9    340.1   0.004800918   0.00096  -0.02724  -0.00175   0.01482
  27   29641.3    337.4   0.044759722   0.00907  -0.05608   0.06068  -0.04734
  28   29963.8    333.7   0.001919928   0.00039  -0.00888   0.01003   0.01462
  29   30046.1    332.8   0.005234672   0.00107   0.01208   0.02022  -0.02281
  30   30252.9    330.5   0.014459957   0.00299  -0.00904   0.04078  -0.03528
  31   30756.8    325.1   0.003025692   0.00064  -0.01519   0.01840  -0.00816
  32   30867.9    324.0   0.003074982   0.00065   0.01744  -0.00278   0.01835
  33   31177.2    320.7   0.008644975   0.00184   0.01833  -0.00798   0.03798
  34   31458.7    317.9   0.004445405   0.00096  -0.03084   0.00206   0.00084
  35   31593.4    316.5   0.000123387   0.00003   0.00504   0.00079  -0.00082
  36   31773.5    314.7   0.004554754   0.00099  -0.02015   0.00124   0.02412
  37   31893.9    313.5   0.005130989   0.00112   0.02513  -0.02188   0.00286
  38   32154.2    311.0   0.002794654   0.00061   0.00382  -0.00774  -0.02323
  39   32202.6    310.5   0.014958214   0.00329   0.03889  -0.03894   0.01623
  40   32882.8    304.1   0.002008406   0.00045   0.01860   0.00750   0.00700
  41   32992.6    303.1   0.054589658   0.01231  -0.08599   0.06887  -0.01308
  42   33086.7    302.2   0.009513328   0.00215   0.03990  -0.00772  -0.02235
  43   33279.7    300.5   0.005493735   0.00125   0.00679   0.00861  -0.03361
  44   33397.7    299.4   0.044070847   0.01006   0.04566   0.04314  -0.07819
  45   33448.3    299.0   0.001077644   0.00025  -0.00095   0.01309   0.00860
  46   33527.6    298.3   0.018662854   0.00428   0.01283  -0.04545   0.04524
  47   34089.1    293.3   0.003729323   0.00087   0.02618  -0.00138  -0.01347
  48   34165.6    292.7   0.004677417   0.00109   0.01629  -0.02322   0.01697
  49   34529.6    289.6   0.007033870   0.00166   0.03120  -0.02533   0.00672
  50   34651.3    288.6   0.002289674   0.00054   0.02235  -0.00509   0.00413

-------------------------------------------------------------------
                             CD SPECTRUM
-------------------------------------------------------------------
State  Energy     Wavelength     R         MX        MY        MZ   
       (cm-1)       (nm)     (1e40*cgs)   (au)      (au)      (au)  
-------------------------------------------------------------------
   1   14031.7    712.7     47.41491  -0.39442  -0.63118  -0.19395
   2   15872.5    630.0      3.86506  -0.04156  -0.08198  -0.12049
   3   17927.0    557.8    -65.95647  -0.19880  -0.40111  -0.16300
   4   18478.7    541.2     11.48307   0.08387   0.14239   0.11153
   5   19084.9    524.0     22.51680  -0.39207  -0.53503  -0.38309
   6   19400.2    515.5      3.85313  -0.53958  -0.79122  -0.30073
   7   20830.4    480.1     49.41160  -0.22057  -0.35768  -0.11330
   8   21573.5    463.5     -0.83573   0.00048   0.02089  -0.02291
   9   22149.9    451.5    -41.31223  -0.17212  -0.24953  -0.12517
  10   22827.2    438.1      5.14606  -0.02670  -0.05502  -0.01959
  11   23502.9    425.5    -23.95236  -0.22936  -0.39575  -0.23190
  12   24319.8    411.2      1.76891   0.01232   0.02722   0.02001
  13   24523.8    407.8     18.83873  -0.11947  -0.16172  -0.04206
  14   24563.4    407.1      0.81888   0.01459   0.02950   0.02638
  15   25527.0    391.7      7.08925   0.12526   0.17541  -0.00463
  16   25904.0    386.0     15.34363  -0.17209  -0.12549  -0.34610
  17   26273.6    380.6    -13.04309   0.13340   0.03436  -0.13793
  18   26298.3    380.3      3.58010  -0.08181  -0.16130  -0.15196
  19   26557.0    376.5     10.59815   0.20406   0.34553   0.08776
  20   27035.3    369.9      6.12235   0.03993   0.09311  -0.01458
  21   27289.0    366.4    -33.97666  -0.08532  -0.18247   0.04985
  22   27455.2    364.2     17.48109   0.07265   0.10767   0.09081
  23   27461.7    364.1     -5.39571  -0.17668   0.10018   0.06802
  24   27695.6    361.1    -21.78670  -0.01876  -0.08108   0.05953
  25   27920.0    358.2    -29.80053  -0.15400  -0.22103  -0.05964
  26   29406.9    340.1     -7.37779   0.06274   0.02329   0.08209
  27   29641.3    337.4    -18.64861   0.12419   0.19430   0.14831
  28   29963.8    333.7     -1.89133   0.01041  -0.02353   0.03329
  29   30046.1    332.8     16.89298   0.01104   0.06669  -0.00630
  30   30252.9    330.5      0.34225  -0.06504  -0.11886  -0.06583
  31   30756.8    325.1     -1.54913   0.05442   0.03667   0.07755
  32   30867.9    324.0      7.68869   0.19208   0.23171   0.04531
  33   31177.2    320.7     -9.32259  -0.08618  -0.17211  -0.03474
  34   31458.7    317.9     12.74565  -0.05196  -0.11605   0.01820
  35   31593.4    316.5      0.83254  -0.02310   0.03150   0.01874
  36   31773.5    314.7      5.40994  -0.00642  -0.04531  -0.02750
  37   31893.9    313.5      7.39759  -0.01696   0.02804   0.02080
  38   32154.2    311.0     -3.77910   0.08081   0.03586   0.04810
  39   32202.6    310.5    -12.92181  -0.13958  -0.21033  -0.07764
  40   32882.8    304.1      3.79605   0.02237   0.01002   0.04290
  41   32992.6    303.1    -67.53721   0.20926   0.31841   0.20581
  42   33086.7    302.2    -52.21221   0.02031  -0.03317  -0.07074
  43   33279.7    300.5     -7.90401   0.00161  -0.02772   0.01826
  44   33397.7    299.4    -53.12107  -0.07353  -0.19045  -0.07740
  45   33448.3    299.0     -5.49807   0.02797  -0.00567   0.00355
  46   33527.6    298.3     12.15025  -0.07522  -0.09800   0.01180
  47   34089.1    293.3     -6.79451  -0.10172  -0.10350  -0.08477
  48   34165.6    292.7     -5.10560  -0.02734  -0.08568  -0.03327
  49   34529.6    289.6    -12.25297  -0.15954  -0.21312  -0.11582
  50   34651.3    288.6    -47.10360  -0.20334  -0.29022  -0.15768

Total run time:   408094.613 sec

           *** ORCA-CIS/TD-DFT FINISHED WITHOUT ERROR ***

-----------------------
CIS/TD-DFT TOTAL ENERGY
-----------------------

    E(SCF)  =  -4619.102027763 Eh
    DE(CIS) =      0.063932932 Eh (Root  1)
    ----------------------------- ---------
    E(tot)  =  -4619.038094832 Eh


-------------------------   --------------------
FINAL SINGLE POINT ENERGY     -4619.038094831862
-------------------------   --------------------


                            ***************************************
                            *     ORCA property calculations      *
                            ***************************************

                                    ---------------------
                                    Active property flags
                                    ---------------------
   (+) Dipole Moment


------------------------------------------------------------------------------
                       ORCA ELECTRIC PROPERTIES CALCULATION
------------------------------------------------------------------------------

Dipole Moment Calculation                       ... on
Quadrupole Moment Calculation                   ... off
Polarizability Calculation                      ... off
GBWName                                         ... M34.gbw
Electron density file                           ... M34.scfp
The origin for moment calculation is the CENTER OF MASS  = (-0.848839, -1.434473  0.171869)

-------------
DIPOLE MOMENT
-------------
                                X             Y             Z
Electronic contribution:     12.45359      14.48197     -21.65106
Nuclear contribution   :    -12.40805     -16.26638      21.19419
                        -----------------------------------------
Total Dipole Moment    :      0.04553      -1.78441      -0.45687
                        -----------------------------------------
Magnitude (a.u.)       :      1.84254
Magnitude (Debye)      :      4.68335



--------------------
Rotational spectrum 
--------------------
 
Rotational constants in cm-1:     0.002794     0.000238     0.000224 
Rotational constants in MHz :    83.755002     7.124170     6.704385 

 Dipole components along the rotational axes: 
x,y,z [a.u.] :     1.018568    -0.103173    -1.531931 
x,y,z [Debye]:     2.588995    -0.262245    -3.893860 

 

Timings for individual modules:

Sum of individual times         ...   424471.542 sec (=7074.526 min)
GTO integral calculation        ...        7.355 sec (=   0.123 min)   0.0 %
SCF iterations                  ...    16369.208 sec (= 272.820 min)   3.9 %
CIS module                      ...   408094.979 sec (=6801.583 min)  96.1 %
                             ****ORCA TERMINATED NORMALLY****
TOTAL RUN TIME: 4 days 21 hours 54 minutes 32 seconds 873 msec
