
                                 *****************
                                 * O   R   C   A *
                                 *****************

           --- An Ab Initio, DFT and Semiempirical electronic structure package ---

                  #######################################################
                  #                        -***-                        #
                  #          Department of theory and spectroscopy      #
                  #               Directorship: Frank Neese             #
                  #        Max Planck Institute fuer Kohlenforschung    #
                  #                Kaiser Wilhelm Platz 1               #
                  #                 D-45470 Muelheim/Ruhr               #
                  #                      Germany                        #
                  #                                                     #
                  #                  All rights reserved                #
                  #                        -***-                        #
                  #######################################################


                         Program Version 4.2.0 -  RELEASE  -


 With contributions from (in alphabetic order):
   Daniel Aravena         : Magnetic Suceptibility
   Michael Atanasov       : Ab Initio Ligand Field Theory (pilot matlab implementation)
   Alexander A. Auer      : GIAO ZORA, VPT2
   Ute Becker             : Parallelization
   Giovanni Bistoni       : ED, misc. LED, open-shell LED, HFLED
   Martin Brehm           : Molecular dynamics
   Dmytro Bykov           : SCF Hessian
   Vijay G. Chilkuri      : MRCI spin determinant printing, contributions to CSF-ICE
   Dipayan Datta          : RHF DLPNO-CCSD density
   Achintya Kumar Dutta   : EOM-CC, STEOM-CC
   Dmitry Ganyushin       : Spin-Orbit,Spin-Spin,Magnetic field MRCI
   Miquel Garcia          : C-PCM Hessian, Gaussian charge scheme
   Yang Guo               : DLPNO-NEVPT2, CIM, IAO-localization
   Andreas Hansen         : Spin unrestricted coupled pair/coupled cluster methods
   Benjamin Helmich-Paris : CASSCF linear response (MC-RPA)
   Lee Huntington         : MR-EOM, pCC
   Robert Izsak           : Overlap fitted RIJCOSX, COSX-SCS-MP3, EOM
   Christian Kollmar      : KDIIS, OOCD, Brueckner-CCSD(T), CCSD density
   Simone Kossmann        : Meta GGA functionals, TD-DFT gradient, OOMP2, MP2 Hessian
   Martin Krupicka        : AUTO-CI
   Lucas Lang             : DCDCAS
   Dagmar Lenk            : GEPOL surface, SMD
   Dimitrios Liakos       : Extrapolation schemes; Compound Job, initial MDCI parallelization
   Dimitrios Manganas     : Further ROCIS development; embedding schemes
   Dimitrios Pantazis     : SARC Basis sets
   Taras Petrenko         : DFT Hessian,TD-DFT gradient, ASA, ECA, R-Raman, ABS, FL, XAS/XES, NRVS
   Peter Pinski           : DLPNO-MP2, DLPNO-MP2 Gradient
   Christoph Reimann      : Effective Core Potentials
   Marius Retegan         : Local ZFS, SOC
   Christoph Riplinger    : Optimizer, TS searches, QM/MM, DLPNO-CCSD(T), (RO)-DLPNO pert. Triples
   Tobias Risthaus        : Range-separated hybrids, TD-DFT gradient, RPA, STAB
   Michael Roemelt        : Original ROCIS implementation
   Masaaki Saitow         : Open-shell DLPNO-CCSD energy and density
   Barbara Sandhoefer     : DKH picture change effects
   Avijit Sen             : IP-ROCIS
   Kantharuban Sivalingam : CASSCF convergence, NEVPT2, FIC-MRCI
   Bernardo de Souza      : ESD, SOC TD-DFT
   Georgi Stoychev        : AutoAux, RI-MP2 NMR
   Willem Van den Heuvel  : Paramagnetic NMR
   Boris Wezisla          : Elementary symmetry handling
   Frank Wennmohs         : Technical directorship


 We gratefully acknowledge several colleagues who have allowed us to
 interface, adapt or use parts of their codes:
   Stefan Grimme, W. Hujo, H. Kruse,             : VdW corrections, initial TS optimization,
                  C. Bannwarth                     DFT functionals, gCP, sTDA/sTD-DF
   Ed Valeev, F. Pavosevic, A. Kumar             : LibInt (2-el integral package), F12 methods
   Garnet Chan, S. Sharma, J. Yang, R. Olivares  : DMRG
   Ulf Ekstrom                                   : XCFun DFT Library
   Mihaly Kallay                                 : mrcc  (arbitrary order and MRCC methods)
   Andreas Klamt, Michael Diedenhofen            : otool_cosmo (COSMO solvation model)
   Jiri Pittner, Ondrej Demel                    : Mk-CCSD
   Frank Weinhold                                : gennbo (NPA and NBO analysis)
   Christopher J. Cramer and Donald G. Truhlar   : smd solvation model
   Lars Goerigk                                  : TD-DFT with DH, B97 family of functionals
   V. Asgeirsson, H. Jonsson                     : NEB implementation
   FAccTs GmbH                                   : IRC, NEB, NEB-TS, Multilevel, MM, QM/MM, CI optimization
   S Lehtola, MJT Oliveira, MAL Marques          : LibXC Library


 Your calculation uses the libint2 library for the computation of 2-el integrals
 For citations please refer to: http://libint.valeyev.net

 Your ORCA version has been built with support for libXC version: 4.2.3
 For citations please refer to: https://tddft.org/programs/libxc/

 This ORCA versions uses:
   CBLAS   interface :  Fast vector & matrix operations
   LAPACKE interface :  Fast linear algebra routines
   SCALAPACK package :  Parallel linear algebra routines


----- Orbital basis set information -----
Your calculation utilizes the basis: def2-TZVP
   F. Weigend and R. Ahlrichs, Phys. Chem. Chem. Phys. 7, 3297 (2005).

----- AuxJ basis set information -----
Your calculation utilizes the auxiliary basis: def2/J
   F. Weigend, Phys. Chem. Chem. Phys. 8, 1057 (2006).

================================================================================
                                        WARNINGS
                       Please study these warnings very carefully!
================================================================================

INFO   : Checking CIS options ...

WARNING: CIS/ROCIS methods need fully converged wavefunctions
  ===> : Setting SCFConvForced true
         You can overwrite this default with %scf ConvForced false 


INFO   : the flag for use of LIBINT has been found!

================================================================================
                                       INPUT FILE
================================================================================
NAME = NIBT.inp
|  1> # ORCA input file
|  2> # NIBT.out: Geometry 41
|  3> ! B3LYP def2-TZVP def2/J RIJCOSX Grid4 TightSCF
|  4> 
|  5> %maxcore 6000
|  6> %tddft
|  7>   maxdim 5
|  8>   nroots 50
|  9>   end
| 10> %pal
| 11>   nprocs 6
| 12>   end
| 13> 
| 14> 
| 15> * xyz 0 1
| 16>    C        5.31302         1.06733         1.00101
| 17>    C        5.01878        -0.29551         1.28299
| 18>    C        5.20403        -0.80014         2.57004
| 19>    C        5.66418         0.08909         3.56425
| 20>    C        5.94798         1.45165         3.26081
| 21>    C        5.79501         1.93728         1.98133
| 22>    C        4.93229         1.31787        -0.36477
| 23>    C        4.37282         0.18858        -0.94457
| 24>    C        4.40159        -0.98686         0.03838
| 25>    S        4.96804         2.67386        -1.41675
| 26>    C        4.18701         1.72839        -2.68813
| 27>    C        3.95215         0.41590        -2.26772
| 28>    C        5.83014        -0.05654         5.00215
| 29>    C        6.21598         1.15018         5.57182
| 30>    C        6.36531         2.23053         4.50954
| 31>    S        5.54618        -1.28280         6.18499
| 32>    C        5.84607        -0.11973         7.48967
| 33>    C        6.21832         1.11829         6.97353
| 34>    C        3.84851         2.33220        -3.95402
| 35>    C        3.00453        -1.51064         0.40266
| 36>    C        5.28060        -2.09471        -0.56860
| 37>    C        7.81132         2.70460         4.34028
| 38>    C        5.40326         3.37726         4.85786
| 39>    C        5.52109        -0.37584         8.88082
| 40>    C        4.35815         3.61730        -4.34485
| 41>    C        4.00568         4.21262        -5.62495
| 42>    C        3.10972         3.54645        -6.53366
| 43>    C        2.69950         2.27822        -6.14310
| 44>    C        3.03805         1.70136        -4.89631
| 45>    C        5.42951        -1.69082         9.46222
| 46>    C        4.99463        -1.87720        10.84454
| 47>    C        4.65153        -0.73883        11.66233
| 48>    C        4.71766         0.49703        11.03750
| 49>    C        5.16018         0.67894         9.71603
| 50>    N        5.19834         4.36577        -3.63054
| 51>    S        5.51865         5.70894        -4.51246
| 52>    N        4.61055         5.38202        -5.83572
| 53>    N        5.67032        -2.83756         8.82410
| 54>    S        5.36717        -4.04749         9.88999
| 55>    N        4.91132        -3.16251        11.19158
| 56>    C        2.74559         4.13695        -7.82006
| 57>    C        2.42848         5.42679        -8.09266
| 58>    C        4.15976        -0.79189        13.03023
| 59>    C        4.58535        -1.51462        14.09920
| 60>    C        2.14898         6.60074        -7.24904
| 61>    C        2.02857         7.71128        -8.13299
| 62>    C        2.15749         7.37443        -9.49268
| 63>    C        2.35352         5.88918        -9.54420
| 64>    C        4.00138        -1.38888        15.44202
| 65>    C        4.87184        -2.04669        16.34604
| 66>    C        5.98520        -2.63426        15.72165
| 67>    C        5.88480        -2.30858        14.25083
| 68>    C        1.92073         6.84036        -5.89661
| 69>    C        1.62995         8.15867        -5.45421
| 70>    C        1.56272         9.24333        -6.32985
| 71>    C        1.76613         9.01863        -7.71002
| 72>    C        1.69788        10.03195        -8.69367
| 73>    C        1.86204         9.70394       -10.03908
| 74>    C        2.07494         8.36508       -10.45693
| 75>    C        1.24746        10.61672        -5.87471
| 76>    N        1.22199        11.61523        -6.87330
| 77>    C        1.44795        11.42984        -8.25323
| 78>    C        0.88461        12.96867        -6.41610
| 79>    C        2.04787        13.69905        -5.72728
| 80>    C        3.27801        13.84745        -6.62534
| 81>    C        1.54582        15.06082        -5.23518
| 82>    C        6.93503        -3.27923        16.50032
| 83>    C        6.75812        -3.30030        17.91077
| 84>    C        5.66310        -2.68564        18.52312
| 85>    C        4.68369        -2.04863        17.73044
| 86>    C        3.55383        -1.37435        18.24966
| 87>    C        2.66771        -0.75862        17.36730
| 88>    C        2.87831        -0.75767        15.96418
| 89>    C        3.37477        -1.31421        19.71626
| 90>    N        4.39697        -1.91435        20.48765
| 91>    C        5.51150        -2.62165        19.99976
| 92>    C        4.33779        -1.75707        21.94807
| 93>    C        5.26569        -0.65309        22.48995
| 94>    C        5.04531         0.70216        21.81879
| 95>    C        5.09483        -0.55121        24.00628
| 96>    C        6.57229        -2.38604        -0.12162
| 97>    C        7.34226        -3.36803        -0.75668
| 98>    C        6.86536        -4.07249        -1.86792
| 99>    C        5.56099        -3.78183        -2.30595
|100>    C        4.78425        -2.82060        -1.66344
|101>    C        2.86316        -2.76686         1.01065
|102>    C        1.61431        -3.21745         1.43794
|103>    C        0.46102        -2.43598         1.26776
|104>    C        0.60798        -1.18998         0.64463
|105>    C        1.85651        -0.73359         0.21771
|106>    C        8.87759         1.94072         4.82488
|107>    C       10.20011         2.34061         4.61857
|108>    C       10.50320         3.51441         3.92434
|109>    C        9.42972         4.27212         3.42373
|110>    C        8.10721         3.87726         3.62776
|111>    C        4.12559         3.48571         4.30001
|112>    C        3.24333         4.48484         4.72502
|113>    C        3.59688         5.39493         5.72890
|114>    C        4.88074         5.27696         6.28834
|115>    C        5.76800         4.29503         5.85786
|116>    O        1.05037        10.90241        -4.70758
|117>    O        1.40499        12.36232        -9.03406
|118>    O        2.45414         5.18831       -10.52549
|119>    O        6.71847        -2.54462        13.40728
|120>    O        2.43280        -0.75205        20.24234
|121>    O        6.31635        -3.11406        20.76866
|122>    C       -0.88729        -2.93202         1.73915
|123>    C        7.74839        -5.07735        -2.58487
|124>    C       -1.55703        -2.01070         2.76160
|125>    C        7.04829        -6.34768        -3.08089
|126>    C       11.93393         3.93096         3.67549
|127>    C       12.36206         3.75963         2.21436
|128>    C        2.62793         6.45488         6.20637
|129>    C        3.20551         7.87292         6.25458
|130>    H        4.95882        -1.83423         2.81936
|131>    H        6.00281         2.98307         1.74601
|132>    H        3.49194        -0.33526        -2.90752
|133>    H        6.45233         1.97214         7.60550
|134>    H        2.03979         1.71412        -6.80825
|135>    H        2.63360         0.71413        -4.66927
|136>    H        4.42020         1.38109        11.60677
|137>    H        5.15240         1.68960         9.31008
|138>    H        2.73054         3.46862        -8.68912
|139>    H        3.36739        -0.06357        13.24262
|140>    H        1.94886         6.03569        -5.16350
|141>    H        1.44447         8.35044        -4.39531
|142>    H        1.80435        10.51159       -10.77189
|143>    H        2.16770         8.12020       -11.51780
|144>    H        0.04913        12.87131        -5.70932
|145>    H        0.55660        13.53286        -7.29822
|146>    H        2.32760        13.09761        -4.84376
|147>    H        3.04013        14.41638        -7.53747
|148>    H        3.67662        12.87013        -6.94085
|149>    H        4.08374        14.37316        -6.08843
|150>    H        1.22998        15.69394        -6.08260
|151>    H        2.33367        15.60243        -4.69022
|152>    H        0.68285        14.95303        -4.55812
|153>    H        7.80954        -3.74738        16.04384
|154>    H        7.49611        -3.78268        18.55415
|155>    H        1.80088        -0.24801        17.79243
|156>    H        2.16149        -0.24718        15.31753
|157>    H        4.63309        -2.71754        22.39074
|158>    H        3.29484        -1.53469        22.20032
|159>    H        6.30055        -0.97713        22.28525
|160>    H        4.00206         1.03920        21.93330
|161>    H        5.27212         0.66874        20.74162
|162>    H        5.70211         1.46194        22.26834
|163>    H        4.08066        -0.20030        24.26620
|164>    H        5.81029         0.16530        24.43680
|165>    H        5.25952        -1.52273        24.50036
|166>    H        6.98997        -1.84489         0.72591
|167>    H        8.34466        -3.58373        -0.37770
|168>    H        5.14120        -4.31504        -3.16079
|169>    H        3.76726        -2.63163        -2.01245
|170>    H        3.73819        -3.40483         1.14706
|171>    H        1.52963        -4.19720         1.91450
|172>    H       -0.26946        -0.55824         0.48130
|173>    H        1.93825         0.24023        -0.26702
|174>    H        8.67366         1.01995         5.37208
|175>    H       11.01159         1.72973         5.02191
|176>    H        9.63392         5.19457         2.87288
|177>    H        7.29428         4.49203         3.23698
|178>    H        3.80548         2.77536         3.53247
|179>    H        2.25350         4.54883         4.26509
|180>    H        5.19617         5.97069         7.07180
|181>    H        6.76288         4.23873         6.30450
|182>    H       -0.76410        -3.93596         2.17440
|183>    H       -1.55607        -3.05655         0.86892
|184>    H        8.57876        -5.35335        -1.91393
|185>    H        8.22716        -4.57090        -3.44505
|186>    H       -0.90433        -1.85040         3.63433
|187>    H       -2.50418        -2.44387         3.12045
|188>    H       -1.78215        -1.02223         2.33182
|189>    H        6.56954        -6.88994        -2.24938
|190>    H        7.76833        -7.02620        -3.56453
|191>    H        6.26572        -6.12419        -3.82184
|192>    H       12.60068         3.34314         4.32621
|193>    H       12.06478         4.98586         3.97564
|194>    H       12.27550         2.70832         1.89730
|195>    H       13.40563         4.08159         2.06772
|196>    H       11.72834         4.36038         1.54407
|197>    H        2.26674         6.18002         7.21458
|198>    H        1.73775         6.44019         5.55769
|199>    H        4.05159         7.94666         6.95519
|200>    H        2.44359         8.59453         6.58743
|201>    H        3.57152         8.18873         5.26459
|202> *
|203> 
|204>                          ****END OF INPUT****
================================================================================

                       ****************************
                       * Single Point Calculation *
                       ****************************

---------------------------------
CARTESIAN COORDINATES (ANGSTROEM)
---------------------------------
  C      5.313020    1.067330    1.001010
  C      5.018780   -0.295510    1.282990
  C      5.204030   -0.800140    2.570040
  C      5.664180    0.089090    3.564250
  C      5.947980    1.451650    3.260810
  C      5.795010    1.937280    1.981330
  C      4.932290    1.317870   -0.364770
  C      4.372820    0.188580   -0.944570
  C      4.401590   -0.986860    0.038380
  S      4.968040    2.673860   -1.416750
  C      4.187010    1.728390   -2.688130
  C      3.952150    0.415900   -2.267720
  C      5.830140   -0.056540    5.002150
  C      6.215980    1.150180    5.571820
  C      6.365310    2.230530    4.509540
  S      5.546180   -1.282800    6.184990
  C      5.846070   -0.119730    7.489670
  C      6.218320    1.118290    6.973530
  C      3.848510    2.332200   -3.954020
  C      3.004530   -1.510640    0.402660
  C      5.280600   -2.094710   -0.568600
  C      7.811320    2.704600    4.340280
  C      5.403260    3.377260    4.857860
  C      5.521090   -0.375840    8.880820
  C      4.358150    3.617300   -4.344850
  C      4.005680    4.212620   -5.624950
  C      3.109720    3.546450   -6.533660
  C      2.699500    2.278220   -6.143100
  C      3.038050    1.701360   -4.896310
  C      5.429510   -1.690820    9.462220
  C      4.994630   -1.877200   10.844540
  C      4.651530   -0.738830   11.662330
  C      4.717660    0.497030   11.037500
  C      5.160180    0.678940    9.716030
  N      5.198340    4.365770   -3.630540
  S      5.518650    5.708940   -4.512460
  N      4.610550    5.382020   -5.835720
  N      5.670320   -2.837560    8.824100
  S      5.367170   -4.047490    9.889990
  N      4.911320   -3.162510   11.191580
  C      2.745590    4.136950   -7.820060
  C      2.428480    5.426790   -8.092660
  C      4.159760   -0.791890   13.030230
  C      4.585350   -1.514620   14.099200
  C      2.148980    6.600740   -7.249040
  C      2.028570    7.711280   -8.132990
  C      2.157490    7.374430   -9.492680
  C      2.353520    5.889180   -9.544200
  C      4.001380   -1.388880   15.442020
  C      4.871840   -2.046690   16.346040
  C      5.985200   -2.634260   15.721650
  C      5.884800   -2.308580   14.250830
  C      1.920730    6.840360   -5.896610
  C      1.629950    8.158670   -5.454210
  C      1.562720    9.243330   -6.329850
  C      1.766130    9.018630   -7.710020
  C      1.697880   10.031950   -8.693670
  C      1.862040    9.703940  -10.039080
  C      2.074940    8.365080  -10.456930
  C      1.247460   10.616720   -5.874710
  N      1.221990   11.615230   -6.873300
  C      1.447950   11.429840   -8.253230
  C      0.884610   12.968670   -6.416100
  C      2.047870   13.699050   -5.727280
  C      3.278010   13.847450   -6.625340
  C      1.545820   15.060820   -5.235180
  C      6.935030   -3.279230   16.500320
  C      6.758120   -3.300300   17.910770
  C      5.663100   -2.685640   18.523120
  C      4.683690   -2.048630   17.730440
  C      3.553830   -1.374350   18.249660
  C      2.667710   -0.758620   17.367300
  C      2.878310   -0.757670   15.964180
  C      3.374770   -1.314210   19.716260
  N      4.396970   -1.914350   20.487650
  C      5.511500   -2.621650   19.999760
  C      4.337790   -1.757070   21.948070
  C      5.265690   -0.653090   22.489950
  C      5.045310    0.702160   21.818790
  C      5.094830   -0.551210   24.006280
  C      6.572290   -2.386040   -0.121620
  C      7.342260   -3.368030   -0.756680
  C      6.865360   -4.072490   -1.867920
  C      5.560990   -3.781830   -2.305950
  C      4.784250   -2.820600   -1.663440
  C      2.863160   -2.766860    1.010650
  C      1.614310   -3.217450    1.437940
  C      0.461020   -2.435980    1.267760
  C      0.607980   -1.189980    0.644630
  C      1.856510   -0.733590    0.217710
  C      8.877590    1.940720    4.824880
  C     10.200110    2.340610    4.618570
  C     10.503200    3.514410    3.924340
  C      9.429720    4.272120    3.423730
  C      8.107210    3.877260    3.627760
  C      4.125590    3.485710    4.300010
  C      3.243330    4.484840    4.725020
  C      3.596880    5.394930    5.728900
  C      4.880740    5.276960    6.288340
  C      5.768000    4.295030    5.857860
  O      1.050370   10.902410   -4.707580
  O      1.404990   12.362320   -9.034060
  O      2.454140    5.188310  -10.525490
  O      6.718470   -2.544620   13.407280
  O      2.432800   -0.752050   20.242340
  O      6.316350   -3.114060   20.768660
  C     -0.887290   -2.932020    1.739150
  C      7.748390   -5.077350   -2.584870
  C     -1.557030   -2.010700    2.761600
  C      7.048290   -6.347680   -3.080890
  C     11.933930    3.930960    3.675490
  C     12.362060    3.759630    2.214360
  C      2.627930    6.454880    6.206370
  C      3.205510    7.872920    6.254580
  H      4.958820   -1.834230    2.819360
  H      6.002810    2.983070    1.746010
  H      3.491940   -0.335260   -2.907520
  H      6.452330    1.972140    7.605500
  H      2.039790    1.714120   -6.808250
  H      2.633600    0.714130   -4.669270
  H      4.420200    1.381090   11.606770
  H      5.152400    1.689600    9.310080
  H      2.730540    3.468620   -8.689120
  H      3.367390   -0.063570   13.242620
  H      1.948860    6.035690   -5.163500
  H      1.444470    8.350440   -4.395310
  H      1.804350   10.511590  -10.771890
  H      2.167700    8.120200  -11.517800
  H      0.049130   12.871310   -5.709320
  H      0.556600   13.532860   -7.298220
  H      2.327600   13.097610   -4.843760
  H      3.040130   14.416380   -7.537470
  H      3.676620   12.870130   -6.940850
  H      4.083740   14.373160   -6.088430
  H      1.229980   15.693940   -6.082600
  H      2.333670   15.602430   -4.690220
  H      0.682850   14.953030   -4.558120
  H      7.809540   -3.747380   16.043840
  H      7.496110   -3.782680   18.554150
  H      1.800880   -0.248010   17.792430
  H      2.161490   -0.247180   15.317530
  H      4.633090   -2.717540   22.390740
  H      3.294840   -1.534690   22.200320
  H      6.300550   -0.977130   22.285250
  H      4.002060    1.039200   21.933300
  H      5.272120    0.668740   20.741620
  H      5.702110    1.461940   22.268340
  H      4.080660   -0.200300   24.266200
  H      5.810290    0.165300   24.436800
  H      5.259520   -1.522730   24.500360
  H      6.989970   -1.844890    0.725910
  H      8.344660   -3.583730   -0.377700
  H      5.141200   -4.315040   -3.160790
  H      3.767260   -2.631630   -2.012450
  H      3.738190   -3.404830    1.147060
  H      1.529630   -4.197200    1.914500
  H     -0.269460   -0.558240    0.481300
  H      1.938250    0.240230   -0.267020
  H      8.673660    1.019950    5.372080
  H     11.011590    1.729730    5.021910
  H      9.633920    5.194570    2.872880
  H      7.294280    4.492030    3.236980
  H      3.805480    2.775360    3.532470
  H      2.253500    4.548830    4.265090
  H      5.196170    5.970690    7.071800
  H      6.762880    4.238730    6.304500
  H     -0.764100   -3.935960    2.174400
  H     -1.556070   -3.056550    0.868920
  H      8.578760   -5.353350   -1.913930
  H      8.227160   -4.570900   -3.445050
  H     -0.904330   -1.850400    3.634330
  H     -2.504180   -2.443870    3.120450
  H     -1.782150   -1.022230    2.331820
  H      6.569540   -6.889940   -2.249380
  H      7.768330   -7.026200   -3.564530
  H      6.265720   -6.124190   -3.821840
  H     12.600680    3.343140    4.326210
  H     12.064780    4.985860    3.975640
  H     12.275500    2.708320    1.897300
  H     13.405630    4.081590    2.067720
  H     11.728340    4.360380    1.544070
  H      2.266740    6.180020    7.214580
  H      1.737750    6.440190    5.557690
  H      4.051590    7.946660    6.955190
  H      2.443590    8.594530    6.587430
  H      3.571520    8.188730    5.264590

----------------------------
CARTESIAN COORDINATES (A.U.)
----------------------------
  NO LB      ZA    FRAG     MASS         X           Y           Z
   0 C     6.0000    0    12.011   10.040153    2.016961    1.891635
   1 C     6.0000    0    12.011    9.484120   -0.558433    2.424500
   2 C     6.0000    0    12.011    9.834191   -1.512045    4.856672
   3 C     6.0000    0    12.011   10.703749    0.168356    6.735456
   4 C     6.0000    0    12.011   11.240053    2.743221    6.162038
   5 C     6.0000    0    12.011   10.950982    3.660929    3.744171
   6 C     6.0000    0    12.011    9.320677    2.490413   -0.689315
   7 C     6.0000    0    12.011    8.263432    0.356365   -1.784979
   8 C     6.0000    0    12.011    8.317800   -1.864895    0.072528
   9 S    16.0000    0    32.060    9.388235    5.052863   -2.677270
  10 C     6.0000    0    12.011    7.912302    3.266184   -5.079830
  11 C     6.0000    0    12.011    7.468481    0.785937   -4.285370
  12 C     6.0000    0    12.011   11.017368   -0.106845    9.452694
  13 C     6.0000    0    12.011   11.746500    2.173525   10.529214
  14 C     6.0000    0    12.011   12.028693    4.215091    8.521796
  15 S    16.0000    0    32.060   10.480761   -2.424141   11.687937
  16 C     6.0000    0    12.011   11.047471   -0.226257   14.153425
  17 C     6.0000    0    12.011   11.750922    2.113262   13.178062
  18 C     6.0000    0    12.011    7.272630    4.407219   -7.472015
  19 C     6.0000    0    12.011    5.677739   -2.854696    0.760917
  20 C     6.0000    0    12.011    9.978888   -3.958428   -1.074498
  21 C     6.0000    0    12.011   14.761256    5.110953    8.201941
  22 C     6.0000    0    12.011   10.210682    6.382096    9.180025
  23 C     6.0000    0    12.011   10.433348   -0.710235   16.782318
  24 C     6.0000    0    12.011    8.235710    6.835706   -8.210577
  25 C     6.0000    0    12.011    7.569638    7.960698  -10.629615
  26 C     6.0000    0    12.011    5.876519    6.701819  -12.346828
  27 C     6.0000    0    12.011    5.101316    4.305212  -11.608777
  28 C     6.0000    0    12.011    5.741082    3.215104   -9.252685
  29 C     6.0000    0    12.011   10.260287   -3.195187   17.881004
  30 C     6.0000    0    12.011    9.438483   -3.547394   20.493211
  31 C     6.0000    0    12.011    8.790118   -1.396186   22.038610
  32 C     6.0000    0    12.011    8.915085    0.939251   20.857852
  33 C     6.0000    0    12.011    9.751327    1.283011   18.360636
  34 N     7.0000    0    14.007    9.823439    8.250110   -6.860726
  35 S    16.0000    0    32.060   10.428737   10.788333   -8.527314
  36 N     7.0000    0    14.007    8.712677   10.170544  -11.027913
  37 N     7.0000    0    14.007   10.715352   -5.362211   16.675132
  38 S    16.0000    0    32.060   10.142481   -7.648648   18.689373
  39 N     7.0000    0    14.007    9.281050   -5.976278   21.149021
  40 C     6.0000    0    12.011    5.188413    7.817703  -14.777772
  41 C     6.0000    0    12.011    4.589162   10.255147  -15.292911
  42 C     6.0000    0    12.011    7.860807   -1.496455   24.623566
  43 C     6.0000    0    12.011    8.665056   -2.862217   26.643627
  44 C     6.0000    0    12.011    4.060984   12.473591  -13.698700
  45 C     6.0000    0    12.011    3.833442   14.572207  -15.369124
  46 C     6.0000    0    12.011    4.077065   13.935653  -17.938565
  47 C     6.0000    0    12.011    4.447508   11.128937  -18.035924
  48 C     6.0000    0    12.011    7.561512   -2.624603   29.181189
  49 C     6.0000    0    12.011    9.206443   -3.867684   30.889539
  50 C     6.0000    0    12.011   11.310389   -4.978030   29.709613
  51 C     6.0000    0    12.011   11.120660   -4.362584   26.930166
  52 C     6.0000    0    12.011    3.629654   12.926407  -11.142978
  53 C     6.0000    0    12.011    3.080159   15.417652  -10.306963
  54 C     6.0000    0    12.011    2.953113   17.467362  -11.961683
  55 C     6.0000    0    12.011    3.337502   17.042741  -14.569826
  56 C     6.0000    0    12.011    3.208528   18.957638  -16.428655
  57 C     6.0000    0    12.011    3.518746   18.337789  -18.971112
  58 C     6.0000    0    12.011    3.921068   15.807710  -19.760734
  59 C     6.0000    0    12.011    2.357358   20.062693  -11.101593
  60 N     7.0000    0    14.007    2.309226   21.949604  -12.988655
  61 C     6.0000    0    12.011    2.736229   21.599267  -15.596344
  62 C     6.0000    0    12.011    1.671671   24.507235  -12.124672
  63 C     6.0000    0    12.011    3.869913   25.887453  -10.822991
  64 C     6.0000    0    12.011    6.194541   26.167888  -12.520078
  65 C     6.0000    0    12.011    2.921176   28.460825   -9.893056
  66 C     6.0000    0    12.011   13.105307   -6.196847   31.181086
  67 C     6.0000    0    12.011   12.770996   -6.236663   33.846450
  68 C     6.0000    0    12.011   10.701708   -5.075124   35.003624
  69 C     6.0000    0    12.011    8.850891   -3.871350   33.505676
  70 C     6.0000    0    12.011    6.715765   -2.597145   34.486859
  71 C     6.0000    0    12.011    5.041241   -1.433584   32.819441
  72 C     6.0000    0    12.011    5.439218   -1.431789   30.167928
  73 C     6.0000    0    12.011    6.377391   -2.483497   37.258332
  74 N     7.0000    0    14.007    8.309069   -3.617597   38.716048
  75 C     6.0000    0    12.011   10.415226   -4.954201   37.794069
  76 C     6.0000    0    12.011    8.197235   -3.320381   41.475841
  77 C     6.0000    0    12.011    9.950712   -1.234161   42.499846
  78 C     6.0000    0    12.011    9.534254    1.326890   41.231538
  79 C     6.0000    0    12.011    9.627833   -1.041636   45.365295
  80 C     6.0000    0    12.011   12.419828   -4.508962   -0.229828
  81 C     6.0000    0    12.011   13.874861   -6.364654   -1.429918
  82 C     6.0000    0    12.011   12.973650   -7.695891   -3.529857
  83 C     6.0000    0    12.011   10.508748   -7.146623   -4.357614
  84 C     6.0000    0    12.011    9.040922   -5.330162   -3.143446
  85 C     6.0000    0    12.011    5.410588   -5.228608    1.909852
  86 C     6.0000    0    12.011    3.050604   -6.080099    2.717313
  87 C     6.0000    0    12.011    0.871202   -4.603335    2.395719
  88 C     6.0000    0    12.011    1.148916   -2.248736    1.218174
  89 C     6.0000    0    12.011    3.508295   -1.386284    0.411412
  90 C     6.0000    0    12.011   16.776214    3.667429    9.117702
  91 C     6.0000    0    12.011   19.275414    4.423112    8.727832
  92 C     6.0000    0    12.011   19.848172    6.641272    7.415928
  93 C     6.0000    0    12.011   17.819588    8.073137    6.469912
  94 C     6.0000    0    12.011   15.320407    7.326960    6.855473
  95 C     6.0000    0    12.011    7.796235    6.587037    8.125841
  96 C     6.0000    0    12.011    6.129005    8.475119    8.928994
  97 C     6.0000    0    12.011    6.797118   10.194940   10.826052
  98 C     6.0000    0    12.011    9.223262    9.972009   11.883240
  99 C     6.0000    0    12.011   10.899940    8.116430   11.069751
 100 O     8.0000    0    15.999    1.984912   20.602569   -8.896037
 101 O     8.0000    0    15.999    2.655046   23.361399  -17.071899
 102 O     8.0000    0    15.999    4.637652    9.804485  -19.890294
 103 O     8.0000    0    15.999   12.696068   -4.808635   25.336087
 104 O     8.0000    0    15.999    4.597326   -1.421169   38.252479
 105 O     8.0000    0    15.999   11.936172   -5.884721   39.247080
 106 C     6.0000    0    12.011   -1.676735   -5.540715    3.286517
 107 C     6.0000    0    12.011   14.642335   -9.594801   -4.884696
 108 C     6.0000    0    12.011   -2.942360   -3.799672    5.218668
 109 C     6.0000    0    12.011   13.319338  -11.995377   -5.822038
 110 C     6.0000    0    12.011   22.551859    7.428438    6.945670
 111 C     6.0000    0    12.011   23.360908    7.104671    4.184534
 112 C     6.0000    0    12.011    4.966068   12.197955   11.728340
 113 C     6.0000    0    12.011    6.057536   14.877663   11.819443
 114 H     1.0000    0     1.008    9.370812   -3.466192    5.327818
 115 H     1.0000    0     1.008   11.343667    5.637185    3.299481
 116 H     1.0000    0     1.008    6.598810   -0.633550   -5.494417
 117 H     1.0000    0     1.008   12.193137    3.726804   14.372312
 118 H     1.0000    0     1.008    3.854644    3.239217  -12.865728
 119 H     1.0000    0     1.008    4.976783    1.349510   -8.823642
 120 H     1.0000    0     1.008    8.352967    2.609882   21.933617
 121 H     1.0000    0     1.008    9.736625    3.192881   17.593501
 122 H     1.0000    0     1.008    5.159973    6.554742  -16.420057
 123 H     1.0000    0     1.008    6.363445   -0.120130   25.024925
 124 H     1.0000    0     1.008    3.682812   11.405801   -9.757601
 125 H     1.0000    0     1.008    2.729653   15.780045   -8.305932
 126 H     1.0000    0     1.008    3.409727   19.864026  -20.355922
 127 H     1.0000    0     1.008    4.096359   15.344954  -21.765488
 128 H     1.0000    0     1.008    0.092842   24.323251  -10.789051
 129 H     1.0000    0     1.008    1.051822   25.573399  -13.791637
 130 H     1.0000    0     1.008    4.398527   24.750896   -9.153380
 131 H     1.0000    0     1.008    5.745013   27.243010  -14.243754
 132 H     1.0000    0     1.008    6.947805   24.321021  -13.116306
 133 H     1.0000    0     1.008    7.717150   27.161336  -11.505465
 134 H     1.0000    0     1.008    2.324325   29.657249  -11.494448
 135 H     1.0000    0     1.008    4.409997   29.484320   -8.863231
 136 H     1.0000    0     1.008    1.290399   28.257132   -8.613598
 137 H     1.0000    0     1.008   14.757892   -7.081522   30.318464
 138 H     1.0000    0     1.008   14.165595   -7.148229   35.062262
 139 H     1.0000    0     1.008    3.403170   -0.468671   33.622820
 140 H     1.0000    0     1.008    4.084624   -0.467103   28.945937
 141 H     1.0000    0     1.008    8.755271   -5.135406   42.312367
 142 H     1.0000    0     1.008    6.226345   -2.900144   41.952525
 143 H     1.0000    0     1.008   11.906314   -1.846508   42.113019
 144 H     1.0000    0     1.008    7.562797    1.963803   41.447930
 145 H     1.0000    0     1.008    9.962863    1.263735   39.195981
 146 H     1.0000    0     1.008   10.775426    2.762666   42.081064
 147 H     1.0000    0     1.008    7.711330   -0.378512   45.856472
 148 H     1.0000    0     1.008   10.979857    0.312372   46.178860
 149 H     1.0000    0     1.008    9.939052   -2.877543   46.298971
 150 H     1.0000    0     1.008   13.209129   -3.486337    1.371771
 151 H     1.0000    0     1.008   15.769122   -6.772268   -0.713750
 152 H     1.0000    0     1.008    9.715460   -8.154244   -5.973027
 153 H     1.0000    0     1.008    7.119090   -4.973060   -3.802979
 154 H     1.0000    0     1.008    7.064155   -6.434196    2.167629
 155 H     1.0000    0     1.008    2.890582   -7.931559    3.617881
 156 H     1.0000    0     1.008   -0.509206   -1.054921    0.909525
 157 H     1.0000    0     1.008    3.662762    0.453969   -0.504595
 158 H     1.0000    0     1.008   16.390842    1.927426   10.151760
 159 H     1.0000    0     1.008   20.808889    3.268716    9.490035
 160 H     1.0000    0     1.008   18.205470    9.816315    5.428956
 161 H     1.0000    0     1.008   13.784192    8.488706    6.117006
 162 H     1.0000    0     1.008    7.191315    5.244670    6.675401
 163 H     1.0000    0     1.008    4.258498    8.596043    8.059852
 164 H     1.0000    0     1.008    9.819338   11.282969   13.363765
 165 H     1.0000    0     1.008   12.779991    8.010039   11.913778
 166 H     1.0000    0     1.008   -1.443940   -7.437886    4.109021
 167 H     1.0000    0     1.008   -2.940546   -5.776042    1.642021
 168 H     1.0000    0     1.008   16.211507  -10.116365   -3.616804
 169 H     1.0000    0     1.008   15.547079   -8.637749   -6.510201
 170 H     1.0000    0     1.008   -1.708936   -3.496749    6.867888
 171 H     1.0000    0     1.008   -4.732214   -4.618245    5.896796
 172 H     1.0000    0     1.008   -3.367775   -1.931735    4.406501
 173 H     1.0000    0     1.008   12.414631  -13.020100   -4.250712
 174 H     1.0000    0     1.008   14.680016  -13.277594   -6.735985
 175 H     1.0000    0     1.008   11.840495  -11.573042   -7.222231
 176 H     1.0000    0     1.008   23.811834    6.317619    8.175352
 177 H     1.0000    0     1.008   22.799130    9.421910    7.512871
 178 H     1.0000    0     1.008   23.197333    5.117983    3.585377
 179 H     1.0000    0     1.008   25.332969    7.713087    3.907425
 180 H     1.0000    0     1.008   22.163351    8.239924    2.917869
 181 H     1.0000    0     1.008    4.283518   11.678545   13.633580
 182 H     1.0000    0     1.008    3.283872   12.170195   10.502512
 183 H     1.0000    0     1.008    7.656396   15.017011   13.143404
 184 H     1.0000    0     1.008    4.617716   16.241308   12.448439
 185 H     1.0000    0     1.008    6.749195   15.474457    9.948633

--------------------------------
INTERNAL COORDINATES (ANGSTROEM)
--------------------------------
 C      0   0   0     0.000000000000     0.00000000     0.00000000
 C      1   0   0     1.422470654741     0.00000000     0.00000000
 C      2   1   0     1.394799878800   120.13725828     0.00000000
 C      3   2   1     1.411000191176   117.74177533     1.07455154
 C      4   3   2     1.424495709786   121.17738175   359.14626192
 C      5   4   3     1.377064046513   120.87137030   359.26746753
 C      1   2   3     1.439819652908   107.46089414   184.23413156
 C      7   1   2     1.387252905926   111.18914547     1.88648963
 C      8   7   1     1.532539594595   110.40952130   357.28209058
 S      7   1   2     1.716580572825   135.50152159   179.92464989
 C     10   7   1     1.766445155163    90.51956984   182.77240334
 C     11  10   7     1.398046418328   111.12023415   359.00725259
 C      4   3   2     1.454753322217   132.11077715   172.72248361
 C     13   4   3     1.389089476204   110.49197581   184.99022481
 C     14  13   4     1.522463257291   110.94946615   359.00602403
 S     13   4   3     1.727268750021   136.81812331   358.44024445
 C     16  13   4     1.773374111517    90.59567237   190.30672603
 C     17  16  13     1.392000029634   110.83838566   356.70251187
 C     11  10   7     1.442791134641   120.74566424   177.77579732
 C      9   8   7     1.535845711782   113.36719308   118.23511807
 C      9   8   7     1.538965536651   108.05223936   242.42930782
 C     15  14  13     1.531122540034   112.92181445   246.22935980
 C     15  14  13     1.536833340932   108.05572887   120.93590705
 C     17  16  13     1.451379569582   123.47535198   167.01136312
 C     19  11  10     1.436649932482   121.99288683    12.83959738
 C     25  19  11     1.455093472358   121.28975248   180.05962671
 C     26  25  19     1.439541821067   121.11560883     1.34717344
 C     27  26  25     1.388965404501   115.39515163   355.49887141
 C     19  11  10     1.393813101280   122.69511034   191.08554133
 C     24  17  16     1.440689160367   124.20155299    25.52892347
 C     30  24  17     1.461049862667   121.14236739   184.87962738
 C     31  30  24     1.443046898406   120.41834830   359.72054499
 C     32  31  30     1.386411066531   115.87793379     2.23701184
 C     24  17  16     1.392979763170   119.94046127   211.14371054
 N     25  19  11     1.332803568835   125.46198935     1.68479941
 S     35  25  19     1.638440426564   107.16528820   178.27420135
 N     26  25  19     1.333337192836   112.83026514   182.34260744
 N     30  24  17     1.334241064463   125.45026334     2.32834965
 S     38  30  24     1.640716922415   106.84333620   182.46413945
 N     31  30  24     1.333941195780   112.80816339   177.09841842
 C     27  26  25     1.461542290493   121.58069885   179.80941635
 C     41  27  26     1.355933898721   128.28314343   317.39550132
 C     32  31  30     1.454580182218   125.77096496   177.58443890
 C     43  32  31     1.358735574680   130.79562976    45.54901516
 C     42  41  27     1.472404006005   133.44389468   349.79405278
 C     45  42  41     1.424487719217   106.38479760   173.54974982
 C     46  45  42     1.406714322455   113.91399468     2.05344266
 C     47  46  45     1.499016221994   106.40736296     1.37778957
 C     44  43  32     1.469692845767   123.28865917   176.79770908
 C     49  44  43     1.416921581493   107.40479270   193.01773510
 C     50  49  44     1.405230182781   113.41323762   358.69212499
 C     51  50  49     1.509787764820   106.85683717     1.85153185
 C     45  42  41     1.392329957948   136.45799100   349.43345201
 C     53  45  42     1.420637893518   119.71878962   182.28579073
 C     54  53  45     1.395619073422   122.39030657   359.94862208
 C     46  45  42     1.398907572715   123.83583405   180.22271205
 C     56  46  45     1.413875103183   117.93644553   178.78306943
 C     57  56  46     1.394513224677   119.79873120     1.36644055
 C     47  46  45     1.384911545009   119.75073657   180.70006313
 C     55  54  53     1.480790795251   122.56324551   179.41167923
 N     60  55  54     1.412392625689   116.24532208   179.64352384
 C     61  60  55     1.410543930050   126.57461214     0.91807558
 C     61  60  55     1.467874973559   115.83478700   178.92896155
 C     63  61  60     1.536587701500   113.82191885    78.04442717
 C     64  63  61     1.530287144035   113.05258674    58.78093456
 C     64  63  61     1.532525414275   108.56043897   182.97748450
 C     51  50  49     1.387259996792   119.17410437   178.26603951
 C     67  51  50     1.421657587290   118.59172633   358.84808643
 C     68  67  51     1.397085623181   121.72639093   359.66371548
 C     50  49  44     1.397128321272   123.37507732   175.31391177
 C     70  50  49     1.414505760469   118.07528247     0.96007814
 C     71  70  50     1.393876342040   119.07824312     1.05140913
 C     49  44  43     1.390094728643   134.67358722    10.25229925
 C     71  70  50     1.478713922028   118.69665263   182.79130453
 N     74  71  70     1.414250116387   115.86108159     1.98765709
 C     75  74  71     1.407297787606   126.62686304   356.01206965
 C     75  74  71     1.470056409530   117.86354139   173.66554020
 C     77  75  74     1.540585662922   113.69400151   260.37993223
 C     78  77  75     1.528308101300   113.21212647    54.05800294
 C     78  77  75     1.529323164965   109.21993309   178.43333360
 C     21   9   8     1.397543325053   123.49234527   105.46066086
 C     81  21   9     1.400164049174   120.62379716   182.86029863
 C     82  81  21     1.399482704145   121.72108782     1.21154612
 C     83  82  81     1.406319527490   117.34505124   358.33850206
 C     84  83  82     1.392877324318   121.07634824     0.61709078
 C     20   9   8     1.402756573822   119.99247808   164.11661515
 C     86  20   9     1.394716607308   120.82021864   175.25328850
 C     87  86  20     1.403472271689   121.24920409     0.37205531
 C     88  87  86     1.400858393450   117.58020017     0.42252694
 C     89  88  87     1.396201876306   121.37047779   359.44500426
 C     22  15  14     1.398313815744   120.84370693    17.45859411
 C     91  22  15     1.396973506764   120.95342040   177.06867311
 C     92  91  22     1.397005827117   121.28546314     0.06215998
 C     93  92  91     1.406091791669   117.64992462   359.16957250
 C     94  93  92     1.395197247919   121.27195518     0.86214764
 C     23  15  14     1.398355696488   122.64416472   264.51115649
 C     96  23  15     1.399027149343   120.69000897   174.85567121
 C     97  96  23     1.400370117148   121.51297082   359.14444136
 C     98  97  96     1.405413296543   117.47995267     0.60814241
 C     99  98  97     1.391664421799   121.23212855     0.17703403
 O     60  55  54     1.217643495076   123.13957185     1.43995172
 O     62  61  60     1.216988085767   121.42104035   180.12230154
 O     48  47  46     1.210071570363   127.77942735   176.92442776
 O     52  51  50     1.209254792424   126.27224349   173.25308797
 O     74  71  70     1.216590117048   122.78103463   179.84934386
 O     76  75  74     1.217151732776   120.53154941   181.22315866
 C     88  87  86     1.512019864221   120.81685080   180.21923418
 C     83  82  81     1.517729522346   120.67046937   176.59934044
 C    107  88  87     1.530616285194   113.63895318   121.26401741
 C    108  83  82     1.532942973271   115.83585147   141.68434888
 C     93  92  91     1.510770848905   121.26415195   181.34258393
 C    111  93  92     1.532171707969   113.00871800   107.58570351
 C     98  97  96     1.513385511329   121.31213267   181.35499132
 C    113  98  97     1.531913934299   114.63611872   229.66044595
 H      3   2   1     1.091618309942   121.57701827   178.22052418
 H      6   5   4     1.091894256098   121.12239837   179.44824709
 H     12  11  10     1.088750949345   122.82012382   180.92039930
 H     18  17  16     1.087752997468   122.70011383   180.28724232
 H     28  27  26     1.093549549220   118.56424008   181.64413316
 H     29  19  11     1.090756635093   118.98172540     0.52259040
 H     33  32  31     1.092754715433   118.25530957   177.14624137
 H     34  24  17     1.089169209306   118.75114853   358.51490989
 H     41  27  26     1.096429101675   117.05139650   136.76954042
 H     43  32  31     1.097000342479   113.70664363   219.86894643
 H     53  45  42     1.088914770724   121.50306768     1.62103435
 H     54  53  45     1.091992570167   119.98040693   179.64257194
 H     58  57  56     1.092079280410   117.85416259   180.06307226
 H     59  47  46     1.092710295046   120.70387331   180.31878330
 H     63  61  60     1.098655436613   107.06460119   317.23213925
 H     63  61  60     1.097286020416   107.00145777   199.79686198
 H     64  63  61     1.104801582593   106.94240563   299.33726268
 H     65  64  63     1.101021968991   111.26045234    59.80335395
 H     65  64  63     1.101631006553   111.89529436   299.63560841
 H     65  64  63     1.101745971220   110.37500207   180.15172705
 H     66  64  63     1.103954934044   110.90625907   296.97363429
 H     66  64  63     1.100468271328   111.21110456   177.24924321
 H     66  64  63     1.102155228904   111.52187305    56.97547454
 H     67  51  50     1.091927723341   120.86585707   179.84738899
 H     68  67  51     1.091447446696   120.47994469   181.15516660
 H     72  71  70     1.092177795920   117.68887558   179.75486223
 H     73  49  44     1.092056397353   121.34190716     3.95059968
 H     77  75  74     1.098026156246   107.22323694   140.02333704
 H     77  75  74     1.095822809308   106.78072468    22.24793712
 H     78  77  75     1.103557534159   106.80703798   294.94044348
 H     79  78  77     1.102306247918   111.22242258    57.75770634
 H     79  78  77     1.101296908831   111.89607467   297.11878939
 H     79  78  77     1.100339534371   110.29270673   177.73817381
 H     80  78  77     1.104190664423   110.92708010   294.10813640
 H     80  78  77     1.100280447022   111.01987113   174.83709662
 H     80  78  77     1.102310733369   111.65449433    54.83865734
 H     81  21   9     1.088855824157   119.99248815     2.64955155
 H     82  81  21     1.093141386281   119.03936452   180.76307024
 H     84  83  82     1.091461393637   119.98071334   180.78432856
 H     85  84  83     1.091689654206   119.43784244   181.31725931
 H     86  20   9     1.091462738668   119.79001142   354.87242060
 H     87  86  20     1.092790098098   119.51420002   180.36934281
 H     89  88  87     1.093468367215   119.74455659   179.13824078
 H     90  89  88     1.090857457645   119.64915063   179.82621634
 H     91  22  15     1.090336038935   119.51389451   357.03839197
 H     92  91  22     1.092866561113   119.23795048   179.13225715
 H     94  93  92     1.093639504133   119.42630726   180.19943780
 H     95  94  93     1.091561425757   119.61659808   179.29971609
 H     96  23  15     1.093702512661   119.80280989   355.65056907
 H     97  96  23     1.093340639462   119.00752428   179.57105271
 H     99  98  97     1.092962473921   119.71594432   179.76646392
 H    100  99  98     1.091990473402   119.38751909   179.21973892
 H    107  88  87     1.101142071760   108.81864036   358.98749702
 H    107  88  87     1.104569899192   109.34632825   243.57745148
 H    108  83  82     1.102656256727   108.44702601    18.18086076
 H    108  83  82     1.107078112782   108.40701568   264.49896199
 H    109 107  88     1.101531221936   110.95104833   303.52408192
 H    109 107  88     1.101590983033   110.92406807   183.51303170
 H    109 107  88     1.101118887178   111.65876394    63.35198180
 H    110 108  83     1.102114490514   111.22253368   301.72051756
 H    110 108  83     1.101251398001   110.73697183   181.37900354
 H    110 108  83     1.100622772570   111.98036959    61.89189550
 H    111  93  92     1.101600850263   109.19378119   345.40069086
 H    111  93  92     1.104547760398   109.31461756   229.72639765
 H    112 111  93     1.101486447170   111.05537064   300.08483689
 H    112 111  93     1.101907380908   111.03074378   179.44563738
 H    112 111  93     1.100813465125   111.02561054    59.60845052
 H    113  98  97     1.105664343189   108.82825900   107.40822664
 H    113  98  97     1.101554343144   108.80008991   352.75964272
 H    114 113  98     1.100973808090   111.82464922   298.24382935
 H    114 113  98     1.100923340201   110.81286043   178.71744539
 H    114 113  98     1.101716604350   111.24287842    58.19744103

---------------------------
INTERNAL COORDINATES (A.U.)
---------------------------
 C      0   0   0     0.000000000000     0.00000000     0.00000000
 C      1   0   0     2.688079971001     0.00000000     0.00000000
 C      2   1   0     2.635789782558   120.13725828     0.00000000
 C      3   2   1     2.666403936234   117.74177533     1.07455154
 C      4   3   2     2.691906770442   121.17738175   359.14626192
 C      5   4   3     2.602273916780   120.87137030   359.26746753
 C      1   2   3     2.720864826234   107.46089414   184.23413156
 C      7   1   2     2.621528070686   111.18914547     1.88648963
 C      8   7   1     2.896080123174   110.40952130   357.28209058
 S      7   1   2     3.243867169449   135.50152159   179.92464989
 C     10   7   1     3.338097573851    90.51956984   182.77240334
 C     11  10   7     2.641924853150   111.12023415   359.00725259
 C      4   3   2     2.749085371401   132.11077715   172.72248361
 C     13   4   3     2.624998685537   110.49197581   184.99022481
 C     14  13   4     2.877038605237   110.94946615   359.00602403
 S     13   4   3     3.264064897221   136.81812331   358.44024445
 C     16  13   4     3.351191403754    90.59567237   190.30672603
 C     17  16  13     2.630498834418   110.83838566   356.70251187
 C     11  10   7     2.726480112922   120.74566424   177.77579732
 C      9   8   7     2.902327779226   113.36719308   118.23511807
 C      9   8   7     2.908223393814   108.05223936   242.42930782
 C     15  14  13     2.893402278138   112.92181445   246.22935980
 C     15  14  13     2.904194127841   108.05572887   120.93590705
 C     17  16  13     2.742709902878   123.47535198   167.01136312
 C     19  11  10     2.714874922707   121.99288683    12.83959738
 C     25  19  11     2.749728162014   121.28975248   180.05962671
 C     26  25  19     2.720339800142   121.11560883     1.34717344
 C     27  26  25     2.624764223998   115.39515163   355.49887141
 C     19  11  10     2.633925043291   122.69511034   191.08554133
 C     24  17  16     2.722507957203   124.20155299    25.52892347
 C     30  24  17     2.760984108444   121.14236739   184.87962738
 C     31  30  24     2.726963436392   120.41834830   359.72054499
 C     32  31  30     2.619937224782   115.87793379     2.23701184
 C     24  17  16     2.632350262485   119.94046127   211.14371054
 N     25  19  11     2.518633735411   125.46198935     1.68479941
 S     35  25  19     3.096203692952   107.16528820   178.27420135
 N     26  25  19     2.519642138632   112.83026514   182.34260744
 N     30  24  17     2.521350208467   125.45026334     2.32834965
 S     38  30  24     3.100505646655   106.84333620   182.46413945
 N     31  30  24     2.520783538780   112.80816339   177.09841842
 C     27  26  25     2.761914662176   121.58069885   179.80941635
 C     41  27  26     2.562343724282   128.28314343   317.39550132
 C     32  31  30     2.748758184220   125.77096496   177.58443890
 C     43  32  31     2.567638124561   130.79562976    45.54901516
 C     42  41  27     2.782440329838   133.44389468   349.79405278
 C     45  42  41     2.691891670454   106.38479760   173.54974982
 C     46  45  42     2.658304818105   113.91399468     2.05344266
 C     47  46  45     2.832730129873   106.40736296     1.37778957
 C     44  43  32     2.777316979484   123.28865917   176.79770908
 C     49  44  43     2.677593742264   107.40479270   193.01773510
 C     50  49  44     2.655500200577   113.41323762   358.69212499
 C     51  50  49     2.853085395855   106.85683717     1.85153185
 C     45  42  41     2.631122308576   136.45799100   349.43345201
 C     53  45  42     2.684616554220   119.71878962   182.28579073
 C     54  53  45     2.637337836045   122.39030657   359.94862208
 C     46  45  42     2.643552199100   123.83583405   180.22271205
 C     56  46  45     2.671836732585   117.93644553   178.78306943
 C     57  56  46     2.635248084772   119.79873120     1.36644055
 C     47  46  45     2.617103539773   119.75073657   180.70006313
 C     55  54  53     2.798289064656   122.56324551   179.41167923
 N     60  55  54     2.669035256122   116.24532208   179.64352384
 C     61  60  55     2.665541727659   126.57461214     0.91807558
 C     61  60  55     2.773881698863   115.83478700   178.92896155
 C     63  61  60     2.903729936586   113.82191885    78.04442717
 C     64  63  61     2.891823608487   113.05258674    58.78093456
 C     64  63  61     2.896053326255   108.56043897   182.97748450
 C     51  50  49     2.621541470482   119.17410437   178.26603951
 C     67  51  50     2.686543496190   118.59172633   358.84808643
 C     68  67  51     2.640109213451   121.72639093   359.66371548
 C     50  49  44     2.640189901149   123.37507732   175.31391177
 C     70  50  49     2.673028502140   118.07528247     0.96007814
 C     71  70  50     2.634044551008   119.07824312     1.05140913
 C     49  44  43     2.626898337342   134.67358722    10.25229925
 C     71  70  50     2.794364343050   118.69665263   182.79130453
 N     74  71  70     2.672545404837   115.86108159     1.98765709
 C     75  74  71     2.659407407448   126.62686304   356.01206965
 C     75  74  71     2.778004015427   117.86354139   173.66554020
 C     77  75  74     2.911284988768   113.69400151   260.37993223
 C     78  77  75     2.888083759711   113.21212647    54.05800294
 C     78  77  75     2.890001952046   109.21993309   178.43333360
 C     21   9   8     2.640974144640   123.49234527   105.46066086
 C     81  21   9     2.645926595502   120.62379716   182.86029863
 C     82  81  21     2.644639039993   121.72108782     1.21154612
 C     83  82  81     2.657558763742   117.34505124   358.33850206
 C     84  83  82     2.632156681111   121.07634824     0.61709078
 C     20   9   8     2.650825757081   119.99247808   164.11661515
 C     86  20   9     2.635632422243   120.82021864   175.25328850
 C     87  86  20     2.652178230045   121.24920409     0.37205531
 C     88  87  86     2.647238716026   117.58020017     0.42252694
 C     89  88  87     2.638439173885   121.37047779   359.44500426
 C     22  15  14     2.642430161034   120.84370693    17.45859411
 C     91  22  15     2.639897344127   120.95342040   177.06867311
 C     92  91  22     2.639958420744   121.28546314     0.06215998
 C     93  92  91     2.657128405410   117.64992462   359.16957250
 C     94  93  92     2.636540701367   121.27195518     0.86214764
 C     23  15  14     2.642509304171   122.64416472   264.51115649
 C     96  23  15     2.643778166180   120.69000897   174.85567121
 C     97  96  23     2.646316007536   121.51297082   359.14444136
 C     98  97  96     2.655846235438   117.47995267     0.60814241
 C     99  98  97     2.629864627521   121.23212855     0.17703403
 O     60  55  54     2.301012734444   123.13957185     1.43995172
 O     62  61  60     2.299774190346   121.42104035   180.12230154
 O     48  47  46     2.286703870429   127.77942735   176.92442776
 O     52  51  50     2.285160383813   126.27224349   173.25308797
 O     74  71  70     2.299022138457   122.78103463   179.84934386
 O     76  75  74     2.300083438375   120.53154941   181.22315866
 C     88  87  86     2.857303452427   120.81685080   180.21923418
 C     83  82  81     2.868093142601   120.67046937   176.59934044
 C    107  88  87     2.892445595136   113.63895318   121.26401741
 C    108  83  82     2.896842398401   115.83585147   141.68434888
 C     93  92  91     2.854943155541   121.26415195   181.34258393
 C    111  93  92     2.895384918203   113.00871800   107.58570351
 C     98  97  96     2.859884151456   121.31213267   181.35499132
 C    113  98  97     2.894897796563   114.63611872   229.66044595
 H      3   2   1     2.062859648564   121.57701827   178.22052418
 H      6   5   4     2.063381111227   121.12239837   179.44824709
 H     12  11  10     2.057441122309   122.82012382   180.92039930
 H     18  17  16     2.055555266566   122.70011383   180.28724232
 H     28  27  26     2.066509161899   118.56424008   181.64413316
 H     29  19  11     2.061231319084   118.98172540     0.52259040
 H     33  32  31     2.065007143719   118.25530957   177.14624137
 H     34  24  17     2.058231519088   118.75114853   358.51490989
 H     41  27  26     2.071950727427   117.05139650   136.76954042
 H     43  32  31     2.073030216104   113.70664363   219.86894643
 H     53  45  42     2.057750699849   121.50306768     1.62103435
 H     54  53  45     2.063566897892   119.98040693   179.64257194
 H     58  57  56     2.063730756504   117.85416259   180.06307226
 H     59  47  46     2.064923201354   120.70387331   180.31878330
 H     63  61  60     2.076157890743   107.06460119   317.23213925
 H     63  61  60     2.073570069166   107.00145777   199.79686198
 H     64  63  61     2.087772423424   106.94240563   299.33726268
 H     65  64  63     2.080629988823   111.26045234    59.80335395
 H     65  64  63     2.081780903022   111.89529436   299.63560841
 H     65  64  63     2.081998154757   110.37500207   180.15172705
 H     66  64  63     2.086172489534   110.90625907   296.97363429
 H     66  64  63     2.079583651880   111.21110456   177.24924321
 H     66  64  63     2.082771539697   111.52187305    56.97547454
 H     67  51  50     2.063444355150   120.86585707   179.84738899
 H     68  67  51     2.062536763824   120.47994469   181.15516660
 H     72  71  70     2.063916923838   117.68887558   179.75486223
 H     73  49  44     2.063687513794   121.34190716     3.95059968
 H     77  75  74     2.074968723187   107.22323694   140.02333704
 H     77  75  74     2.070805000897   106.78072468    22.24793712
 H     78  77  75     2.085421512587   106.80703798   294.94044348
 H     79  78  77     2.083056924276   111.22242258    57.75770634
 H     79  78  77     2.081149549824   111.89607467   297.11878939
 H     79  78  77     2.079340374288   110.29270673   177.73817381
 H     80  78  77     2.086617955393   110.92708010   294.10813640
 H     80  78  77     2.079228715381   111.01987113   174.83709662
 H     80  78  77     2.083065400549   111.65449433    54.83865734
 H     81  21   9     2.057639306981   119.99248815     2.64955155
 H     82  81  21     2.065737845726   119.03936452   180.76307024
 H     84  83  82     2.062563119722   119.98071334   180.78432856
 H     85  84  83     2.062994469684   119.43784244   181.31725931
 H     86  20   9     2.062565661462   119.79001142   354.87242060
 H     87  86  20     2.065074007265   119.51420002   180.36934281
 H     89  88  87     2.066355750143   119.74455659   179.13824078
 H     90  89  88     2.061421846095   119.64915063   179.82621634
 H     91  22  15     2.060436507531   119.51389451   357.03839197
 H     92  91  22     2.065218501425   119.23795048   179.13225715
 H     94  93  92     2.066679152049   119.42630726   180.19943780
 H     95  94  93     2.062752153033   119.61659808   179.29971609
 H     96  23  15     2.066798220910   119.80280989   355.65056907
 H     97  96  23     2.066114379670   119.00752428   179.57105271
 H     99  98  97     2.065399750364   119.71594432   179.76646392
 H    100  99  98     2.063562935580   119.38751909   179.21973892
 H    107  88  87     2.080856950165   108.81864036   358.98749702
 H    107  88  87     2.087334605245   109.34632825   243.57745148
 H    108  83  82     2.083718345069   108.44702601    18.18086076
 H    108  83  82     2.092074442016   108.40701568   264.49896199
 H    109 107  88     2.081592337423   110.95104833   303.52408192
 H    109 107  88     2.081705269530   110.92406807   183.51303170
 H    109 107  88     2.080813137654   111.65876394    63.35198180
 H    110 108  83     2.082694555297   111.22253368   301.72051756
 H    110 108  83     2.081063546821   110.73697183   181.37900354
 H    110 108  83     2.079875616915   111.98036959    61.89189550
 H    111  93  92     2.081723915892   109.19378119   345.40069086
 H    111  93  92     2.087292768988   109.31461756   229.72639765
 H    112 111  93     2.081507725378   111.05537064   300.08483689
 H    112 111  93     2.082303174863   111.03074378   179.44563738
 H    112 111  93     2.080235973619   111.02561054    59.60845052
 H    113  98  97     2.089402804670   108.82825900   107.40822664
 H    113  98  97     2.081636030174   108.80008991   352.75964272
 H    114 113  98     2.080538977910   111.82464922   298.24382935
 H    114 113  98     2.080443607422   110.81286043   178.71744539
 H    114 113  98     2.081942659415   111.24287842    58.19744103

---------------------
BASIS SET INFORMATION
---------------------
There are 5 groups of distinct atoms

 Group   1 Type C   : 11s6p2d1f contracted to 5s3p2d1f pattern {62111/411/11/1}
 Group   2 Type S   : 14s9p3d1f contracted to 5s5p2d1f pattern {73211/51111/21/1}
 Group   3 Type N   : 11s6p2d1f contracted to 5s3p2d1f pattern {62111/411/11/1}
 Group   4 Type O   : 11s6p2d1f contracted to 5s3p2d1f pattern {62111/411/11/1}
 Group   5 Type H   : 5s1p contracted to 3s1p pattern {311/1}

Atom   0C    basis set group =>   1
Atom   1C    basis set group =>   1
Atom   2C    basis set group =>   1
Atom   3C    basis set group =>   1
Atom   4C    basis set group =>   1
Atom   5C    basis set group =>   1
Atom   6C    basis set group =>   1
Atom   7C    basis set group =>   1
Atom   8C    basis set group =>   1
Atom   9S    basis set group =>   2
Atom  10C    basis set group =>   1
Atom  11C    basis set group =>   1
Atom  12C    basis set group =>   1
Atom  13C    basis set group =>   1
Atom  14C    basis set group =>   1
Atom  15S    basis set group =>   2
Atom  16C    basis set group =>   1
Atom  17C    basis set group =>   1
Atom  18C    basis set group =>   1
Atom  19C    basis set group =>   1
Atom  20C    basis set group =>   1
Atom  21C    basis set group =>   1
Atom  22C    basis set group =>   1
Atom  23C    basis set group =>   1
Atom  24C    basis set group =>   1
Atom  25C    basis set group =>   1
Atom  26C    basis set group =>   1
Atom  27C    basis set group =>   1
Atom  28C    basis set group =>   1
Atom  29C    basis set group =>   1
Atom  30C    basis set group =>   1
Atom  31C    basis set group =>   1
Atom  32C    basis set group =>   1
Atom  33C    basis set group =>   1
Atom  34N    basis set group =>   3
Atom  35S    basis set group =>   2
Atom  36N    basis set group =>   3
Atom  37N    basis set group =>   3
Atom  38S    basis set group =>   2
Atom  39N    basis set group =>   3
Atom  40C    basis set group =>   1
Atom  41C    basis set group =>   1
Atom  42C    basis set group =>   1
Atom  43C    basis set group =>   1
Atom  44C    basis set group =>   1
Atom  45C    basis set group =>   1
Atom  46C    basis set group =>   1
Atom  47C    basis set group =>   1
Atom  48C    basis set group =>   1
Atom  49C    basis set group =>   1
Atom  50C    basis set group =>   1
Atom  51C    basis set group =>   1
Atom  52C    basis set group =>   1
Atom  53C    basis set group =>   1
Atom  54C    basis set group =>   1
Atom  55C    basis set group =>   1
Atom  56C    basis set group =>   1
Atom  57C    basis set group =>   1
Atom  58C    basis set group =>   1
Atom  59C    basis set group =>   1
Atom  60N    basis set group =>   3
Atom  61C    basis set group =>   1
Atom  62C    basis set group =>   1
Atom  63C    basis set group =>   1
Atom  64C    basis set group =>   1
Atom  65C    basis set group =>   1
Atom  66C    basis set group =>   1
Atom  67C    basis set group =>   1
Atom  68C    basis set group =>   1
Atom  69C    basis set group =>   1
Atom  70C    basis set group =>   1
Atom  71C    basis set group =>   1
Atom  72C    basis set group =>   1
Atom  73C    basis set group =>   1
Atom  74N    basis set group =>   3
Atom  75C    basis set group =>   1
Atom  76C    basis set group =>   1
Atom  77C    basis set group =>   1
Atom  78C    basis set group =>   1
Atom  79C    basis set group =>   1
Atom  80C    basis set group =>   1
Atom  81C    basis set group =>   1
Atom  82C    basis set group =>   1
Atom  83C    basis set group =>   1
Atom  84C    basis set group =>   1
Atom  85C    basis set group =>   1
Atom  86C    basis set group =>   1
Atom  87C    basis set group =>   1
Atom  88C    basis set group =>   1
Atom  89C    basis set group =>   1
Atom  90C    basis set group =>   1
Atom  91C    basis set group =>   1
Atom  92C    basis set group =>   1
Atom  93C    basis set group =>   1
Atom  94C    basis set group =>   1
Atom  95C    basis set group =>   1
Atom  96C    basis set group =>   1
Atom  97C    basis set group =>   1
Atom  98C    basis set group =>   1
Atom  99C    basis set group =>   1
Atom 100O    basis set group =>   4
Atom 101O    basis set group =>   4
Atom 102O    basis set group =>   4
Atom 103O    basis set group =>   4
Atom 104O    basis set group =>   4
Atom 105O    basis set group =>   4
Atom 106C    basis set group =>   1
Atom 107C    basis set group =>   1
Atom 108C    basis set group =>   1
Atom 109C    basis set group =>   1
Atom 110C    basis set group =>   1
Atom 111C    basis set group =>   1
Atom 112C    basis set group =>   1
Atom 113C    basis set group =>   1
Atom 114H    basis set group =>   5
Atom 115H    basis set group =>   5
Atom 116H    basis set group =>   5
Atom 117H    basis set group =>   5
Atom 118H    basis set group =>   5
Atom 119H    basis set group =>   5
Atom 120H    basis set group =>   5
Atom 121H    basis set group =>   5
Atom 122H    basis set group =>   5
Atom 123H    basis set group =>   5
Atom 124H    basis set group =>   5
Atom 125H    basis set group =>   5
Atom 126H    basis set group =>   5
Atom 127H    basis set group =>   5
Atom 128H    basis set group =>   5
Atom 129H    basis set group =>   5
Atom 130H    basis set group =>   5
Atom 131H    basis set group =>   5
Atom 132H    basis set group =>   5
Atom 133H    basis set group =>   5
Atom 134H    basis set group =>   5
Atom 135H    basis set group =>   5
Atom 136H    basis set group =>   5
Atom 137H    basis set group =>   5
Atom 138H    basis set group =>   5
Atom 139H    basis set group =>   5
Atom 140H    basis set group =>   5
Atom 141H    basis set group =>   5
Atom 142H    basis set group =>   5
Atom 143H    basis set group =>   5
Atom 144H    basis set group =>   5
Atom 145H    basis set group =>   5
Atom 146H    basis set group =>   5
Atom 147H    basis set group =>   5
Atom 148H    basis set group =>   5
Atom 149H    basis set group =>   5
Atom 150H    basis set group =>   5
Atom 151H    basis set group =>   5
Atom 152H    basis set group =>   5
Atom 153H    basis set group =>   5
Atom 154H    basis set group =>   5
Atom 155H    basis set group =>   5
Atom 156H    basis set group =>   5
Atom 157H    basis set group =>   5
Atom 158H    basis set group =>   5
Atom 159H    basis set group =>   5
Atom 160H    basis set group =>   5
Atom 161H    basis set group =>   5
Atom 162H    basis set group =>   5
Atom 163H    basis set group =>   5
Atom 164H    basis set group =>   5
Atom 165H    basis set group =>   5
Atom 166H    basis set group =>   5
Atom 167H    basis set group =>   5
Atom 168H    basis set group =>   5
Atom 169H    basis set group =>   5
Atom 170H    basis set group =>   5
Atom 171H    basis set group =>   5
Atom 172H    basis set group =>   5
Atom 173H    basis set group =>   5
Atom 174H    basis set group =>   5
Atom 175H    basis set group =>   5
Atom 176H    basis set group =>   5
Atom 177H    basis set group =>   5
Atom 178H    basis set group =>   5
Atom 179H    basis set group =>   5
Atom 180H    basis set group =>   5
Atom 181H    basis set group =>   5
Atom 182H    basis set group =>   5
Atom 183H    basis set group =>   5
Atom 184H    basis set group =>   5
Atom 185H    basis set group =>   5
---------------------------------
AUXILIARY/J BASIS SET INFORMATION
---------------------------------
There are 5 groups of distinct atoms

 Group   1 Type C   : 12s5p4d2f1g contracted to 6s4p3d1f1g pattern {711111/2111/211/2/1}
 Group   2 Type S   : 14s5p5d2f1g contracted to 8s4p3d1f1g pattern {71111111/2111/311/2/1}
 Group   3 Type N   : 12s5p4d2f1g contracted to 6s4p3d1f1g pattern {711111/2111/211/2/1}
 Group   4 Type O   : 12s5p4d2f1g contracted to 6s4p3d1f1g pattern {711111/2111/211/2/1}
 Group   5 Type H   : 5s2p1d contracted to 3s1p1d pattern {311/2/1}

Atom   0C    basis set group =>   1
Atom   1C    basis set group =>   1
Atom   2C    basis set group =>   1
Atom   3C    basis set group =>   1
Atom   4C    basis set group =>   1
Atom   5C    basis set group =>   1
Atom   6C    basis set group =>   1
Atom   7C    basis set group =>   1
Atom   8C    basis set group =>   1
Atom   9S    basis set group =>   2
Atom  10C    basis set group =>   1
Atom  11C    basis set group =>   1
Atom  12C    basis set group =>   1
Atom  13C    basis set group =>   1
Atom  14C    basis set group =>   1
Atom  15S    basis set group =>   2
Atom  16C    basis set group =>   1
Atom  17C    basis set group =>   1
Atom  18C    basis set group =>   1
Atom  19C    basis set group =>   1
Atom  20C    basis set group =>   1
Atom  21C    basis set group =>   1
Atom  22C    basis set group =>   1
Atom  23C    basis set group =>   1
Atom  24C    basis set group =>   1
Atom  25C    basis set group =>   1
Atom  26C    basis set group =>   1
Atom  27C    basis set group =>   1
Atom  28C    basis set group =>   1
Atom  29C    basis set group =>   1
Atom  30C    basis set group =>   1
Atom  31C    basis set group =>   1
Atom  32C    basis set group =>   1
Atom  33C    basis set group =>   1
Atom  34N    basis set group =>   3
Atom  35S    basis set group =>   2
Atom  36N    basis set group =>   3
Atom  37N    basis set group =>   3
Atom  38S    basis set group =>   2
Atom  39N    basis set group =>   3
Atom  40C    basis set group =>   1
Atom  41C    basis set group =>   1
Atom  42C    basis set group =>   1
Atom  43C    basis set group =>   1
Atom  44C    basis set group =>   1
Atom  45C    basis set group =>   1
Atom  46C    basis set group =>   1
Atom  47C    basis set group =>   1
Atom  48C    basis set group =>   1
Atom  49C    basis set group =>   1
Atom  50C    basis set group =>   1
Atom  51C    basis set group =>   1
Atom  52C    basis set group =>   1
Atom  53C    basis set group =>   1
Atom  54C    basis set group =>   1
Atom  55C    basis set group =>   1
Atom  56C    basis set group =>   1
Atom  57C    basis set group =>   1
Atom  58C    basis set group =>   1
Atom  59C    basis set group =>   1
Atom  60N    basis set group =>   3
Atom  61C    basis set group =>   1
Atom  62C    basis set group =>   1
Atom  63C    basis set group =>   1
Atom  64C    basis set group =>   1
Atom  65C    basis set group =>   1
Atom  66C    basis set group =>   1
Atom  67C    basis set group =>   1
Atom  68C    basis set group =>   1
Atom  69C    basis set group =>   1
Atom  70C    basis set group =>   1
Atom  71C    basis set group =>   1
Atom  72C    basis set group =>   1
Atom  73C    basis set group =>   1
Atom  74N    basis set group =>   3
Atom  75C    basis set group =>   1
Atom  76C    basis set group =>   1
Atom  77C    basis set group =>   1
Atom  78C    basis set group =>   1
Atom  79C    basis set group =>   1
Atom  80C    basis set group =>   1
Atom  81C    basis set group =>   1
Atom  82C    basis set group =>   1
Atom  83C    basis set group =>   1
Atom  84C    basis set group =>   1
Atom  85C    basis set group =>   1
Atom  86C    basis set group =>   1
Atom  87C    basis set group =>   1
Atom  88C    basis set group =>   1
Atom  89C    basis set group =>   1
Atom  90C    basis set group =>   1
Atom  91C    basis set group =>   1
Atom  92C    basis set group =>   1
Atom  93C    basis set group =>   1
Atom  94C    basis set group =>   1
Atom  95C    basis set group =>   1
Atom  96C    basis set group =>   1
Atom  97C    basis set group =>   1
Atom  98C    basis set group =>   1
Atom  99C    basis set group =>   1
Atom 100O    basis set group =>   4
Atom 101O    basis set group =>   4
Atom 102O    basis set group =>   4
Atom 103O    basis set group =>   4
Atom 104O    basis set group =>   4
Atom 105O    basis set group =>   4
Atom 106C    basis set group =>   1
Atom 107C    basis set group =>   1
Atom 108C    basis set group =>   1
Atom 109C    basis set group =>   1
Atom 110C    basis set group =>   1
Atom 111C    basis set group =>   1
Atom 112C    basis set group =>   1
Atom 113C    basis set group =>   1
Atom 114H    basis set group =>   5
Atom 115H    basis set group =>   5
Atom 116H    basis set group =>   5
Atom 117H    basis set group =>   5
Atom 118H    basis set group =>   5
Atom 119H    basis set group =>   5
Atom 120H    basis set group =>   5
Atom 121H    basis set group =>   5
Atom 122H    basis set group =>   5
Atom 123H    basis set group =>   5
Atom 124H    basis set group =>   5
Atom 125H    basis set group =>   5
Atom 126H    basis set group =>   5
Atom 127H    basis set group =>   5
Atom 128H    basis set group =>   5
Atom 129H    basis set group =>   5
Atom 130H    basis set group =>   5
Atom 131H    basis set group =>   5
Atom 132H    basis set group =>   5
Atom 133H    basis set group =>   5
Atom 134H    basis set group =>   5
Atom 135H    basis set group =>   5
Atom 136H    basis set group =>   5
Atom 137H    basis set group =>   5
Atom 138H    basis set group =>   5
Atom 139H    basis set group =>   5
Atom 140H    basis set group =>   5
Atom 141H    basis set group =>   5
Atom 142H    basis set group =>   5
Atom 143H    basis set group =>   5
Atom 144H    basis set group =>   5
Atom 145H    basis set group =>   5
Atom 146H    basis set group =>   5
Atom 147H    basis set group =>   5
Atom 148H    basis set group =>   5
Atom 149H    basis set group =>   5
Atom 150H    basis set group =>   5
Atom 151H    basis set group =>   5
Atom 152H    basis set group =>   5
Atom 153H    basis set group =>   5
Atom 154H    basis set group =>   5
Atom 155H    basis set group =>   5
Atom 156H    basis set group =>   5
Atom 157H    basis set group =>   5
Atom 158H    basis set group =>   5
Atom 159H    basis set group =>   5
Atom 160H    basis set group =>   5
Atom 161H    basis set group =>   5
Atom 162H    basis set group =>   5
Atom 163H    basis set group =>   5
Atom 164H    basis set group =>   5
Atom 165H    basis set group =>   5
Atom 166H    basis set group =>   5
Atom 167H    basis set group =>   5
Atom 168H    basis set group =>   5
Atom 169H    basis set group =>   5
Atom 170H    basis set group =>   5
Atom 171H    basis set group =>   5
Atom 172H    basis set group =>   5
Atom 173H    basis set group =>   5
Atom 174H    basis set group =>   5
Atom 175H    basis set group =>   5
Atom 176H    basis set group =>   5
Atom 177H    basis set group =>   5
Atom 178H    basis set group =>   5
Atom 179H    basis set group =>   5
Atom 180H    basis set group =>   5
Atom 181H    basis set group =>   5
Atom 182H    basis set group =>   5
Atom 183H    basis set group =>   5
Atom 184H    basis set group =>   5
Atom 185H    basis set group =>   5


           ************************************************************
           *        Program running with 6 parallel MPI-processes     *
           *              working on a common directory               *
           ************************************************************
------------------------------------------------------------------------------
                           ORCA GTO INTEGRAL CALCULATION
                           -- RI-GTO INTEGRALS CHOSEN --
------------------------------------------------------------------------------

                         BASIS SET STATISTICS AND STARTUP INFO

Gaussian basis set:
 # of primitive gaussian shells          ... 2740
 # of primitive gaussian functions       ... 5888
 # of contracted shells                  ... 1550
 # of contracted basis functions         ... 3990
 Highest angular momentum                ...    3
 Maximum contraction depth               ...    7
Auxiliary gaussian basis set:
 # of primitive gaussian shells          ... 3324
 # of primitive gaussian functions       ... 9160
 # of contracted shells                  ... 2078
 # of contracted aux-basis functions     ... 6386
 Highest angular momentum                ...    4
 Maximum contraction depth               ...    7
Ratio of auxiliary to basis functions    ...  1.60
Integral package used                  ... LIBINT
 One Electron integrals                  ... done
 Ordering auxiliary basis shells         ... done
 Integral threshhold             Thresh  ...  2.500e-11
 Primitive cut-off               TCut    ...  2.500e-12
 Pre-screening matrix                    ... done
 Shell pair data                         ... 
[...]
   395a -> 407a  :     0.298685 (c=  0.54652097)
   396a -> 407a  :     0.024385 (c=  0.15615653)
   399a -> 408a  :     0.022916 (c= -0.15138031)
   406a -> 415a  :     0.013396 (c= -0.11573905)

STATE 44:  E=   0.128790 au      3.505 eV    28266.2 cm**-1
   383a -> 409a  :     0.012333 (c=  0.11105565)
   386a -> 409a  :     0.098001 (c= -0.31305177)
   387a -> 407a  :     0.013913 (c=  0.11795169)
   387a -> 408a  :     0.031133 (c=  0.17644404)
   387a -> 409a  :     0.616877 (c= -0.78541493)
   390a -> 407a  :     0.012670 (c=  0.11255986)
   392a -> 407a  :     0.043080 (c= -0.20755697)
   395a -> 407a  :     0.013891 (c= -0.11786032)
   396a -> 407a  :     0.038636 (c=  0.19656160)
   400a -> 409a  :     0.019736 (c= -0.14048419)

STATE 45:  E=   0.129195 au      3.516 eV    28355.1 cm**-1
   387a -> 409a  :     0.042484 (c=  0.20611642)
   392a -> 407a  :     0.028303 (c= -0.16823501)
   394a -> 407a  :     0.343183 (c=  0.58581800)
   394a -> 408a  :     0.021777 (c=  0.14757093)
   396a -> 407a  :     0.311214 (c=  0.55786517)
   397a -> 407a  :     0.025192 (c= -0.15872090)
   398a -> 407a  :     0.015319 (c=  0.12376957)
   405a -> 411a  :     0.016864 (c=  0.12986064)
   405a -> 412a  :     0.013675 (c= -0.11693882)
   406a -> 413a  :     0.027644 (c= -0.16626545)

STATE 46:  E=   0.129667 au      3.528 eV    28458.7 cm**-1
   385a -> 410a  :     0.036500 (c= -0.19105047)
   386a -> 410a  :     0.016823 (c= -0.12970542)
   393a -> 407a  :     0.031036 (c= -0.17617128)
   394a -> 407a  :     0.397031 (c= -0.63010434)
   394a -> 408a  :     0.018641 (c= -0.13653363)
   396a -> 407a  :     0.100811 (c=  0.31750741)
   397a -> 408a  :     0.027061 (c= -0.16450345)
   398a -> 407a  :     0.019008 (c=  0.13787032)
   398a -> 408a  :     0.120222 (c= -0.34673037)
   399a -> 410a  :     0.017312 (c= -0.13157489)
   401a -> 411a  :     0.012316 (c=  0.11097569)
   404a -> 411a  :     0.011609 (c= -0.10774494)
   405a -> 411a  :     0.016321 (c=  0.12775444)
   406a -> 413a  :     0.017195 (c= -0.13112847)
   406a -> 415a  :     0.010011 (c=  0.10005402)

STATE 47:  E=   0.129848 au      3.533 eV    28498.3 cm**-1
   385a -> 407a  :     0.030026 (c=  0.17327891)
   385a -> 410a  :     0.608490 (c=  0.78005773)
   386a -> 410a  :     0.099857 (c=  0.31600172)
   391a -> 407a  :     0.069754 (c= -0.26411032)
   394a -> 407a  :     0.012201 (c= -0.11045839)
   399a -> 410a  :     0.020880 (c= -0.14449800)
   400a -> 410a  :     0.011141 (c=  0.10554987)

STATE 48:  E=   0.130519 au      3.552 eV    28645.5 cm**-1
   390a -> 407a  :     0.090166 (c= -0.30027635)
   392a -> 407a  :     0.058100 (c= -0.24103954)
   392a -> 408a  :     0.042659 (c= -0.20654101)
   394a -> 407a  :     0.125282 (c= -0.35395136)
   395a -> 407a  :     0.013153 (c=  0.11468578)
   397a -> 407a  :     0.018362 (c= -0.13550573)
   397a -> 408a  :     0.084854 (c=  0.29129731)
   398a -> 408a  :     0.430849 (c=  0.65639123)
   406a -> 415a  :     0.034724 (c=  0.18634253)
   406a -> 416a  :     0.022916 (c= -0.15137920)

STATE 49:  E=   0.131059 au      3.566 eV    28764.1 cm**-1
   384a -> 407a  :     0.023498 (c=  0.15329184)
   390a -> 407a  :     0.312882 (c=  0.55935822)
   392a -> 407a  :     0.056348 (c=  0.23737690)
   392a -> 408a  :     0.139698 (c=  0.37376148)
   394a -> 407a  :     0.013496 (c= -0.11617335)
   396a -> 407a  :     0.018737 (c=  0.13688206)
   397a -> 408a  :     0.040734 (c=  0.20182733)
   398a -> 408a  :     0.204812 (c=  0.45256177)
   399a -> 410a  :     0.013369 (c= -0.11562494)
   406a -> 414a  :     0.021086 (c= -0.14521160)
   406a -> 415a  :     0.048056 (c= -0.21921723)
   406a -> 416a  :     0.020900 (c=  0.14456851)

STATE 50:  E=   0.131385 au      3.575 eV    28835.7 cm**-1
   390a -> 407a  :     0.010964 (c= -0.10470808)
   391a -> 410a  :     0.024712 (c=  0.15720147)
   396a -> 407a  :     0.044038 (c= -0.20985291)
   397a -> 408a  :     0.023669 (c=  0.15384890)
   398a -> 410a  :     0.011171 (c= -0.10569410)
   399a -> 410a  :     0.657283 (c= -0.81073021)
   400a -> 410a  :     0.047301 (c=  0.21748828)
   401a -> 411a  :     0.018228 (c=  0.13501053)
   404a -> 411a  :     0.017248 (c= -0.13133076)


-----------------------------
TD-DFT/TDA-EXCITATION SPECTRA
-----------------------------

Center of mass = (  8.4173,  3.7674,  6.6469)
Calculating the Dipole integrals                  ... done
Transforming integrals                            ... done
Calculating the Linear Momentum integrals         ... done
Transforming integrals                            ... done
Calculating angular momentum integrals            ... done
Transforming integrals                            ... done

-----------------------------------------------------------------------------
         ABSORPTION SPECTRUM VIA TRANSITION ELECTRIC DIPOLE MOMENTS
-----------------------------------------------------------------------------
State   Energy    Wavelength  fosc         T2        TX        TY        TZ  
        (cm-1)      (nm)                 (au**2)    (au)      (au)      (au) 
-----------------------------------------------------------------------------
   1   14097.6    709.3   2.142231259  50.02599  -0.69898   2.53331  -6.56657
   2   16044.3    623.3   0.153787020   3.15555  -0.44181   0.12273   1.71619
   3   16377.1    610.6   0.005243846   0.10541  -0.07682   0.26680   0.16831
   4   16438.8    608.3   0.002442692   0.04892   0.09491  -0.05809  -0.19114
   5   19856.7    503.6   0.082456664   1.36708   0.58933  -0.87693  -0.50076
   6   21019.7    475.7   0.066673305   1.04424  -0.63650   0.59470   0.53428
   7   21218.1    471.3   0.413688243   6.41861   0.38006  -1.35498   2.10670
   8   21905.9    456.5   0.014930284   0.22438   0.09807  -0.03529  -0.46208
   9   21978.9    455.0   0.006828776   0.10229   0.00527  -0.29858  -0.11448
  10   22063.0    453.2   0.232919462   3.47550  -0.21767  -0.04002   1.85108
  11   22312.0    448.2   0.121000128   1.78534   0.14567  -0.52495   1.22006
  12   22607.2    442.3   0.005380961   0.07836  -0.05241  -0.12921  -0.24273
  13   23178.2    431.4   0.000364244   0.00517  -0.06847   0.01312   0.01769
  14   23482.3    425.9   0.160295270   2.24727   0.14025  -0.44637   1.42420
  15   24169.5    413.7   0.060139336   0.81916   0.14481  -0.57786   0.68137
  16   24493.7    408.3   0.002027998   0.02726   0.04598  -0.11372   0.11051
  17   24513.4    407.9   0.070804115   0.95089   0.04649  -0.16614   0.95975
  18   24793.4    403.3   0.012832708   0.17040  -0.14566   0.27217   0.27405
  19   24914.0    401.4   0.080587704   1.06488   0.30682  -0.55593   0.81344
  20   24982.7    400.3   0.012591179   0.16592   0.12912  -0.30546   0.23652
  21   25133.5    397.9   0.353649067   4.63229  -0.13549   0.20735  -2.13798
  22   25286.2    395.5   0.053418556   0.69548  -0.25997   0.07859  -0.78849
  23   25870.4    386.5   0.004894910   0.06229  -0.17628   0.10569   0.14158
  24   25927.2    385.7   0.044018595   0.55893   0.06121  -0.58963  -0.45554
  25   26027.6    384.2   0.008963083   0.11337   0.08961  -0.03198   0.32298
  26   26198.1    381.7   0.002773301   0.03485   0.04285   0.10085   0.15114
  27   26402.0    378.8   0.001959143   0.02443   0.01353  -0.13368  -0.07984
  28   26601.0    375.9   0.001870839   0.02315  -0.04406   0.04467   0.13863
  29   26736.6    374.0   0.035586738   0.43818   0.31414  -0.57257  -0.10799
  30   26867.2    372.2   0.002787157   0.03415   0.04398  -0.16238  -0.07648
  31   26880.3    372.0   0.000108948   0.00133  -0.00063  -0.02601   0.02564
  32   26952.5    371.0   0.016121827   0.19692  -0.01131  -0.44229  -0.03429
  33   27115.7    368.8   0.000277048   0.00336   0.00738   0.05708   0.00712
  34   27131.5    368.6   0.001401698   0.01701  -0.03772  -0.10276   0.07090
  35   27274.4    366.6   0.013047912   0.15749   0.08639  -0.32723  -0.20724
  36   27331.0    365.9   0.044956527   0.54152   0.14815  -0.64921  -0.31320
  37   27534.1    363.2   0.000464804   0.00556   0.00579   0.05611   0.04874
  38   27765.5    360.2   0.059673856   0.70754   0.17362  -0.31534  -0.76024
  39   27815.9    359.5   0.018227071   0.21572  -0.07285   0.37447  -0.26493
  40   27992.4    357.2   0.028328330   0.33316   0.07949   0.00043  -0.57170
  41   28058.2    356.4   0.001399020   0.01641  -0.01740  -0.01655   0.12585
  42   28123.0    355.6   0.000668479   0.00783  -0.01700   0.08654   0.00685
  43   28208.5    354.5   0.002438640   0.02846   0.12268  -0.11171   0.03053
  44   28266.2    353.8   0.003753391   0.04372   0.03288  -0.13987  -0.15189
  45   28355.1    352.7   0.022820859   0.26496   0.11420  -0.41711   0.27916
  46   28458.7    351.4   0.016202155   0.18743   0.12097  -0.35350   0.21871
  47   28498.3    350.9   0.000872441   0.01008   0.03853  -0.00939   0.09223
  48   28645.5    349.1   0.005080732   0.05839  -0.04939  -0.00775   0.23641
  49   28764.1    347.7   0.002093888   0.02397  -0.07251  -0.10618   0.08622
  50   28835.7    346.8   0.016561298   0.18908   0.05106  -0.12503  -0.41333

-----------------------------------------------------------------------------
         ABSORPTION SPECTRUM VIA TRANSITION VELOCITY DIPOLE MOMENTS
-----------------------------------------------------------------------------
State   Energy    Wavelength   fosc        P2         PX        PY        PZ  
        (cm-1)      (nm)                 (au**2)     (au)      (au)      (au) 
-----------------------------------------------------------------------------
   1   14097.6    709.3   0.705488513   0.06797   0.04085  -0.12512   0.22506
   2   16044.3    623.3   0.098353771   0.01078  -0.02276   0.00590  -0.10115
   3   16377.1    610.6   0.005480458   0.00061  -0.00230   0.00976   0.02265
   4   16438.8    608.3   0.002836589   0.00032   0.01585  -0.00675  -0.00467
   5   19856.7    503.6   0.033314977   0.00452   0.00793   0.04778   0.04664
   6   21019.7    475.7   0.017593762   0.00253  -0.00450  -0.04100  -0.02875
   7   21218.1    471.3   0.261371278   0.03790  -0.02797   0.11569  -0.15407
   8   21905.9    456.5   0.001081447   0.00016   0.01215  -0.00191   0.00328
   9   21978.9    455.0   0.006181402   0.00093   0.00249  -0.01937  -0.02339
  10   22063.0    453.2   0.182055637   0.02745   0.00352   0.02801  -0.16326
  11   22312.0    448.2   0.138414284   0.02111  -0.00847   0.03509  -0.14073
  12   22607.2    442.3   0.002989786   0.00046  -0.00455  -0.01305   0.01646
  13   23178.2    431.4   0.001085058   0.00017   0.00074  -0.01045  -0.00788
  14   23482.3    425.9   0.066043671   0.01060  -0.00457   0.02778  -0.09903
  15   24169.5    413.7   0.017608976   0.00291  -0.01533   0.02117  -0.04718
  16   24493.7    408.3   0.000642879   0.00011   0.00389   0.00958  -0.00088
  17   24513.4    407.9   0.025933443   0.00434  -0.00015   0.01237  -0.06474
  18   24793.4    403.3   0.007137756   0.00121  -0.00150  -0.02429  -0.02484
  19   24914.0    401.4   0.026001291   0.00443  -0.00727   0.01661  -0.06402
  20   24982.7    400.3   0.003434827   0.00059  -0.00277   0.02041  -0.01274
  21   25133.5    397.9   0.115250417   0.01980   0.02084  -0.03409   0.13491
  22   25286.2    395.5   0.011092826   0.00192   0.00655  -0.03489   0.02563
  23   25870.4    386.5   0.005374752   0.00095  -0.00167   0.00427   0.03049
  24   25927.2    385.7   0.001316559   0.00023   0.00320  -0.01164  -0.00936
  25   26027.6    384.2   0.006687973   0.00119  -0.00933  -0.02669  -0.01975
  26   26198.1    381.7   0.002507328   0.00045   0.00241  -0.01286  -0.01667
  27   26402.0    378.8   0.000311181   0.00006   0.00159  -0.00682  -0.00265
  28   26601.0    375.9   0.000195491   0.00004  -0.00133  -0.00491   0.00311
  29   26736.6    374.0   0.034896359   0.00638  -0.01848   0.06245  -0.04620
  30   26867.2    372.2   0.000281980   0.00005  -0.00102   0.00314  -0.00639
  31   26880.3    372.0   0.000036213   0.00001  -0.00151   0.00135  -0.00160
  32   26952.5    371.0   0.003143859   0.00058  -0.01181   0.01612  -0.01341
  33   27115.7    368.8   0.001527891   0.00028  -0.00786  -0.00193  -0.01475
  34   27131.5    368.6   0.000780710   0.00014  -0.00470  -0.01078  -0.00252
  35   27274.4    366.6   0.003061630   0.00057  -0.00062   0.02227   0.00863
  36   27331.0    365.9   0.002122369   0.00040  -0.00062   0.00166  -0.01983
  37   27534.1    363.2   0.032979682   0.00621   0.02291  -0.01517  -0.07383
  38   27765.5    360.2   0.026119582   0.00496  -0.01188   0.02458   0.06489
  39   27815.9    359.5   0.022204493   0.00422  -0.00706  -0.01340   0.06318
  40   27992.4    357.2   0.012640684   0.00242  -0.00191   0.00637   0.04873
  41   28058.2    356.4   0.006902445   0.00132   0.00807   0.03413  -0.00968
  42   28123.0    355.6   0.000265698   0.00005  -0.00151  -0.00503   0.00484
  43   28208.5    354.5   0.012330968   0.00238   0.00677   0.04827   0.00135
  44   28266.2    353.8   0.002515133   0.00049  -0.01704  -0.01348   0.00373
  45   28355.1    352.7   0.015419472   0.00299  -0.00928   0.04003  -0.03605
  46   28458.7    351.4   0.018433395   0.00359  -0.00623   0.05599  -0.02028
  47   28498.3    350.9   0.002776312   0.00054   0.02152   0.00867  -0.00158
  48   28645.5    349.1   0.006655952   0.00130  -0.00911   0.00022  -0.03493
  49   28764.1    347.7   0.002082263   0.00041   0.01687   0.01115   0.00060
  50   28835.7    346.8   0.003650373   0.00072  -0.00277  -0.02271   0.01400

-------------------------------------------------------------------
                             CD SPECTRUM
-------------------------------------------------------------------
State  Energy     Wavelength     R         MX        MY        MZ   
       (cm-1)       (nm)     (1e40*cgs)   (au)      (au)      (au)  
-------------------------------------------------------------------
   1   14097.6    709.3    496.29217   1.51167   0.22473  -0.23452
   2   16044.3    623.3    -74.33094   0.26527   0.03915  -0.02638
   3   16377.1    610.6     -0.76905  -0.29482  -0.07104  -0.03165
   4   16438.8    608.3      6.54461  -0.18494  -0.34342  -0.06010
   5   19856.7    503.6    -242.44444  -0.81809  -0.05712   0.16419
   6   21019.7    475.7    -212.48658   0.82839   0.23282  -0.11585
   7   21218.1    471.3     80.94727  -1.08896  -0.08148   0.22555
   8   21905.9    456.5      3.31129  -0.13359  -0.28597  -0.02171
   9   21978.9    455.0     -4.96146   0.40169   0.05196  -0.02510
  10   22063.0    453.2    -51.03082  -0.23590  -0.10279  -0.08844
  11   22312.0    448.2     81.81307  -0.25419   0.00726   0.17571
  12   22607.2    442.3     -2.32958   0.09707  -0.03148   0.01615
  13   23178.2    431.4     -1.63094   0.06873   0.08306   0.00886
  14   23482.3    425.9    -42.41308  -0.59819   0.08053   0.02098
  15   24169.5    413.7     45.09449  -0.35841  -0.24523   0.00858
  16   24493.7    408.3     -4.10603  -0.14127  -0.01878  -0.03935
  17   24513.4    407.9    -58.37081  -0.07941  -0.13085  -0.14781
  18   24793.4    403.3     -1.67777   0.13983   0.08781  -0.02587
  19   24914.0    401.4      1.90388  -0.32815  -0.18858  -0.00014
  20   24982.7    400.3     11.94096  -0.20165  -0.16760   0.00071
  21   25133.5    397.9     53.08131   0.48025   0.27878  -0.05606
  22   25286.2    395.5     -2.12804   0.59182   0.09472  -0.17996
  23   25870.4    386.5     15.46399   0.01473   0.28787   0.03512
  24   25927.2    385.7    -50.23860   0.28604   0.13411   0.09877
  25   26027.6    384.2      7.65630  -0.00958   0.06217   0.05910
  26   26198.1    381.7      3.00126   0.16179   0.03332  -0.02598
  27   26402.0    378.8     -1.64350   0.07644   0.02779   0.01008
  28   26601.0    375.9      0.99903   0.01707   0.05754   0.00217
  29   26736.6    374.0    -42.12562  -0.41878  -0.09892   0.13368
  30   26867.2    372.2     -1.67160  -0.00774   0.00816   0.02458
  31   26880.3    372.0      0.00345  -0.01857   0.00604   0.00595
  32   26952.5    371.0      2.11278  -0.18290  -0.00973   0.05516
  33   27115.7    368.8     -0.27626  -0.00712  -0.00611  -0.02595
  34   27131.5    368.6      3.82306  -0.07264   0.00676   0.08553
  35   27274.4    366.6    -10.73143  -0.25430  -0.03075   0.05238
  36   27331.0    365.9    -14.77983   0.01982   0.03704   0.03269
  37   27534.1    363.2     -3.25185   0.05763  -0.03818  -0.10442
  38   27765.5    360.2    -66.16112  -0.08977  -0.04874   0.18431
  39   27815.9    359.5     -2.75887   0.35266  -0.06336  -0.16444
  40   27992.4    357.2      5.20416   0.15288  -0.07158   0.00189
  41   28058.2    356.4      3.39218  -0.29969   0.05356   0.02278
  42   28123.0    355.6     -1.71137   0.09346  -0.02034  -0.04099
  43   28208.5    354.5    -33.77221  -0.55026   0.04461   0.02795
  44   28266.2    353.8    -19.76783  -0.48546   0.20249  -0.01551
  45   28355.1    352.7      2.74217  -0.49644  -0.09205   0.08639
  46   28458.7    351.4    -12.43278  -0.63802  -0.13261   0.01797
  47   28498.3    350.9     10.72997  -0.11231   0.10196   0.30407
  48   28645.5    349.1      5.94197  -0.10398   0.00451   0.03174
  49   28764.1    347.7     -6.58530   0.16894  -0.04839  -0.07952
  50   28835.7    346.8     -5.61995  -0.01650   0.03095   0.01744

Total run time:   113429.308 sec

           *** ORCA-CIS/TD-DFT FINISHED WITHOUT ERROR ***

-----------------------
CIS/TD-DFT TOTAL ENERGY
-----------------------

    E(SCF)  =  -6149.253432331 Eh
    DE(CIS) =      0.064233544 Eh (Root  1)
    ----------------------------- ---------
    E(tot)  =  -6149.189198786 Eh


-------------------------   --------------------
FINAL SINGLE POINT ENERGY     -6149.189198786444
-------------------------   --------------------


                            ***************************************
                            *     ORCA property calculations      *
                            ***************************************

                                    ---------------------
                                    Active property flags
                                    ---------------------
   (+) Dipole Moment


------------------------------------------------------------------------------
                       ORCA ELECTRIC PROPERTIES CALCULATION
------------------------------------------------------------------------------

Dipole Moment Calculation                       ... on
Quadrupole Moment Calculation                   ... off
Polarizability Calculation                      ... off
GBWName                                         ... NIBT.gbw
Electron density file                           ... NIBT.scfp
The origin for moment calculation is the CENTER OF MASS  = ( 8.417294,  3.767365  6.646946)

-------------
DIPOLE MOMENT
-------------
                                X             Y             Z
Electronic contribution:     -1.11213     -39.73645     -34.29147
Nuclear contribution   :      1.08325      38.92163      33.84157
                        -----------------------------------------
Total Dipole Moment    :     -0.02887      -0.81483      -0.44990
                        -----------------------------------------
Magnitude (a.u.)       :      0.93123
Magnitude (Debye)      :      2.36700



--------------------
Rotational spectrum 
--------------------
 
Rotational constants in cm-1:     0.000601     0.000109     0.000101 
Rotational constants in MHz :    18.007288     3.277038     3.020753 

 Dipole components along the rotational axes: 
x,y,z [a.u.] :    -0.133024    -0.903670     0.181308 
x,y,z [Debye]:    -0.338119    -2.296946     0.460848 

 

Timings for individual modules:

Sum of individual times         ...   120031.822 sec (=2000.530 min)
GTO integral calculation        ...       19.549 sec (=   0.326 min)   0.0 %
SCF iterations                  ...     6581.870 sec (= 109.698 min)   5.5 %
CIS module                      ...   113430.403 sec (=1890.507 min)  94.5 %
                             ****ORCA TERMINATED NORMALLY****
TOTAL RUN TIME: 1 days 9 hours 20 minutes 35 seconds 840 msec
