
                                 *****************
                                 * O   R   C   A *
                                 *****************

           --- An Ab Initio, DFT and Semiempirical electronic structure package ---

                  #######################################################
                  #                        -***-                        #
                  #          Department of theory and spectroscopy      #
                  #               Directorship: Frank Neese             #
                  #        Max Planck Institute fuer Kohlenforschung    #
                  #                Kaiser Wilhelm Platz 1               #
                  #                 D-45470 Muelheim/Ruhr               #
                  #                      Germany                        #
                  #                                                     #
                  #                  All rights reserved                #
                  #                        -***-                        #
                  #######################################################


                         Program Version 4.2.0 -  RELEASE  -


 With contributions from (in alphabetic order):
   Daniel Aravena         : Magnetic Suceptibility
   Michael Atanasov       : Ab Initio Ligand Field Theory (pilot matlab implementation)
   Alexander A. Auer      : GIAO ZORA, VPT2
   Ute Becker             : Parallelization
   Giovanni Bistoni       : ED, misc. LED, open-shell LED, HFLED
   Martin Brehm           : Molecular dynamics
   Dmytro Bykov           : SCF Hessian
   Vijay G. Chilkuri      : MRCI spin determinant printing, contributions to CSF-ICE
   Dipayan Datta          : RHF DLPNO-CCSD density
   Achintya Kumar Dutta   : EOM-CC, STEOM-CC
   Dmitry Ganyushin       : Spin-Orbit,Spin-Spin,Magnetic field MRCI
   Miquel Garcia          : C-PCM Hessian, Gaussian charge scheme
   Yang Guo               : DLPNO-NEVPT2, CIM, IAO-localization
   Andreas Hansen         : Spin unrestricted coupled pair/coupled cluster methods
   Benjamin Helmich-Paris : CASSCF linear response (MC-RPA)
   Lee Huntington         : MR-EOM, pCC
   Robert Izsak           : Overlap fitted RIJCOSX, COSX-SCS-MP3, EOM
   Christian Kollmar      : KDIIS, OOCD, Brueckner-CCSD(T), CCSD density
   Simone Kossmann        : Meta GGA functionals, TD-DFT gradient, OOMP2, MP2 Hessian
   Martin Krupicka        : AUTO-CI
   Lucas Lang             : DCDCAS
   Dagmar Lenk            : GEPOL surface, SMD
   Dimitrios Liakos       : Extrapolation schemes; Compound Job, initial MDCI parallelization
   Dimitrios Manganas     : Further ROCIS development; embedding schemes
   Dimitrios Pantazis     : SARC Basis sets
   Taras Petrenko         : DFT Hessian,TD-DFT gradient, ASA, ECA, R-Raman, ABS, FL, XAS/XES, NRVS
   Peter Pinski           : DLPNO-MP2, DLPNO-MP2 Gradient
   Christoph Reimann      : Effective Core Potentials
   Marius Retegan         : Local ZFS, SOC
   Christoph Riplinger    : Optimizer, TS searches, QM/MM, DLPNO-CCSD(T), (RO)-DLPNO pert. Triples
   Tobias Risthaus        : Range-separated hybrids, TD-DFT gradient, RPA, STAB
   Michael Roemelt        : Original ROCIS implementation
   Masaaki Saitow         : Open-shell DLPNO-CCSD energy and density
   Barbara Sandhoefer     : DKH picture change effects
   Avijit Sen             : IP-ROCIS
   Kantharuban Sivalingam : CASSCF convergence, NEVPT2, FIC-MRCI
   Bernardo de Souza      : ESD, SOC TD-DFT
   Georgi Stoychev        : AutoAux, RI-MP2 NMR
   Willem Van den Heuvel  : Paramagnetic NMR
   Boris Wezisla          : Elementary symmetry handling
   Frank Wennmohs         : Technical directorship


 We gratefully acknowledge several colleagues who have allowed us to
 interface, adapt or use parts of their codes:
   Stefan Grimme, W. Hujo, H. Kruse,             : VdW corrections, initial TS optimization,
                  C. Bannwarth                     DFT functionals, gCP, sTDA/sTD-DF
   Ed Valeev, F. Pavosevic, A. Kumar             : LibInt (2-el integral package), F12 methods
   Garnet Chan, S. Sharma, J. Yang, R. Olivares  : DMRG
   Ulf Ekstrom                                   : XCFun DFT Library
   Mihaly Kallay                                 : mrcc  (arbitrary order and MRCC methods)
   Andreas Klamt, Michael Diedenhofen            : otool_cosmo (COSMO solvation model)
   Jiri Pittner, Ondrej Demel                    : Mk-CCSD
   Frank Weinhold                                : gennbo (NPA and NBO analysis)
   Christopher J. Cramer and Donald G. Truhlar   : smd solvation model
   Lars Goerigk                                  : TD-DFT with DH, B97 family of functionals
   V. Asgeirsson, H. Jonsson                     : NEB implementation
   FAccTs GmbH                                   : IRC, NEB, NEB-TS, Multilevel, MM, QM/MM, CI optimization
   S Lehtola, MJT Oliveira, MAL Marques          : LibXC Library


 Your calculation uses the libint2 library for the computation of 2-el integrals
 For citations please refer to: http://libint.valeyev.net

 Your ORCA version has been built with support for libXC version: 4.2.3
 For citations please refer to: https://tddft.org/programs/libxc/

 This ORCA versions uses:
   CBLAS   interface :  Fast vector & matrix operations
   LAPACKE interface :  Fast linear algebra routines
   SCALAPACK package :  Parallel linear algebra routines


----- Orbital basis set information -----
Your calculation utilizes the basis: def2-TZVP
   F. Weigend and R. Ahlrichs, Phys. Chem. Chem. Phys. 7, 3297 (2005).

----- AuxJ basis set information -----
Your calculation utilizes the auxiliary basis: def2/J
   F. Weigend, Phys. Chem. Chem. Phys. 8, 1057 (2006).

================================================================================
                                        WARNINGS
                       Please study these warnings very carefully!
================================================================================

INFO   : Checking CIS options ...

WARNING: CIS/ROCIS methods need fully converged wavefunctions
  ===> : Setting SCFConvForced true
         You can overwrite this default with %scf ConvForced false 


INFO   : the flag for use of LIBINT has been found!

================================================================================
                                       INPUT FILE
================================================================================
NAME = NIDT.inp
|  1> # ORCA input file
|  2> # NIDT.out
|  3> ! B3LYP def2-TZVP def2/J RIJCOSX Grid4 TightSCF
|  4> %maxcore 10000
|  5> %tddft
|  6>   maxdim 5
|  7>   nroots 50
|  8>   end
|  9> * xyz 0 1
| 10>    C        3.58249         0.63233        -1.12476
| 11>    C        3.16129        -0.68251        -0.82910
| 12>    C        1.86797        -0.95808        -0.46287
| 13>    C        0.98765         0.12178        -0.40869
| 14>    C        1.40618         1.44127        -0.69231
| 15>    C        2.71327         1.71233        -1.03601
| 16>    C        4.97978         0.57574        -1.50410
| 17>    C        5.37926        -0.73271        -1.64240
| 18>    C        4.32619        -1.62915        -0.96699
| 19>    S        6.14980         1.82922        -1.06014
| 20>    C        7.13634         1.01394         0.18758
| 21>    C        6.76134        -0.01217         1.05651
| 22>    C       -0.40578         0.18152        -0.09858
| 23>    C       -0.86412         1.48500        -0.16094
| 24>    C        0.25217         2.41831        -0.54648
| 25>    S       -1.62703        -0.98275         0.29459
| 26>    C       -2.79777         0.30797         0.35998
| 27>    C       -2.23385         1.57071         0.08944
| 28>    C        3.96900        -2.93485        -1.60233
| 29>    C        5.22958        -1.73155         0.26154
| 30>    C        0.60942         3.42275         0.53340
| 31>    C       -0.15777         3.10363        -1.83713
| 32>    C       10.59405         0.39107         1.38269
| 33>    C       11.58265         1.30352         1.21139
| 34>    C       -6.03252         1.93697         0.70365
| 35>    C       -6.71300         3.11597         0.61195
| 36>    C       11.59787         2.72757         0.91877
| 37>    C       12.96114         3.08964         0.78636
| 38>    C       13.84856         2.02254         0.99870
| 39>    C       13.00693         0.84135         1.32326
| 40>    C       -8.14667         3.25823         0.81205
| 41>    C       -8.45125         4.62000         0.59389
| 42>    C       -7.32363         5.38896         0.27066
| 43>    C       -6.16527         4.45196         0.27612
| 44>    C       10.66626         3.74492         0.83628
| 45>    C       11.08985         5.05578         0.56758
| 46>    C       12.42251         5.39002         0.38975
| 47>    C       13.39543         4.38253         0.51847
| 48>    C       14.78068         4.60010         0.41397
| 49>    C       15.65559         3.54217         0.60036
| 50>    C       15.20392         2.24794         0.90561
| 51>    C       12.87608         6.75745         0.10501
| 52>    N       14.25449         6.93582         0.00376
| 53>    C       15.24583         5.96759         0.11639
| 54>    C       14.69528         8.30255        -0.25399
| 55>    C       14.64864         9.18083         1.00309
| 56>    C       15.49823         8.58405         2.12179
| 57>    C       15.13813        10.58086         0.64449
| 58>    C       -7.48423         6.73617         0.03420
| 59>    C       -8.77279         7.29001         0.12431
| 60>    C       -9.88371         6.52597         0.44423
| 61>    C       -9.73047         5.15015         0.68870
| 62>    C      -10.77932         4.27520         1.02549
| 63>    C      -10.48978         2.93686         1.24376
| 64>    C       -9.19025         2.41641         1.14101
| 65>    C      -12.13518         4.82908         1.12873
| 66>    N      -12.25592         6.19251         0.85479
| 67>    C      -11.24297         7.08901         0.53811
| 68>    C      -13.60018         6.75710         0.91127
| 69>    C      -14.19606         6.98938        -0.48327
| 70>    C      -14.23815         5.69097        -1.28449
| 71>    C      -15.59752         7.57320        -0.33063
| 72>    C        5.44798        -0.57778         0.95329
| 73>    C        6.65261        -1.14851        -2.12120
| 74>    C        7.34236        -2.27065        -1.81029
| 75>    C        7.01797        -3.14704        -0.71019
| 76>    C        6.14493        -2.86727         0.26598
| 77>    C        3.48486        -3.97974        -0.82581
| 78>    C        3.11470        -5.17356        -1.41379
| 79>    C        3.21505        -5.35136        -2.78796
| 80>    C        3.69517        -4.30094        -3.55874
| 81>    C        4.06473        -3.10322        -2.97576
| 82>    C        0.28059         3.19814         1.86215
| 83>    C        0.64619         4.10726         2.83825
| 84>    C        1.35258         5.25702         2.51446
| 85>    C        1.69228         5.46935         1.18425
| 86>    C        1.32795         4.56560         0.20520
| 87>    C        0.26642         2.65352        -3.07921
| 88>    C       -0.18391         3.26902        -4.23162
| 89>    C       -1.07442         4.33683        -4.18370
| 90>    C       -1.50097         4.77391        -2.93711
| 91>    C       -1.05049         4.16526        -1.78029
| 92>    O       12.11967         7.69532        -0.04149
| 93>    O       16.41815         6.24414        -0.03054
| 94>    O       13.37147        -0.27715         1.60629
| 95>    O       -5.00508         4.73733         0.04946
| 96>    O      -13.10252         4.16385         1.43667
| 97>    O      -11.48719         8.26388         0.35578
| 98>    C        2.85851        -6.66618        -3.41911
| 99>    C        8.65399        -2.54454        -2.49163
|100>    C        4.08526        -7.57843        -3.48136
|101>    C        9.81551        -2.03776        -1.63217
|102>    C        1.78385         6.22476         3.57859
|103>    C        3.19397         5.88905         4.06774
|104>    C       -1.51990         4.96653        -5.47792
|105>    C       -2.70463         5.91767        -5.36479
|106>    C        8.51030         1.29299         0.24938
|107>    C        9.20335         0.48986         1.12431
|108>    S        8.12987        -0.68209         1.86473
|109>    C       -4.15856         0.35498         0.60448
|110>    C       -4.66728         1.64867         0.51605
|111>    S       -3.41431         2.82251         0.13154
|112>    H        1.53708        -1.95921        -0.23279
|113>    H        3.05206         2.71472        -1.24709
|114>    H       10.92901        -0.57919         1.73785
|115>    H       -6.62885         1.06372         0.94992
|116>    H        9.61532         3.56384         0.99590
|117>    H       10.35552         5.84479         0.49496
|118>    H       16.71476         3.73773         0.51857
|119>    H       15.91264         1.45046         1.06834
|120>    H       14.03861         8.72554        -1.01787
|121>    H       15.71742         8.24584        -0.63172
|122>    H       13.60824         9.24448         1.33752
|123>    H       16.52000         8.43120         1.78147
|124>    H       15.10002         7.62474         2.44801
|125>    H       15.51317         9.25217         2.97986
|126>    H       16.17257        10.54560         0.30918
|127>    H       15.07971        11.23455         1.51123
|128>    H       14.53048        11.00858        -0.14936
|129>    H       -6.64224         7.36307        -0.21677
|130>    H       -8.91753         8.34472        -0.05894
|131>    H      -11.30699         2.27900         1.50158
|132>    H       -9.03200         1.36387         1.32259
|133>    H      -13.54069         7.70848         1.44522
|134>    H      -14.22100         6.05499         1.47011
|135>    H      -13.56620         7.71473        -1.00819
|136>    H      -14.79079         4.92799        -0.74066
|137>    H      -13.23445         5.31461        -1.47477
|138>    H      -14.72392         5.85614        -2.24347
|139>    H      -16.24532         6.87121         0.19019
|140>    H      -16.02855         7.77960        -1.30715
|141>    H      -15.56716         8.50190         0.23410
|142>    H        4.67547         0.18363         0.88949
|143>    H        7.10094        -0.45808        -2.82757
|144>    H        7.62944        -4.03406        -0.61783
|145>    H        6.08158        -3.50902         1.13461
|146>    H        3.39975        -3.85469         0.24450
|147>    H        2.73883        -5.97869        -0.79849
|148>    H        3.77658        -4.42014        -4.62973
|149>    H        4.43006        -2.29188        -3.58857
|150>    H       -0.26889         2.31047         2.14045
|151>    H        0.37335         3.92049         3.86722
|152>    H        2.24468         6.35707         0.91074
|153>    H        1.58958         4.75646        -0.82541
|154>    H        0.94943         1.81945        -3.15060
|155>    H        0.15985         2.90907        -5.19154
|156>    H       -2.19664         5.59242        -2.84960
|157>    H       -1.39758         4.52372        -0.82234
|158>    H        2.48132        -6.50133        -4.43032
|159>    H        2.07507        -7.15606        -2.83756
|160>    H        8.68327        -2.04947        -3.46366
|161>    H        8.76622        -3.61912        -2.65143
|162>    H        4.87335        -7.11253        -4.06872
|163>    H        3.82823        -8.53131        -3.93791
|164>    H        4.46938        -7.76449        -2.48084
|165>    H        9.73640        -0.96186        -1.48810
|166>    H       10.76704        -2.25336        -2.11138
|167>    H        9.80473        -2.51361        -0.65406
|168>    H        1.09069         6.18273         4.42092
|169>    H        1.77503         7.24097         3.17927
|170>    H        3.22116         4.88341         4.48140
|171>    H        3.50716         6.59033         4.83774
|172>    H        3.90207         5.93839         3.24378
|173>    H       -1.77143         4.16472        -6.17827
|174>    H       -0.66878         5.50596        -5.90688
|175>    H       -3.55382         5.42024        -4.90160
|176>    H       -3.00277         6.25320        -6.35585
|177>    H       -2.44763         6.79480        -4.77594
|178>    H        8.98019         2.01357        -0.39437
|179>    H       -4.76974        -0.50066         0.82898
|180> *
|181> 
|182>                          ****END OF INPUT****
================================================================================

                       ****************************
                       * Single Point Calculation *
                       ****************************

---------------------------------
CARTESIAN COORDINATES (ANGSTROEM)
---------------------------------
  C      3.582490    0.632330   -1.124760
  C      3.161290   -0.682510   -0.829100
  C      1.867970   -0.958080   -0.462870
  C      0.987650    0.121780   -0.408690
  C      1.406180    1.441270   -0.692310
  C      2.713270    1.712330   -1.036010
  C      4.979780    0.575740   -1.504100
  C      5.379260   -0.732710   -1.642400
  C      4.326190   -1.629150   -0.966990
  S      6.149800    1.829220   -1.060140
  C      7.136340    1.013940    0.187580
  C      6.761340   -0.012170    1.056510
  C     -0.405780    0.181520   -0.098580
  C     -0.864120    1.485000   -0.160940
  C      0.252170    2.418310   -0.546480
  S     -1.627030   -0.982750    0.294590
  C     -2.797770    0.307970    0.359980
  C     -2.233850    1.570710    0.089440
  C      3.969000   -2.934850   -1.602330
  C      5.229580   -1.731550    0.261540
  C      0.609420    3.422750    0.533400
  C     -0.157770    3.103630   -1.837130
  C     10.594050    0.391070    1.382690
  C     11.582650    1.303520    1.211390
  C     -6.032520    1.936970    0.703650
  C     -6.713000    3.115970    0.611950
  C     11.597870    2.727570    0.918770
  C     12.961140    3.089640    0.786360
  C     13.848560    2.022540    0.998700
  C     13.006930    0.841350    1.323260
  C     -8.146670    3.258230    0.812050
  C     -8.451250    4.620000    0.593890
  C     -7.323630    5.388960    0.270660
  C     -6.165270    4.451960    0.276120
  C     10.666260    3.744920    0.836280
  C     11.089850    5.055780    0.567580
  C     12.422510    5.390020    0.389750
  C     13.395430    4.382530    0.518470
  C     14.780680    4.600100    0.413970
  C     15.655590    3.542170    0.600360
  C     15.203920    2.247940    0.905610
  C     12.876080    6.757450    0.105010
  N     14.254490    6.935820    0.003760
  C     15.245830    5.967590    0.116390
  C     14.695280    8.302550   -0.253990
  C     14.648640    9.180830    1.003090
  C     15.498230    8.584050    2.121790
  C     15.138130   10.580860    0.644490
  C     -7.484230    6.736170    0.034200
  C     -8.772790    7.290010    0.124310
  C     -9.883710    6.525970    0.444230
  C     -9.730470    5.150150    0.688700
  C    -10.779320    4.275200    1.025490
  C    -10.489780    2.936860    1.243760
  C     -9.190250    2.416410    1.141010
  C    -12.135180    4.829080    1.128730
  N    -12.255920    6.192510    0.854790
  C    -11.242970    7.089010    0.538110
  C    -13.600180    6.757100    0.911270
  C    -14.196060    6.989380   -0.483270
  C    -14.238150    5.690970   -1.284490
  C    -15.597520    7.573200   -0.330630
  C      5.447980   -0.577780    0.953290
  C      6.652610   -1.148510   -2.121200
  C      7.342360   -2.270650   -1.810290
  C      7.017970   -3.147040   -0.710190
  C      6.144930   -2.867270    0.265980
  C      3.484860   -3.979740   -0.825810
  C      3.114700   -5.173560   -1.413790
  C      3.215050   -5.351360   -2.787960
  C      3.695170   -4.300940   -3.558740
  C      4.064730   -3.103220   -2.975760
  C      0.280590    3.198140    1.862150
  C      0.646190    4.107260    2.838250
  C      1.352580    5.257020    2.514460
  C      1.692280    5.469350    1.184250
  C      1.327950    4.565600    0.205200
  C      0.266420    2.653520   -3.079210
  C     -0.183910    3.269020   -4.231620
  C     -1.074420    4.336830   -4.183700
  C     -1.500970    4.773910   -2.937110
  C     -1.050490    4.165260   -1.780290
  O     12.119670    7.695320   -0.041490
  O     16.418150    6.244140   -0.030540
  O     13.371470   -0.277150    1.606290
  O     -5.005080    4.737330    0.049460
  O    -13.102520    4.163850    1.436670
  O    -11.487190    8.263880    0.355780
  C      2.858510   -6.666180   -3.419110
  C      8.653990   -2.544540   -2.491630
  C      4.085260   -7.578430   -3.481360
  C      9.815510   -2.037760   -1.632170
  C      1.783850    6.224760    3.578590
  C      3.193970    5.889050    4.067740
  C     -1.519900    4.966530   -5.477920
  C     -2.704630    5.917670   -5.364790
  C      8.510300    1.292990    0.249380
  C      9.203350    0.489860    1.124310
  S      8.129870   -0.682090    1.864730
  C     -4.158560    0.354980    0.604480
  C     -4.667280    1.648670    0.516050
  S     -3.414310    2.822510    0.131540
  H      1.537080   -1.959210   -0.232790
  H      3.052060    2.714720   -1.247090
  H     10.929010   -0.579190    1.737850
  H     -6.628850    1.063720    0.949920
  H      9.615320    3.563840    0.995900
  H     10.355520    5.844790    0.494960
  H     16.714760    3.737730    0.518570
  H     15.912640    1.450460    1.068340
  H     14.038610    8.725540   -1.017870
  H     15.717420    8.245840   -0.631720
  H     13.608240    9.244480    1.337520
  H     16.520000    8.431200    1.781470
  H     15.100020    7.624740    2.448010
  H     15.513170    9.252170    2.979860
  H     16.172570   10.545600    0.309180
  H     15.079710   11.234550    1.511230
  H     14.530480   11.008580   -0.149360
  H     -6.642240    7.363070   -0.216770
  H     -8.917530    8.344720   -0.058940
  H    -11.306990    2.279000    1.501580
  H     -9.032000    1.363870    1.322590
  H    -13.540690    7.708480    1.445220
  H    -14.221000    6.054990    1.470110
  H    -13.566200    7.714730   -1.008190
  H    -14.790790    4.927990   -0.740660
  H    -13.234450    5.314610   -1.474770
  H    -14.723920    5.856140   -2.243470
  H    -16.245320    6.871210    0.190190
  H    -16.028550    7.779600   -1.307150
  H    -15.567160    8.501900    0.234100
  H      4.675470    0.183630    0.889490
  H      7.100940   -0.458080   -2.827570
  H      7.629440   -4.034060   -0.617830
  H      6.081580   -3.509020    1.134610
  H      3.399750   -3.854690    0.244500
  H      2.738830   -5.978690   -0.798490
  H      3.776580   -4.420140   -4.629730
  H      4.430060   -2.291880   -3.588570
  H     -0.268890    2.310470    2.140450
  H      0.373350    3.920490    3.867220
  H      2.244680    6.357070    0.910740
  H      1.589580    4.756460   -0.825410
  H      0.949430    1.819450   -3.150600
  H      0.159850    2.909070   -5.191540
  H     -2.196640    5.592420   -2.849600
  H     -1.397580    4.523720   -0.822340
  H      2.481320   -6.501330   -4.430320
  H      2.075070   -7.156060   -2.837560
  H      8.683270   -2.049470   -3.463660
  H      8.766220   -3.619120   -2.651430
  H      4.873350   -7.112530   -4.068720
  H      3.828230   -8.531310   -3.937910
  H      4.469380   -7.764490   -2.480840
  H      9.736400   -0.961860   -1.488100
  H     10.767040   -2.253360   -2.111380
  H      9.804730   -2.513610   -0.654060
  H      1.090690    6.182730    4.420920
  H      1.775030    7.240970    3.179270
  H      3.221160    4.883410    4.481400
  H      3.507160    6.590330    4.837740
  H      3.902070    5.938390    3.243780
  H     -1.771430    4.164720   -6.178270
  H     -0.668780    5.505960   -5.906880
  H     -3.553820    5.420240   -4.901600
  H     -3.002770    6.253200   -6.355850
  H     -2.447630    6.794800   -4.775940
  H      8.980190    2.013570   -0.394370
  H     -4.769740   -0.500660    0.828980

----------------------------
CARTESIAN COORDINATES (A.U.)
----------------------------
  NO LB      ZA    FRAG     MASS         X           Y           Z
   0 C     6.0000    0    12.011    6.769925    1.194931   -2.125488
   1 C     6.0000    0    12.011    5.973972   -1.289757   -1.566772
   2 C     6.0000    0    12.011    3.529952   -1.810509   -0.874698
   3 C     6.0000    0    12.011    1.866388    0.230131   -0.772312
   4 C     6.0000    0    12.011    2.657295    2.723606   -1.308276
   5 C     6.0000    0    12.011    5.127337    3.235835   -1.957775
   6 C     6.0000    0    12.011    9.410420    1.087991   -2.842337
   7 C     6.0000    0    12.011   10.165328   -1.384621   -3.103686
   8 C     6.0000    0    12.011    8.175314   -3.078647   -1.827346
   9 S    16.0000    0    32.060   11.621438    3.456725   -2.003374
  10 C     6.0000    0    12.011   13.485728    1.916069    0.354475
  11 C     6.0000    0    12.011   12.777081   -0.022998    1.996515
  12 C     6.0000    0    12.011   -0.766813    0.343023   -0.186289
  13 C     6.0000    0    12.011   -1.632950    2.806243   -0.304133
  14 C     6.0000    0    12.011    0.476532    4.569944   -1.032698
  15 S    16.0000    0    32.060   -3.074641   -1.857128    0.556694
  16 C     6.0000    0    12.011   -5.287019    0.581979    0.680264
  17 C     6.0000    0    12.011   -4.221365    2.968212    0.169017
  18 C     6.0000    0    12.011    7.500323   -5.546063   -3.027965
  19 C     6.0000    0    12.011    9.882474   -3.272155    0.494239
  20 C     6.0000    0    12.011    1.151637    6.468060    1.007980
  21 C     6.0000    0    12.011   -0.298142    5.865011   -3.471673
  22 C     6.0000    0    12.011   20.019853    0.739015    2.612905
  23 C     6.0000    0    12.011   21.888036    2.463296    2.289195
  24 C     6.0000    0    12.011  -11.399811    3.660343    1.329706
  25 C     6.0000    0    12.011  -12.685732    5.888330    1.156418
  26 C     6.0000    0    12.011   21.916798    5.154360    1.736224
  27 C     6.0000    0    12.011   24.493005    5.838573    1.486005
  28 C     6.0000    0    12.011   26.169986    3.822047    1.887269
  29 C     6.0000    0    12.011   24.579536    1.589921    2.500599
  30 C     6.0000    0    12.011  -15.394975    6.157162    1.534552
  31 C     6.0000    0    12.011  -15.970548    8.730535    1.122289
  32 C     6.0000    0    12.011  -13.839655   10.183659    0.511473
  33 C     6.0000    0    12.011  -11.650672    8.412985    0.521791
  34 C     6.0000    0    12.011   20.156310    7.076873    1.580340
  35 C     6.0000    0    12.011   20.956779    9.554040    1.072571
  36 C     6.0000    0    12.011   23.475142   10.185662    0.736521
  37 C     6.0000    0    12.011   25.313694    8.281781    0.979766
  38 C     6.0000    0    12.011   27.931437    8.692929    0.782290
  39 C     6.0000    0    12.011   29.584778    6.693731    1.134516
  40 C     6.0000    0    12.011   28.731245    4.247991    1.711355
  41 C     6.0000    0    12.011   24.332265   12.769730    0.198440
  42 N     7.0000    0    14.007   26.937082   13.106800    0.007105
  43 C     6.0000    0    12.011   28.810443   11.277111    0.219945
  44 C     6.0000    0    12.011   27.770055   15.689546   -0.479972
  45 C     6.0000    0    12.011   27.681918   17.349254    1.895565
  46 C     6.0000    0    12.011   29.287410   16.221504    4.009602
  47 C     6.0000    0    12.011   28.606920   19.994928    1.217910
  48 C     6.0000    0    12.011  -14.143145   12.729516    0.064629
  49 C     6.0000    0    12.011  -16.578171   13.776122    0.234912
  50 C     6.0000    0    12.011  -18.677505   12.332296    0.839473
  51 C     6.0000    0    12.011  -18.387923    9.732373    1.301454
  52 C     6.0000    0    12.011  -20.369963    8.078957    1.937895
  53 C     6.0000    0    12.011  -19.822811    5.549861    2.350366
  54 C     6.0000    0    12.011  -17.367056    4.566353    2.156196
  55 C     6.0000    0    12.011  -22.932167    9.125639    2.132991
  56 N     7.0000    0    14.007  -23.160332   11.702148    1.615319
  57 C     6.0000    0    12.011  -21.246134   13.396287    1.016881
  58 C     6.0000    0    12.011  -25.700616   12.769068    1.722051
  59 C     6.0000    0    12.011  -26.826666   13.208014   -0.913248
  60 C     6.0000    0    12.011  -26.906204   10.754375   -2.427334
  61 C     6.0000    0    12.011  -29.475041   14.311274   -0.624800
  62 C     6.0000    0    12.011   10.295190   -1.091846    1.801457
  63 C     6.0000    0    12.011   12.571611   -2.170369   -4.008487
  64 C     6.0000    0    12.011   13.875050   -4.290907   -3.420952
  65 C     6.0000    0    12.011   13.262041   -5.947044   -1.342065
  66 C     6.0000    0    12.011   11.612235   -5.418355    0.502629
  67 C     6.0000    0    12.011    6.585431   -7.520619   -1.560555
  68 C     6.0000    0    12.011    5.885930   -9.776612   -2.671676
  69 C     6.0000    0    12.011    6.075564  -10.112605   -5.268481
  70 C     6.0000    0    12.011    6.982859   -8.127599   -6.725044
  71 C     6.0000    0    12.011    7.681227   -5.864236   -5.623371
  72 C     6.0000    0    12.011    0.530238    6.043609    3.518954
  73 C     6.0000    0    12.011    1.221122    7.761597    5.363515
  74 C     6.0000    0    12.011    2.556006    9.934328    4.751641
  75 C     6.0000    0    12.011    3.197946   10.335574    2.237908
  76 C     6.0000    0    12.011    2.509462    8.627734    0.387772
  77 C     6.0000    0    12.011    0.503461    5.014426   -5.818864
  78 C     6.0000    0    12.011   -0.347540    6.177553   -7.996603
  79 C     6.0000    0    12.011   -2.030360    8.195421   -7.906047
  80 C     6.0000    0    12.011   -2.836422    9.021382   -5.550334
  81 C     6.0000    0    12.011   -1.985138    7.871201   -3.364261
  82 O     8.0000    0    15.999   22.902857   14.542047   -0.078405
  83 O     8.0000    0    15.999   31.025807   11.799715   -0.057712
  84 O     8.0000    0    15.999   25.268416   -0.523738    3.035448
  85 O     8.0000    0    15.999   -9.458230    8.952256    0.093466
  86 O     8.0000    0    15.999  -24.760174    7.868536    2.714913
  87 O     8.0000    0    15.999  -21.707643   15.616470    0.672327
  88 C     6.0000    0    12.011    5.401801  -12.597255   -6.461182
  89 C     6.0000    0    12.011   16.353671   -4.808484   -4.708498
  90 C     6.0000    0    12.011    7.720023  -14.321157   -6.578817
  91 C     6.0000    0    12.011   18.548626   -3.850808   -3.084354
  92 C     6.0000    0    12.011    3.370988   11.763092    6.762555
  93 C     6.0000    0    12.011    6.035729   11.128692    7.686915
  94 C     6.0000    0    12.011   -2.872195    9.385382  -10.351769
  95 C     6.0000    0    12.011   -5.111010   11.182776  -10.137984
  96 C     6.0000    0    12.011   16.082136    2.443397    0.471260
  97 C     6.0000    0    12.011   17.391811    0.925701    2.124638
  98 S    16.0000    0    32.060   15.363228   -1.288963    3.523829
  99 C     6.0000    0    12.011   -7.858540    0.670815    1.142302
 100 C     6.0000    0    12.011   -8.819881    3.115535    0.975193
 101 S    16.0000    0    32.060   -6.452111    5.333771    0.248575
 102 H     1.0000    0     1.008    2.904660   -3.702370   -0.439909
 103 H     1.0000    0     1.008    5.767558    5.130077   -2.356659
 104 H     1.0000    0     1.008   20.652836   -1.094510    3.284061
 105 H     1.0000    0     1.008  -12.526711    2.010139    1.795089
 106 H     1.0000    0     1.008   18.170321    6.734682    1.881978
 107 H     1.0000    0     1.008   19.569097   11.045052    0.935339
 108 H     1.0000    0     1.008   31.586319    7.063286    0.979955
 109 H     1.0000    0     1.008   30.070532    2.740972    2.018870
 110 H     1.0000    0     1.008   26.529128   16.488881   -1.923496
 111 H     1.0000    0     1.008   29.701619   15.582379   -1.193778
 112 H     1.0000    0     1.008   25.715847   17.469535    2.527546
 113 H     1.0000    0     1.008   31.218276   15.932659    3.366490
 114 H     1.0000    0     1.008   28.534902   14.408670    4.626068
 115 H     1.0000    0     1.008   29.315643   17.484067    5.631119
 116 H     1.0000    0     1.008   30.561728   19.928296    0.584266
 117 H     1.0000    0     1.008   28.496522   21.230223    2.855811
 118 H     1.0000    0     1.008   27.458628   20.803201   -0.282249
 119 H     1.0000    0     1.008  -12.552015   13.914186   -0.409636
 120 H     1.0000    0     1.008  -16.851689   15.769235   -0.111380
 121 H     1.0000    0     1.008  -21.367114    4.306686    2.837575
 122 H     1.0000    0     1.008  -17.068006    2.577341    2.499333
 123 H     1.0000    0     1.008  -25.588196   14.566916    2.731070
 124 H     1.0000    0     1.008  -26.873795   11.442273    2.778105
 125 H     1.0000    0     1.008  -25.636403   14.578727   -1.905203
 126 H     1.0000    0     1.008  -27.950542    9.312551   -1.399645
 127 H     1.0000    0     1.008  -25.009486   10.043157   -2.786911
 128 H     1.0000    0     1.008  -27.824176   11.066501   -4.239544
 129 H     1.0000    0     1.008  -30.699206   12.984705    0.359407
 130 H     1.0000    0     1.008  -30.289570   14.701313   -2.470156
 131 H     1.0000    0     1.008  -29.417669   16.066263    0.442385
 132 H     1.0000    0     1.008    8.835358    0.347010    1.680892
 133 H     1.0000    0     1.008   13.418832   -0.865646   -5.343333
 134 H     1.0000    0     1.008   14.417552   -7.623269   -1.167529
 135 H     1.0000    0     1.008   11.492521   -6.631087    2.144102
 136 H     1.0000    0     1.008    6.424596   -7.284308    0.462038
 137 H     1.0000    0     1.008    5.175639  -11.298087   -1.508927
 138 H     1.0000    0     1.008    7.136702   -8.352854   -8.748922
 139 H     1.0000    0     1.008    8.371600   -4.331026   -6.781415
 140 H     1.0000    0     1.008   -0.508128    4.366156    4.044864
 141 H     1.0000    0     1.008    0.705529    7.408652    7.307987
 142 H     1.0000    0     1.008    4.241830   12.013121    1.721049
 143 H     1.0000    0     1.008    3.003871    8.988407   -1.559799
 144 H     1.0000    0     1.008    1.794163    3.438262   -5.953771
 145 H     1.0000    0     1.008    0.302073    5.497346   -9.810589
 146 H     1.0000    0     1.008   -4.151048   10.568142   -5.384964
 147 H     1.0000    0     1.008   -2.641043    8.548592   -1.553997
 148 H     1.0000    0     1.008    4.689015  -12.285733   -8.372091
 149 H     1.0000    0     1.008    3.921314  -13.522994   -5.362211
 150 H     1.0000    0     1.008   16.409002   -3.872937   -6.545369
 151 H     1.0000    0     1.008   16.565755   -6.839146   -5.010477
 152 H     1.0000    0     1.008    9.209297  -13.440734   -7.688767
 153 H     1.0000    0     1.008    7.234306  -16.121839   -7.441571
 154 H     1.0000    0     1.008    8.445904  -14.672760   -4.688108
 155 H     1.0000    0     1.008   18.399130   -1.817652   -2.812101
 156 H     1.0000    0     1.008   20.346757   -4.258233   -3.989930
 157 H     1.0000    0     1.008   18.528255   -4.750035   -1.235994
 158 H     1.0000    0     1.008    2.061105   11.683666    8.354328
 159 H     1.0000    0     1.008    3.354321   13.683450    6.007950
 160 H     1.0000    0     1.008    6.087110    9.228307    8.468619
 161 H     1.0000    0     1.008    6.627572   12.453919    9.142004
 162 H     1.0000    0     1.008    7.373844   11.221931    6.129856
 163 H     1.0000    0     1.008   -3.347518    7.870180  -11.675238
 164 H     1.0000    0     1.008   -1.263811   10.404757  -11.162386
 165 H     1.0000    0     1.008   -6.715747   10.242769   -9.262682
 166 H     1.0000    0     1.008   -5.674413   11.816835  -12.010816
 167 H     1.0000    0     1.008   -4.625350   12.840311   -9.025219
 168 H     1.0000    0     1.008   16.970100    3.805096   -0.745251
 169 H     1.0000    0     1.008   -9.013502   -0.946110    1.566545

--------------------------------
INTERNAL COORDINATES (ANGSTROEM)
--------------------------------
 C      0   0   0     0.000000000000     0.00000000     0.00000000
 C      1   0   0     1.411959100399     0.00000000     0.00000000
 C      2   1   0     1.372129680533   121.60662630     0.00000000
 C      3   2   1     1.394272711631   116.74017769     0.55747308
 C      4   3   2     1.413032740385   121.89839839   358.88726108
 C      5   4   3     1.378436607792   120.96633000     0.00000000
 C      1   2   3     1.448972259155   107.82554972   181.38347660
 C      7   1   2     1.375046385727   110.09964304     8.75792355
 C      2   1   3     1.507359596015   109.58011290   180.77256672
 S      7   1   2     1.771231038685   122.93917470   217.11295975
 C     10   7   1     1.787385758140   102.51949774   107.72624066
 C     11  10   7     1.395910483161   128.42969314   332.18352969
 C      4   3   2     1.428770186069   131.03982870   178.49151682
 C     13   4   3     1.383121265689   110.65885863   179.56156684
 C     14  13   4     1.505261443006   110.49516359     0.45181178
 S     13   4   3     1.732500748716   135.12338759   358.00230982
 C     16  13   4     1.743807936127    89.10347434   182.27787256
 C     14  13   4     1.395061511690   112.03496070   177.81331773
 C      9   2   1     1.495357516349   113.74268243   220.02000157
 C      9   2   1     1.528360302088   115.17217290    84.06574577
 C     15  14  13     1.517454477241   113.74921575   244.23397786
 C     15  14  13     1.517725841020   107.30594516   120.15461443
 C     11  10   7     3.711066341781   144.64946609   135.17505331
 C     23  11  10     1.356185331177   121.70788211    31.11567507
 C     17  16  13     3.638043104665   158.73514377   176.28996320
 C     25  17  16     1.364369055791   145.49182530   186.85776778
 C     24  23  11     1.453883253669   133.79290252    18.25514778
 C     27  24  23     1.416732926807   106.21288062   183.32236778
 C     28  27  24     1.404031674144   113.56740115   358.63054750
 C     29  28  27     1.486233516847   106.20885254   359.08606815
 C     26  25  17     1.454540335123   124.53185282   176.96721692
 C     31  26  25     1.412366912279   106.59523957   181.52814426
 C     32  31  26     1.402606138194   113.00552383   359.71623935
 C     26  25  17     1.482450411279   127.56865468   358.19686470
 C     27  24  23     1.381919974058   136.55513791     8.42432078
 C     35  27  24     1.403560514442   119.70517108   177.45794122
 C     36  35  27     1.385396175143   122.69774987   359.36582156
 C     28  27  24     1.389941512546   123.80695420   180.76341165
 C     38  28  27     1.406120377990   117.77915813   179.94448701
 C     39  38  28     1.385433009965   119.60258638   358.93154332
 C     29  28  27     1.377124408941   119.17260952   180.35812535
 C     37  36  35     1.468559640396   123.13614967   179.84459269
 N     42  37  36     1.393585859393   116.02458661   177.63227334
 C     43  42  37     1.390291280775   127.60805064     1.28626484
 C     43  42  37     1.459000267135   115.56673314   181.12035855
 C     45  43  42     1.534210277113   112.47775867    77.43582949
 C     46  45  43     1.526250053726   111.08862275    57.34754987
 C     46  45  43     1.525869726091   108.84070043   179.40203362
 C     33  32  31     1.377200230794   118.82359199   180.04738137
 C     49  33  32     1.405434250081   118.77665606   359.93471128
 C     50  49  33     1.385730556205   122.17755265     0.07799320
 C     32  31  26     1.387966774458   123.81290723   179.76887967
 C     52  32  31     1.406787592034   117.77119630     0.17353758
 C     53  52  32     1.386589037927   118.83625788   359.94198527
 C     31  26  25     1.380555978727   135.90680314     1.42603797
 C     53  52  32     1.468263563397   118.07972414   179.95020745
 N     56  53  52     1.395909250668   115.75554922     1.06507889
 C     57  56  53     1.389268215608   127.73111184   357.84715915
 C     57  56  53     1.459104796134   116.74565959   178.19383773
 C     59  57  56     1.534199721158   112.40965617   256.81641287
 C     60  59  57     1.526300620651   111.04317098    57.70663106
 C     60  59  57     1.525855462880   108.88885333   179.78107943
 C     20   9   2     1.362865303469   116.48717029   322.65181306
 C      8   7   1     1.422518647505   124.89340781   174.08016707
 C     64   8   7     1.353372923551   128.40693709   150.34684257
 C     65  64   8     1.443436286852   124.33067921   347.02394681
 C     66  65  64     1.339170625201   125.11496330   348.70651515
 C     19   9   2     1.388945629641   120.17227132   273.65396094
 C     68  19   9     1.381283858734   120.37235859   177.99290065
 C     69  68  19     1.389253811008   120.81785052   359.81601087
 C     70  69  68     1.388524108253   118.50516947   359.94567123
 C     71  70  69     1.382379641198   120.91625207   359.93539585
 C     21  15  14     1.387139280498   121.24465712    21.02924288
 C     73  21  15     1.383088480322   120.45995414   178.22876501
 C     74  73  21     1.387722902384   120.96307634   359.69734770
 C     75  74  73     1.389222359092   118.32782638   359.58433623
 C     76  75  74     1.381317962636   120.94252993     0.51043823
 C     22  15  14     1.387551402507   122.15282935   263.14006006
 C     78  22  15     1.381913950650   120.15811396   176.85330454
 C     79  78  22     1.391230600080   121.44764153   359.39871019
 C     80  79  78     1.388153614338   117.98786836     0.12330782
 C     81  80  79     1.382613310112   120.83983001     0.10261984
 O     42  37  36     1.213762116314   123.39534356   357.46135495
 O     44  43  42     1.213425939149   121.35638635   177.83767374
 O     30  29  28     1.209974232164   127.96227752   181.90810781
 O     34  26  25     1.216080436731   127.31512130   358.36089146
 O     56  53  52     1.213715235177   123.16637007   181.38152085
 O     58  57  56     1.213757452789   120.80807602   181.93234135
 C     70  69  68     1.501406915696   120.71262508   177.80179427
 C     65  64   8     1.503200979444   119.44895050   177.01736088
 C     89  70  69     1.530029636151   110.41621997   270.26287363
 C     90  65  64     1.531217218555   110.31451312    94.94849053
 C     75  74  73     1.501628175482   120.98396294   181.76344318
 C     93  75  74     1.529838991855   110.48050935    92.33038509
 C     80  79  78     1.506645256456   118.71537033   179.69717202
 C     95  80  79     1.523499546899   115.28192841   167.52829478
 C     11  10   7     1.403372446680   118.71287793   144.19073339
 C     97  11  10     1.375077672097   113.91168591   187.96391504
 S     12  11  10     1.724785997073   111.34901808   168.88850361
 C     17  16  13     1.383379779453   133.80346337   178.90554937
 C    100  17  16     1.392928468874   112.30847247   181.38505871
 S     18  14  13     1.721122151853   136.26024616   181.81685078
 H      3   2   1     1.079206317346   122.15434069   180.14394566
 H      6   5   4     1.078943530774   121.95276040   180.55863612
 H     23  11  10     1.086158963872   122.85876479   221.60723086
 H     25  17  16     1.085736590661    98.60633360     4.43279412
 H     35  27  24     1.078305798185   121.63924212   358.88116895
 H     36  35  27     1.080301343793   119.33053948   179.41376217
 H     40  39  38     1.080173322481   118.08575858   180.25142742
 H     41  29  28     1.079230949195   121.00910570   179.66993144
 H     45  43  42     1.092542302797   107.73452626   316.72859228
 H     45  43  42     1.091176501122   107.18593294   198.44890199
 H     46  45  43     1.094681189845   108.20986039   297.56006024
 H     47  46  45     1.087747561615   110.39620353    55.86409110
 H     47  46  45     1.088699393129   111.13487573   295.70945396
 H     47  46  45     1.087608230430   110.22623258   175.93869583
 H     48  46  45     1.087999162362   110.34643371   297.68345430
 H     48  46  45     1.087180638211   110.30907666   177.88671688
 H     48  46  45     1.087373322921   110.68430822    57.93207708
 H     49  33  32     1.079322338785   121.14004478   179.96336909
 H     50  49  33     1.080251551353   119.78334660   180.06179887
 H     54  53  52     1.080316211162   117.86374245   179.99358321
 H     55  31  26     1.079747567953   121.57990336     0.15871001
 H     59  57  56     1.092595793054   107.79939802   136.06592143
 H     59  57  56     1.091181960124   107.15823738    17.77683796
 H     60  59  57     1.094713317951   108.22212243   297.94175061
 H     61  60  59     1.087796175255   110.38006230    56.06994276
 H     61  60  59     1.088699691375   111.12511228   295.94997012
 H     61  60  59     1.087610344839   110.24191689   176.15666630
 H     62  60  59     1.087974389634   110.35826300   297.83461951
 H     62  60  59     1.087188636484   110.29951067   178.02636461
 H     62  60  59     1.087347870969   110.67722289    58.08809682
 H     63  20   9     1.086548355206   116.71221613    26.60167689
 H     64   8   7     1.084735889837   113.77227540   330.09673484
 H     66  65  64     1.081309581434   115.85369437   176.90154285
 H     67  66  65     1.081838417648   119.96859212   189.97169901
 H     68  19   9     1.080946210826   119.60292126   357.92244425
 H     69  68  19     1.080789833316   119.65004578   180.04071760
 H     71  70  69     1.080673775105   119.52071563   180.22375156
 H     72  71  70     1.080404878090   120.12183387   180.43665840
 H     73  21  15     1.080433796815   120.02207952   357.94153907
 H     74  73  21     1.080788582194   119.44467216   179.42508034
 H     76  75  74     1.080740615735   119.52834069   180.16410916
 H     77  76  75     1.080293834380   119.78275584   179.11868421
 H     78  22  15     1.080403608426   120.18834078   356.92669783
 H     79  78  22     1.081286893706   119.23886765   179.71535414
 H     81  80  79     1.077763132186   120.68921415   180.49861487
 H     82  81  80     1.080107977102   119.42379139   180.02155005
 H     89  70  69     1.091784540420   109.82589092   149.74838218
 H     89  70  69     1.091769687480   109.84200122    30.79888812
 H     90  65  64     1.091235054514   110.15104117   334.27940727
 H     90  65  64     1.092178460372   109.58765924   215.28100575
 H     91  89  70     1.087722587657   110.33481716   300.14984427
 H     91  89  70     1.087420166173   110.48910495   179.97409666
 H     91  89  70     1.087753082459   110.34651372    59.79945111
 H     92  90  65     1.088381994982   110.26312069   298.79585596
 H     92  90  65     1.086984326014   110.54444536   178.76775924
 H     92  90  65     1.087772312113   110.63458466    58.47800506
 H     93  75  74     1.091676296069   109.85369021   331.69932839
 H     93  75  74     1.091886907560   109.77390793   212.79721103
 H     94  93  75     1.087734205263   110.33543952   300.11568586
 H     94  93  75     1.087557637323   110.50674317   179.94095114
 H     94  93  75     1.087543161075   110.36178260    59.75275792
 H     95  80  79     1.093918068001   108.15554741    45.20485882
 H     95  80  79     1.095169695024   108.21199203   289.86241507
 H     96  95  80     1.087706411262   110.68468650   304.32020106
 H     96  95  80     1.087964964555   109.75481338   184.75843599
 H     96  95  80     1.087267381742   111.10360431    65.35866462
 H     97  11  10     1.074451586159   122.35296720     3.03625122
 H    100  17  16     1.075202795755   124.68126176     0.82523408

---------------------------
INTERNAL COORDINATES (A.U.)
---------------------------
 C      0   0   0     0.000000000000     0.00000000     0.00000000
 C      1   0   0     2.668216012052     0.00000000     0.00000000
 C      2   1   0     2.592949316433   121.60662630     0.00000000
 C      3   2   1     2.634793580983   116.74017769     0.55747308
 C      4   3   2     2.670244897592   121.89839839   358.88726108
 C      5   4   3     2.604867681698   120.96633000     0.00000000
 C      1   2   3     2.738160745452   107.82554972   181.38347660
 C      7   1   2     2.598461090462   110.09964304     8.75792355
 C      2   1   3     2.848496821807   109.58011290   180.77256672
 S      7   1   2     3.347141583015   122.93917470   217.11295975
 C     10   7   1     3.377669578555   102.51949774   107.72624066
 C     11  10   7     2.637888520645   128.42969314   332.18352969
 C      4   3   2     2.699984359982   131.03982870   178.49151682
 C     13   4   3     2.613720402154   110.65885863   179.56156684
 C     14  13   4     2.844531887232   110.49516359     0.45181178
 S     13   4   3     3.273951941886   135.12338759   358.00230982
 C     16  13   4     3.295319429439    89.10347434   182.27787256
 C     14  13   4     2.636284197069   112.03496070   177.81331773
 C      9   2   1     2.825816178199   113.74268243   220.02000157
 C      9   2   1     2.888182404904   115.17217290    84.06574577
 C     15  14  13     2.867573382679   113.74921575   244.23397786
 C     15  14  13     2.868086185903   107.30594516   120.15461443
 C     11  10   7     7.012899050779   144.64946609   135.17505331
 C     23  11  10     2.562818862766   121.70788211    31.11567507
 C     17  16  13     6.874905131217   158.73514377   176.28996320
 C     25  17  16     2.578283861042   145.49182530   186.85776778
 C     24  23  11     2.747441180129   133.79290252    18.25514778
 C     27  24  23     2.677237236575   106.21288062   183.32236778
 C     28  27  24     2.653235347483   113.56740115   358.63054750
 C     29  28  27     2.808574317896   106.20885254   359.08606815
 C     26  25  17     2.748682884125   124.53185282   176.96721692
 C     31  26  25     2.668986664819   106.59523957   181.52814426
 C     32  31  26     2.650541474944   113.00552383   359.71623935
 C     26  25  17     2.801425284435   127.56865468   358.19686470
 C     27  24  23     2.611450289965   136.55513791     8.42432078
 C     35  27  24     2.652344984681   119.70517108   177.45794122
 C     36  35  27     2.618019358002   122.69774987   359.36582156
 C     28  27  24     2.626608800881   123.80695420   180.76341165
 C     38  28  27     2.657182425728   117.77915813   179.94448701
 C     39  38  28     2.618088965728   119.60258638   358.93154332
 C     29  28  27     2.602387985236   119.17260952   180.35812535
 C     37  36  35     2.775175531678   123.13614967   179.84459269
 N     42  37  36     2.633495618358   116.02458661   177.63227334
 C     43  42  37     2.627269767044   127.60805064     1.28626484
 C     43  42  37     2.757110934203   115.56673314   181.12035855
 C     45  43  42     2.899237255592   112.47775867    77.43582949
 C     46  45  43     2.884194613426   111.08862275    57.34754987
 C     46  45  43     2.883475898353   108.84070043   179.40203362
 C     33  32  31     2.602531267774   118.82359199   180.04738137
 C     49  33  32     2.655885831886   118.77665606   359.93471128
 C     50  49  33     2.618651246634   122.17755265     0.07799320
 C     32  31  26     2.622877086708   123.81290723   179.76887967
 C     52  32  31     2.658443277542   117.77119630     0.17353758
 C     53  52  32     2.620273541980   118.83625788   359.94198527
 C     31  26  25     2.608872712342   135.90680314     1.42603797
 C     53  52  32     2.774616027236   118.07972414   179.95020745
 N     56  53  52     2.637886191569   115.75554922     1.06507889
 C     57  56  53     2.625336454062   127.73111184   357.84715915
 C     57  56  53     2.757308465383   116.74565959   178.19383773
 C     59  57  56     2.899217307726   112.40965617   256.81641287
 C     60  59  57     2.884290171065   111.04317098    57.70663106
 C     60  59  57     2.883448944790   108.88885333   179.78107943
 C     20   9   2     2.575442180980   116.48717029   322.65181306
 C      8   7   1     2.688170664181   124.89340781   174.08016707
 C     64   8   7     2.557504182575   128.40693709   150.34684257
 C     65  64   8     2.727699273914   124.33067921   347.02394681
 C     66  65  64     2.530665728221   125.11496330   348.70651515
 C     19   9   2     2.624726854929   120.17227132   273.65396094
 C     68  19   9     2.610248206214   120.37235859   177.99290065
 C     69  68  19     2.625309233311   120.81785052   359.81601087
 C     70  69  68     2.623930294946   118.50516947   359.94567123
 C     71  70  69     2.612318934973   120.91625207   359.93539585
 C     21  15  14     2.621313349745   121.24465712    21.02924288
 C     73  21  15     2.613658446790   120.45995414   178.22876501
 C     74  73  21     2.622416235275   120.96307634   359.69734770
 C     75  74  73     2.625249797803   118.32782638   359.58433623
 C     76  75  74     2.610312653248   120.94252993     0.51043823
 C     22  15  14     2.622092147477   122.15282935   263.14006006
 C     78  22  15     2.611438907373   120.15811396   176.85330454
 C     79  78  22     2.629044823283   121.44764153   359.39871019
 C     80  79  78     2.623230162912   117.98786836     0.12330782
 C     81  80  79     2.612760505227   120.83983001     0.10261984
 O     42  37  36     2.293677991563   123.39534356   357.46135495
 O     44  43  42     2.293042708788   121.35638635   177.83767374
 O     30  29  28     2.286519927891   127.96227752   181.90810781
 O     34  26  25     2.298058982241   127.31512130   358.36089146
 O     56  53  52     2.293589399052   123.16637007   181.38152085
 O     58  57  56     2.293669178776   120.80807602   181.93234135
 C     70  69  68     2.837247886241   120.71262508   177.80179427
 C     65  64   8     2.840638175390   119.44895050   177.01736088
 C     89  70  69     2.891336989108   110.41621997   270.26287363
 C     90  65  64     2.893581194614   110.31451312    94.94849053
 C     75  74  73     2.837666006640   120.98396294   181.76344318
 C     93  75  74     2.890976723600   110.48050935    92.33038509
 C     80  79  78     2.847146915673   118.71537033   179.69717202
 C     95  80  79     2.878996908791   115.28192841   167.52829478
 C     11  10   7     2.651989588116   118.71287793   144.19073339
 C     97  11  10     2.598520213134   113.91168591   187.96391504
 S     12  11  10     3.259373174091   111.34901808   168.88850361
 C     17  16  13     2.614208922371   133.80346337   178.90554937
 C    100  17  16     2.632253330314   112.30847247   181.38505871
 S     18  14  13     3.252449510028   136.26024616   181.81685078
 H      3   2   1     2.039404381782   122.15434069   180.14394566
 H      6   5   4     2.038907787130   121.95276040   180.55863612
 H     23  11  10     2.052542979622   122.85876479   221.60723086
 H     25  17  16     2.051744809927    98.60633360     4.43279412
 H     35  27  24     2.037702647190   121.63924212   358.88116895
 H     36  35  27     2.041473681875   119.33053948   179.41376217
 H     40  39  38     2.041231756657   118.08575858   180.25142742
 H     41  29  28     2.039450929230   121.00910570   179.66993144
 H     45  43  42     2.064605742009   107.73452626   316.72859228
 H     45  43  42     2.062024750890   107.18593294   198.44890199
 H     46  45  43     2.068647652762   108.20986039   297.56006024
 H     47  46  45     2.055544994294   110.39620353    55.86409110
 H     47  46  45     2.057343695181   111.13487573   295.70945396
 H     47  46  45     2.055281696512   110.22623258   175.93869583
 H     48  46  45     2.056020450800   110.34643371   297.68345430
 H     48  46  45     2.054473664320   110.30907666   177.88671688
 H     48  46  45     2.054837785652   110.68430822    57.93207708
 H     49  33  32     2.039623630527   121.14004478   179.96336909
 H     50  49  33     2.041379587800   119.78334660   180.06179887
 H     54  53  52     2.041501777132   117.86374245   179.99358321
 H     55  31  26     2.040427197198   121.57990336     0.15871001
 H     59  57  56     2.064706823947   107.79939802   136.06592143
 H     59  57  56     2.062035066910   107.15823738    17.77683796
 H     60  59  57     2.068708366084   108.22212243   297.94175061
 H     61  60  59     2.055636860759   110.38006230    56.06994276
 H     61  60  59     2.057344258783   111.12511228   295.94997012
 H     61  60  59     2.055285692165   110.24191689   176.15666630
 H     62  60  59     2.055973637129   110.35826300   297.83461951
 H     62  60  59     2.054488778866   110.29951067   178.02636461
 H     62  60  59     2.054789688433   110.67722289    58.08809682
 H     63  20   9     2.053278822601   116.71221613    26.60167689
 H     64   8   7     2.049853759427   113.77227540   330.09673484
 H     66  65  64     2.043378974894   115.85369437   176.90154285
 H     67  66  65     2.044378330510   119.96859212   189.97169901
 H     68  19   9     2.042692303962   119.60292126   357.92244425
 H     69  68  19     2.042396793294   119.65004578   180.04071760
 H     71  70  69     2.042177475060   119.52071563   180.22375156
 H     72  71  70     2.041669333342   120.12183387   180.43665840
 H     73  21  15     2.041723981813   120.02207952   357.94153907
 H     74  73  21     2.042394429015   119.44467216   179.42508034
 H     76  75  74     2.042303785545   119.52834069   180.16410916
 H     77  76  75     2.041459491142   119.78275584   179.11868421
 H     78  22  15     2.041666934026   120.18834078   356.92669783
 H     79  78  22     2.043336101302   119.23886765   179.71535414
 H     81  80  79     2.036677157069   120.68921415   180.49861487
 H     82  81  80     2.041108271787   119.42379139   180.02155005
 H     89  70  69     2.063173778643   109.82589092   149.74838218
 H     89  70  69     2.063145710654   109.84200122    30.79888812
 H     90  65  64     2.062135400766   110.15104117   334.27940727
 H     90  65  64     2.063918179470   109.58765924   215.28100575
 H     91  89  70     2.055497800353   110.33481716   300.14984427
 H     91  89  70     2.054926306570   110.48910495   179.97409666
 H     91  89  70     2.055555427177   110.34651372    59.79945111
 H     92  90  65     2.056743899606   110.26312069   298.79585596
 H     92  90  65     2.054102688031   110.54444536   178.76775924
 H     92  90  65     2.055591765956   110.63458466    58.47800506
 H     93  75  74     2.062969226465   109.85369021   331.69932839
 H     93  75  74     2.063367224502   109.77390793   212.79721103
 H     94  93  75     2.055519754446   110.33543952   300.11568586
 H     94  93  75     2.055186089395   110.50674317   179.94095114
 H     94  93  75     2.055158733250   110.36178260    59.75275792
 H     95  80  79     2.067205561471   108.15554741    45.20485882
 H     95  80  79     2.069570793766   108.21199203   289.86241507
 H     96  95  80     2.055467231395   110.68468650   304.32020106
 H     96  95  80     2.055955826311   109.75481338   184.75843599
 H     96  95  80     2.054637585838   111.10360431    65.35866462
 H     97  11  10     2.030419241998   122.35296720     3.03625122
 H    100  17  16     2.031838822404   124.68126176     0.82523408

---------------------
BASIS SET INFORMATION
---------------------
There are 5 groups of distinct atoms

 Group   1 Type C   : 11s6p2d1f contracted to 5s3p2d1f pattern {62111/411/11/1}
 Group   2 Type S   : 14s9p3d1f contracted to 5s5p2d1f pattern {73211/51111/21/1}
 Group   3 Type N   : 11s6p2d1f contracted to 5s3p2d1f pattern {62111/411/11/1}
 Group   4 Type O   : 11s6p2d1f contracted to 5s3p2d1f pattern {62111/411/11/1}
 Group   5 Type H   : 5s1p contracted to 3s1p pattern {311/1}

Atom   0C    basis set group =>   1
Atom   1C    basis set group =>   1
Atom   2C    basis set group =>   1
Atom   3C    basis set group =>   1
Atom   4C    basis set group =>   1
Atom   5C    basis set group =>   1
Atom   6C    basis set group =>   1
Atom   7C    basis set group =>   1
Atom   8C    basis set group =>   1
Atom   9S    basis set group =>   2
Atom  10C    basis set group =>   1
Atom  11C    basis set group =>   1
Atom  12C    basis set group =>   1
Atom  13C    basis set group =>   1
Atom  14C    basis set group =>   1
Atom  15S    basis set group =>   2
Atom  16C    basis set group =>   1
Atom  17C    basis set group =>   1
Atom  18C    basis set group =>   1
Atom  19C    basis set group =>   1
Atom  20C    basis set group =>   1
Atom  21C    basis set group =>   1
Atom  22C    basis set group =>   1
Atom  23C    basis set group =>   1
Atom  24C    basis set group =>   1
Atom  25C    basis set group =>   1
Atom  26C    basis set group =>   1
Atom  27C    basis set group =>   1
Atom  28C    basis set group =>   1
Atom  29C    basis set group =>   1
Atom  30C    basis set group =>   1
Atom  31C    basis set group =>   1
Atom  32C    basis set group =>   1
Atom  33C    basis set group =>   1
Atom  34C    basis set group =>   1
Atom  35C    basis set group =>   1
Atom  36C    basis set group =>   1
Atom  37C    basis set group =>   1
Atom  38C    basis set group =>   1
Atom  39C    basis set group =>   1
Atom  40C    basis set group =>   1
Atom  41C    basis set group =>   1
Atom  42N    basis set group =>   3
Atom  43C    basis set group =>   1
Atom  44C    basis set group =>   1
Atom  45C    basis set group =>   1
Atom  46C    basis set group =>   1
Atom  47C    basis set group =>   1
Atom  48C    basis set group =>   1
Atom  49C    basis set group =>   1
Atom  50C    basis set group =>   1
Atom  51C    basis set group =>   1
Atom  52C    basis set group =>   1
Atom  53C    basis set group =>   1
Atom  54C    basis set group =>   1
Atom  55C    basis set group =>   1
Atom  56N    basis set group =>   3
Atom  57C    basis set group =>   1
Atom  58C    basis set group =>   1
Atom  59C    basis set group =>   1
Atom  60C    basis set group =>   1
Atom  61C    basis set group =>   1
Atom  62C    basis set group =>   1
Atom  63C    basis set group =>   1
Atom  64C    basis set group =>   1
Atom  65C    basis set group =>   1
Atom  66C    basis set group =>   1
Atom  67C    basis set group =>   1
Atom  68C    basis set group =>   1
Atom  69C    basis set group =>   1
Atom  70C    basis set group =>   1
Atom  71C    basis set group =>   1
Atom  72C    basis set group =>   1
Atom  73C    basis set group =>   1
Atom  74C    basis set group =>   1
Atom  75C    basis set group =>   1
Atom  76C    basis set group =>   1
Atom  77C    basis set group =>   1
Atom  78C    basis set group =>   1
Atom  79C    basis set group =>   1
Atom  80C    basis set group =>   1
Atom  81C    basis set group =>   1
Atom  82O    basis set group =>   4
Atom  83O    basis set group =>   4
Atom  84O    basis set group =>   4
Atom  85O    basis set group =>   4
Atom  86O    basis set group =>   4
Atom  87O    basis set group =>   4
Atom  88C    basis set group =>   1
Atom  89C    basis set group =>   1
Atom  90C    basis set group =>   1
Atom  91C    basis set group =>   1
Atom  92C    basis set group =>   1
Atom  93C    basis set group =>   1
Atom  94C    basis set group =>   1
Atom  95C    basis set group =>   1
Atom  96C    basis set group =>   1
Atom  97C    basis set group =>   1
Atom  98S    basis set group =>   2
Atom  99C    basis set group =>   1
Atom 100C    basis set group =>   1
Atom 101S    basis set group =>   2
Atom 102H    basis set group =>   5
Atom 103H    basis set group =>   5
Atom 104H    basis set group =>   5
Atom 105H    basis set group =>   5
Atom 106H    basis set group =>   5
Atom 107H    basis set group =>   5
Atom 108H    basis set group =>   5
Atom 109H    basis set group =>   5
Atom 110H    basis set group =>   5
Atom 111H    basis set group =>   5
Atom 112H    basis set group =>   5
Atom 113H    basis set group =>   5
Atom 114H    basis set group =>   5
Atom 115H    basis set group =>   5
Atom 116H    basis set group =>   5
Atom 117H    basis set group =>   5
Atom 118H    basis set group =>   5
Atom 119H    basis set group =>   5
Atom 120H    basis set group =>   5
Atom 121H    basis set group =>   5
Atom 122H    basis set group =>   5
Atom 123H    basis set group =>   5
Atom 124H    basis set group =>   5
Atom 125H    basis set group =>   5
Atom 126H    basis set group =>   5
Atom 127H    basis set group =>   5
Atom 128H    basis set group =>   5
Atom 129H    basis set group =>   5
Atom 130H    basis set group =>   5
Atom 131H    basis set group =>   5
Atom 132H    basis set group =>   5
Atom 133H    basis set group =>   5
Atom 134H    basis set group =>   5
Atom 135H    basis set group =>   5
Atom 136H    basis set group =>   5
Atom 137H    basis set group =>   5
Atom 138H    basis set group =>   5
Atom 139H    basis set group =>   5
Atom 140H    basis set group =>   5
Atom 141H    basis set group =>   5
Atom 142H    basis set group =>   5
Atom 143H    basis set group =>   5
Atom 144H    basis set group =>   5
Atom 145H    basis set group =>   5
Atom 146H    basis set group =>   5
Atom 147H    basis set group =>   5
Atom 148H    basis set group =>   5
Atom 149H    basis set group =>   5
Atom 150H    basis set group =>   5
Atom 151H    basis set group =>   5
Atom 152H    basis set group =>   5
Atom 153H    basis set group =>   5
Atom 154H    basis set group =>   5
Atom 155H    basis set group =>   5
Atom 156H    basis set group =>   5
Atom 157H    basis set group =>   5
Atom 158H    basis set group =>   5
Atom 159H    basis set group =>   5
Atom 160H    basis set group =>   5
Atom 161H    basis set group =>   5
Atom 162H    basis set group =>   5
Atom 163H    basis set group =>   5
Atom 164H    basis set group =>   5
Atom 165H    basis set group =>   5
Atom 166H    basis set group =>   5
Atom 167H    basis set group =>   5
Atom 168H    basis set group =>   5
Atom 169H    basis set group =>   5
---------------------------------
AUXILIARY/J BASIS SET INFORMATION
---------------------------------
There are 5 groups of distinct atoms

 Group   1 Type C   : 12s5p4d2f1g contracted to 6s4p3d1f1g pattern {711111/2111/211/2/1}
 Group   2 Type S   : 14s5p5d2f1g contracted to 8s4p3d1f1g pattern {71111111/2111/311/2/1}
 Group   3 Type N   : 12s5p4d2f1g contracted to 6s4p3d1f1g pattern {711111/2111/211/2/1}
 Group   4 Type O   : 12s5p4d2f1g contracted to 6s4p3d1f1g pattern {711111/2111/211/2/1}
 Group   5 Type H   : 5s2p1d contracted to 3s1p1d pattern {311/2/1}

Atom   0C    basis set group =>   1
Atom   1C    basis set group =>   1
Atom   2C    basis set group =>   1
Atom   3C    basis set group =>   1
Atom   4C    basis set group =>   1
Atom   5C    basis set group =>   1
Atom   6C    basis set group =>   1
Atom   7C    basis set group =>   1
Atom   8C    basis set group =>   1
Atom   9S    basis set group =>   2
Atom  10C    basis set group =>   1
Atom  11C    basis set group =>   1
Atom  12C    basis set group =>   1
Atom  13C    basis set group =>   1
Atom  14C    basis set group =>   1
Atom  15S    basis set group =>   2
Atom  16C    basis set group =>   1
Atom  17C    basis set group =>   1
Atom  18C    basis set group =>   1
Atom  19C    basis set group =>   1
Atom  20C    basis set group =>   1
Atom  21C    basis set group =>   1
Atom  22C    basis set group =>   1
Atom  23C    basis set group =>   1
Atom  24C    basis set group =>   1
Atom  25C    basis set group =>   1
Atom  26C    basis set group =>   1
Atom  27C    basis set group =>   1
Atom  28C    basis set group =>   1
Atom  29C    basis set group =>   1
Atom  30C    basis set group =>   1
Atom  31C    basis set group =>   1
Atom  32C    basis set group =>   1
Atom  33C    basis set group =>   1
Atom  34C    basis set group =>   1
Atom  35C    basis set group =>   1
Atom  36C    basis set group =>   1
Atom  37C    basis set group =>   1
Atom  38C    basis set group =>   1
Atom  39C    basis set group =>   1
Atom  40C    basis set group =>   1
Atom  41C    basis set group =>   1
Atom  42N    basis set group =>   3
Atom  43C    basis set group =>   1
Atom  44C    basis set group =>   1
Atom  45C    basis set group =>   1
Atom  46C    basis set group =>   1
Atom  47C    basis set group =>   1
Atom  48C    basis set group =>   1
Atom  49C    basis set group =>   1
Atom  50C    basis set group =>   1
Atom  51C    basis set group =>   1
Atom  52C    basis set group =>   1
Atom  53C    basis set group =>   1
Atom  54C    basis set group =>   1
Atom  55C    basis set group =>   1
Atom  56N    basis set group =>   3
Atom  57C    basis set group =>   1
Atom  58C    basis set group =>   1
Atom  59C    basis set group =>   1
Atom  60C    basis set group =>   1
Atom  61C    basis set group =>   1
Atom  62C    basis set group =>   1
Atom  63C    basis set group =>   1
Atom  64C    basis set group =>   1
Atom  65C    basis set group =>   1
Atom  66C    basis set group =>   1
Atom  67C    basis set group =>   1
Atom  68C    basis set group =>   1
Atom  69C    basis set group =>   1
Atom  70C    basis set group =>   1
Atom  71C    basis set group =>   1
Atom  72C    basis set group =>   1
Atom  73C    basis set group =>   1
Atom  74C    basis set group =>   1
Atom  75C    basis set group =>   1
Atom  76C    basis set group =>   1
Atom  77C    basis set group =>   1
Atom  78C    basis set group =>   1
Atom  79C    basis set group =>   1
Atom  80C    basis set group =>   1
Atom  81C    basis set group =>   1
Atom  82O    basis set group =>   4
Atom  83O    basis set group =>   4
Atom  84O    basis set group =>   4
Atom  85O    basis set group =>   4
Atom  86O    basis set group =>   4
Atom  87O    basis set group =>   4
Atom  88C    basis set group =>   1
Atom  89C    basis set group =>   1
Atom  90C    basis set group =>   1
Atom  91C    basis set group =>   1
Atom  92C    basis set group =>   1
Atom  93C    basis set group =>   1
Atom  94C    basis set group =>   1
Atom  95C    basis set group =>   1
Atom  96C    basis set group =>   1
Atom  97C    basis set group =>   1
Atom  98S    basis set group =>   2
Atom  99C    basis set group =>   1
Atom 100C    basis set group =>   1
Atom 101S    basis set group =>   2
Atom 102H    basis set group =>   5
Atom 103H    basis set group =>   5
Atom 104H    basis set group =>   5
Atom 105H    basis set group =>   5
Atom 106H    basis set group =>   5
Atom 107H    basis set group =>   5
Atom 108H    basis set group =>   5
Atom 109H    basis set group =>   5
Atom 110H    basis set group =>   5
Atom 111H    basis set group =>   5
Atom 112H    basis set group =>   5
Atom 113H    basis set group =>   5
Atom 114H    basis set group =>   5
Atom 115H    basis set group =>   5
Atom 116H    basis set group =>   5
Atom 117H    basis set group =>   5
Atom 118H    basis set group =>   5
Atom 119H    basis set group =>   5
Atom 120H    basis set group =>   5
Atom 121H    basis set group =>   5
Atom 122H    basis set group =>   5
Atom 123H    basis set group =>   5
Atom 124H    basis set group =>   5
Atom 125H    basis set group =>   5
Atom 126H    basis set group =>   5
Atom 127H    basis set group =>   5
Atom 128H    basis set group =>   5
Atom 129H    basis set group =>   5
Atom 130H    basis set group =>   5
Atom 131H    basis set group =>   5
Atom 132H    basis set group =>   5
Atom 133H    basis set group =>   5
Atom 134H    basis set group =>   5
Atom 135H    basis set group =>   5
Atom 136H    basis set group =>   5
Atom 137H    basis set group =>   5
Atom 138H    basis set group =>   5
Atom 139H    basis set group =>   5
Atom 140H    basis set group =>   5
Atom 141H    basis set group =>   5
Atom 142H    basis set group =>   5
Atom 143H    basis set group =>   5
Atom 144H    basis set group =>   5
Atom 145H    basis set group =>   5
Atom 146H    basis set group =>   5
Atom 147H    basis set group =>   5
Atom 148H    basis set group =>   5
Atom 149H    basis set group =>   5
Atom 150H    basis set group =>   5
Atom 151H    basis set group =>   5
Atom 152H    basis set group =>   5
Atom 153H    basis set group =>   5
Atom 154H    basis set group =>   5
Atom 155H    basis set group =>   5
Atom 156H    basis set group =>   5
Atom 157H    basis set group =>   5
Atom 158H    basis set group =>   5
Atom 159H    basis set group =>   5
Atom 160H    basis set group =>   5
Atom 161H    basis set group =>   5
Atom 162H    basis set group =>   5
Atom 163H    basis set group =>   5
Atom 164H    basis set group =>   5
Atom 165H    basis set group =>   5
Atom 166H    basis set group =>   5
Atom 167H    basis set group =>   5
Atom 168H    basis set group =>   5
Atom 169H    basis set group =>   5
------------------------------------------------------------------------------
                           ORCA GTO INTEGRAL CALCULATION
                           -- RI-GTO INTEGRALS CHOSEN --
------------------------------------------------------------------------------

                         BASIS SET STATISTICS AND STARTUP INFO

Gaussian basis set:
 # of primitive gaussian shells          ... 2476
 # of primitive gaussian functions       ... 5304
 # of contracted shells                  ... 1402
 # of contracted basis functions         ... 3594
 Highest angular momentum                ...    3
 Maximum contraction depth               ...    7
Auxiliary gaussian basis set:
 # of primitive gaussian shells          ... 3004
 # of primitive gaussian functions       ... 8256
 # of contracted shells                  ... 1878
 # of contracted aux-basis functions     ... 5754
 Highest angular momentum                ...    4
 Maximum contraction depth               ...    7
Ratio of auxiliary to basis functions    ...  1.60
Integral package used                  ... LIBINT
 One Electron integrals                  ... done
 Ordering auxiliary basis shells         ... done
 Integral threshhold             Thresh  ...  2.500e-11
 Primitive cut-off               TCut    ...  2.500e-12
 Pre-screening matrix                    ... done
 Shell pair data                         ... 
 Ordering of the shell pairs             ... done (   0.062 sec) 256414 of 983503 pairs
 Determination of significant pairs      ... done (   0.002 sec)
 Creation of shell pair data             ... done (   0.031 sec)
 Storage of shell pair data              ... done (   0.044 sec)
 Shell pair data done in (   0.139 sec)
 Computing two index integrals           ... done
 Cholesky decomposition of the V-matrix  ... done


Timings:
 Total evaluation time                   ...  15.216 sec (  0.254 min)
 One electron matrix time                ...   5.793 sec (  0.097 min) = 38.1%
 Schwartz matrix evaluation time         ...   7.101 sec (  0.118 min) = 46.7%
 Two index repulsion integral time       ...   0.820 sec (  0.014 min) =  5.4%
 Cholesky decomposition of V             ...   1.343 sec (  0.022 min) =  8.8%
 Three index repulsion integral time     ...   0.000 sec (  0.000 min) =  0.0%

-------------------------------------------------------------------------------
                                 ORCA SCF
-------------------------------------------------------------------------------

------------
SCF SETTINGS
------------
Hamiltonian:
 Density Functional     Method          .... DFT(GTOs)
 Exchange Functional    Exchange        .... B88
   X-Alpha parameter    XAlpha          ....  0.666667
   Becke's b parameter  XBeta           ....  0.004200
 Correlation Functional Correlation     .... LYP
 LDA part of GGA corr.  LDAOpt          .... VWN-5
 Gradients option       PostSCFGGA      .... off
 Hybrid DFT is turned on
   Fraction HF Exchange ScalHFX         ....  0.200000
   Scaling of DF-GGA-X  ScalDFX         ....  0.720000
   Scaling of DF-GGA-C  ScalDFC         ....  0.810000
   Scaling of DF-LDA-C  ScalLDAC        ....  1.000000
   Perturbative correction              ....  0.000000
   Density functional embedding theory  .... OFF
   NL short-range parameter             ....  4.800000
 RI-approximation to the Coulomb term is turned on
   Number of auxiliary basis functions  .... 5754
   RIJ-COSX (HFX calculated with COS-X)).... on


General Settings:
 Integral files         IntName         .... NIDT
 Hartree-Fock type      HFTyp           .... RHF
 Total Charge           Charge          ....    0
 Multiplicity           Mult            ....    1
 Number of Electrons    NEL             ....  734
 Basis Dimension        Dim             .... 3594
 Nuclear Repulsion      ENuc            ....  18576.4255069083 Eh

Convergence Acceleration:
 DIIS                   CNVDIIS         .... on
   Start iteration      DIISMaxIt       ....    12
   Startup error        DIISStart       ....  0.200000
   # of expansion vecs  DIISMaxEq       ....     5
   Bias factor          DIISBfac        ....   1.050
   Max. coefficient     DIISMaxC        ....  10.000
 Newton-Raphson         CNVNR           .... off
 SOSCF                  CNVSOSCF        .... on
   Start iteration      SOSCFMaxIt      ....   150
   Startup grad/error   SOSCFStart      ....  0.003300
 Level Shifting         CNVShift        .... on
   Level shift para.    LevelShift      ....    0.2500
   Turn off err/grad.   ShiftErr        ....    0.0010
 Zerner damping         CNVZerner       .... off
 Static damping         CNVDamp         .... on
   Fraction old density DampFac         ....    0.7000
   Max. Damping (<1)    DampMax         ....    0.9800
   Min. Damping (>=0)   DampMin         ....    0.0000
   Turn off err/grad.   DampErr         ....    0.1000
 Fernandez-Rico         CNVRico         .... off

SCF Procedure:
 Maximum # iterations   MaxIter         ....   125
 SCF integral mode      SCFMode         .... Direct
   Integral package                     .... LIBINT
 Reset frequency        DirectResetFreq ....    20
 Integral Threshold     Thresh          ....  2.500e-11 Eh
 Primitive CutOff       TCut            ....  2.500e-12 Eh

Convergence Tolerance:
 Convergence Check Mode ConvCheckMode   .... Total+1el-Energy
 Convergence forced     ConvForced      .... 1
 Energy Change          TolE            ....  1.000e-08 Eh
 1-El. energy change                    ....  1.000e-05 Eh
 Orbital Gradient       TolG            ....  1.000e-05
 Orbital Rotation angle TolX            ....  1.000e-05
 DIIS Error             TolErr          ....  5.000e-07


Diagonalization of the overlap matrix:
Smallest eigenvalue                        ... 2.116e-06
Time for diagonalization                   ...   10.036 sec
Threshold for overlap eigenvalues          ... 1.000e-08
Number of eigenvalues below threshold      ... 0
Time for construction of square roots      ...    2.879 sec
Total time needed                          ...   12.948 sec

-------------------
DFT GRID GENERATION
-------------------

General Integration Accuracy     IntAcc      ...  4.670
Radial Grid Type                 RadialGrid  ... Gauss-Chebyshev
Angular Grid (max. acc.)         AngularGrid ... Lebedev-302
Angular grid pruning method      GridPruning ... 3 (G Style)
Weight generation scheme         WeightScheme... Becke
Basis function cutoff            BFCut       ...    1.0000e-11
Integration weight cutoff        WCut        ...    1.0000e-14
Grids for H and He will be reduced by one unit

# of grid points (after initial pruning)     ... 866952 (   3.1 sec)
# of grid points (after weights+screening)   ... 723259 (  53.4 sec)
nearest neighbour list constructed           ...    0.0 sec
Grid point re-assignment to atoms done       ...    0.1 sec
Grid point division into batches done        ...    2.3 sec
Reduced shell lists constructed in   29.1 sec

Total number of grid points                  ...   723259
Total number of batches                      ...    11393
Average number of points per batch           ...       63
Average number of grid points per atom       ...     4254
Average number of shells per batch           ...   190.05 (13.56%)
Average number of basis functions per batch  ...   462.77 (12.88%)
Average number of large shells per batch     ...   110.17 (57.97%)
Average number of large basis fcns per batch ...   274.20 (59.25%)
Maximum spatial batch extension              ...  19.97, 22.32, 22.75 au
Average spatial batch extension              ...   1.95,  1.99,  2.10 au

Time for grid setup =   85.649 sec

------------------------------
INITIAL GUESS: MODEL POTENTIAL
------------------------------
[...]
   350a -> 367a  :     0.028478 (c=  0.16875555)
   351a -> 367a  :     0.016527 (c=  0.12855760)
   354a -> 367a  :     0.108267 (c= -0.32903923)
   355a -> 367a  :     0.029531 (c= -0.17184596)
   358a -> 367a  :     0.010702 (c= -0.10344886)
   358a -> 368a  :     0.054885 (c= -0.23427577)
   358a -> 370a  :     0.010538 (c=  0.10265492)
   358a -> 371a  :     0.018334 (c=  0.13540246)
   359a -> 369a  :     0.029131 (c=  0.17067696)
   359a -> 370a  :     0.063213 (c=  0.25142191)
   360a -> 368a  :     0.013547 (c= -0.11639090)
   360a -> 369a  :     0.135304 (c=  0.36783735)
   360a -> 370a  :     0.264853 (c=  0.51463825)
   362a -> 371a  :     0.011601 (c=  0.10770839)
   366a -> 373a  :     0.047471 (c= -0.21787941)

STATE 47:  E=   0.129716 au      3.530 eV    28469.3 cm**-1
   345a -> 367a  :     0.012837 (c=  0.11329883)
   346a -> 367a  :     0.025034 (c= -0.15822180)
   347a -> 367a  :     0.020924 (c= -0.14465249)
   347a -> 368a  :     0.148980 (c= -0.38597950)
   352a -> 367a  :     0.204112 (c=  0.45178806)
   352a -> 368a  :     0.020039 (c=  0.14155785)
   352a -> 370a  :     0.033547 (c= -0.18315839)
   352a -> 371a  :     0.014931 (c=  0.12219228)
   353a -> 367a  :     0.028462 (c= -0.16870703)
   354a -> 367a  :     0.021547 (c= -0.14679065)
   354a -> 368a  :     0.012479 (c=  0.11170841)
   355a -> 367a  :     0.073163 (c= -0.27048725)
   357a -> 368a  :     0.019884 (c=  0.14101090)
   358a -> 368a  :     0.017702 (c=  0.13304786)
   358a -> 370a  :     0.045399 (c=  0.21307095)
   359a -> 370a  :     0.078064 (c=  0.27939958)
   362a -> 371a  :     0.031507 (c=  0.17750177)
   366a -> 372a  :     0.031897 (c= -0.17859639)
   366a -> 373a  :     0.016764 (c=  0.12947512)

STATE 48:  E=   0.130003 au      3.538 eV    28532.3 cm**-1
   347a -> 368a  :     0.011705 (c= -0.10819057)
   350a -> 367a  :     0.065167 (c= -0.25527872)
   351a -> 367a  :     0.023839 (c= -0.15439902)
   352a -> 367a  :     0.016037 (c=  0.12663748)
   353a -> 367a  :     0.012444 (c=  0.11155130)
   354a -> 367a  :     0.012414 (c= -0.11142034)
   355a -> 367a  :     0.023476 (c=  0.15321961)
   358a -> 368a  :     0.010310 (c=  0.10153868)
   358a -> 369a  :     0.035896 (c= -0.18946276)
   358a -> 371a  :     0.010066 (c=  0.10032761)
   359a -> 369a  :     0.025700 (c=  0.16031270)
   359a -> 370a  :     0.042342 (c= -0.20577278)
   360a -> 369a  :     0.099958 (c=  0.31616135)
   360a -> 370a  :     0.099549 (c=  0.31551362)
   360a -> 371a  :     0.011550 (c=  0.10746977)
   361a -> 370a  :     0.045539 (c=  0.21339850)
   362a -> 370a  :     0.015976 (c=  0.12639561)
   362a -> 371a  :     0.218856 (c= -0.46782061)
   363a -> 371a  :     0.017104 (c=  0.13078145)
   366a -> 373a  :     0.058542 (c=  0.24195534)
   366a -> 376a  :     0.016129 (c= -0.12699976)

STATE 49:  E=   0.130390 au      3.548 eV    28617.3 cm**-1
   349a -> 367a  :     0.010671 (c=  0.10329813)
   349a -> 369a  :     0.066002 (c=  0.25690942)
   353a -> 367a  :     0.305377 (c=  0.55260901)
   353a -> 369a  :     0.030848 (c=  0.17563574)
   353a -> 370a  :     0.080892 (c=  0.28441472)
   353a -> 371a  :     0.014637 (c=  0.12098460)
   354a -> 367a  :     0.057161 (c= -0.23908406)
   355a -> 367a  :     0.186332 (c=  0.43166164)
   355a -> 369a  :     0.031285 (c= -0.17687464)
   359a -> 370a  :     0.044073 (c=  0.20993613)
   361a -> 371a  :     0.016276 (c=  0.12757587)
   362a -> 371a  :     0.028910 (c=  0.17002888)
   366a -> 372a  :     0.013201 (c= -0.11489738)

STATE 50:  E=   0.130564 au      3.553 eV    28655.4 cm**-1
   350a -> 367a  :     0.070515 (c= -0.26554612)
   351a -> 367a  :     0.050543 (c= -0.22481822)
   352a -> 367a  :     0.011303 (c= -0.10631670)
   354a -> 367a  :     0.032346 (c=  0.17985039)
   358a -> 369a  :     0.155303 (c= -0.39408481)
   358a -> 370a  :     0.028138 (c=  0.16774328)
   359a -> 369a  :     0.050413 (c=  0.22452875)
   359a -> 370a  :     0.014200 (c=  0.11916585)
   360a -> 369a  :     0.129750 (c=  0.36020821)
   360a -> 370a  :     0.057331 (c= -0.23943833)
   361a -> 370a  :     0.037087 (c= -0.19257871)
   362a -> 371a  :     0.184910 (c=  0.43001176)
   366a -> 372a  :     0.063337 (c=  0.25166922)


-----------------------------
TD-DFT/TDA-EXCITATION SPECTRA
-----------------------------

Center of mass = (  4.0969,  4.7608, -0.2633)
Calculating the Dipole integrals                  ... done
Transforming integrals                            ... done
Calculating the Linear Momentum integrals         ... done
Transforming integrals                            ... done
Calculating angular momentum integrals            ... done
Transforming integrals                            ... done

-----------------------------------------------------------------------------
         ABSORPTION SPECTRUM VIA TRANSITION ELECTRIC DIPOLE MOMENTS
-----------------------------------------------------------------------------
State   Energy    Wavelength  fosc         T2        TX        TY        TZ  
        (cm-1)      (nm)                 (au**2)    (au)      (au)      (au) 
-----------------------------------------------------------------------------
   1   13551.2    737.9   0.803184621  19.51251  -4.33791   0.82571  -0.11498
   2   15590.6    641.4   0.020899365   0.44131  -0.63460   0.16977   0.09887
   3   15863.5    630.4   0.020054802   0.41619  -0.46202   0.45001  -0.01475
   4   17145.5    583.2   0.162559404   3.12131  -1.74062   0.29881   0.04767
   5   18288.6    546.8   0.117162143   2.10903   1.44981  -0.01146   0.08331
   6   19194.7    521.0   0.309195310   5.30306  -0.73151   2.09218   0.62510
   7   19748.8    506.4   0.866757035  14.44880   3.67461  -0.82871  -0.50917
   8   19992.4    500.2   0.054845267   0.90313   0.64799   0.67322  -0.17323
   9   20821.2    480.3   0.005417565   0.08566  -0.28162   0.07955  -0.00463
  10   21552.2    464.0   0.015594218   0.23820  -0.36458   0.32444  -0.00460
  11   22313.0    448.2   0.079229484   1.16897   1.02631  -0.33517   0.05759
  12   22687.6    440.8   0.070306424   1.02019   1.00962  -0.02606  -0.01352
  13   22802.2    438.6   0.063582120   0.91798   0.95678   0.05009   0.00648
  14   22848.4    437.7   0.394109408   5.67855   2.36044   0.32324   0.04870
  15   23404.2    427.3   0.106294004   1.49517  -1.22092  -0.05718  -0.03555
  16   23636.9    423.1   0.067149039   0.93524  -0.93907  -0.20529   0.10608
  17   24241.2    412.5   0.048782063   0.66249   0.14532  -0.77898  -0.18594
  18   24351.2    410.7   0.141084680   1.90737   0.05102  -1.36791  -0.18327
  19   24569.8    407.0   0.034874063   0.46728  -0.18255  -0.65184  -0.09519
  20   24714.0    404.6   0.325744744   4.33921  -1.86477  -0.92236  -0.10543
  21   24731.1    404.3   0.125570966   1.67156  -0.87591   0.93345   0.18169
  22   25097.5    398.4   0.026731190   0.35064   0.54895  -0.22200   0.00324
  23   25163.4    397.4   0.008798713   0.11511   0.33419   0.05696   0.01372
  24   25348.1    394.5   0.002727434   0.03542  -0.18505  -0.02039   0.02765
  25   25434.9    393.2   0.006259538   0.08102   0.19049  -0.20758  -0.04051
  26   25696.2    389.2   0.018190621   0.23305   0.29607  -0.37544  -0.06662
  27   25765.4    388.1   0.000037903   0.00048  -0.01048   0.01398   0.01338
  28   25830.6    387.1   0.018896082   0.24083  -0.41191  -0.24961   0.09409
  29   25891.5    386.2   0.014228802   0.18092  -0.21078   0.32714   0.17167
  30   26371.3    379.2   0.054780428   0.68386   0.78133  -0.15481  -0.22229
  31   26577.7    376.3   0.008773976   0.10868   0.13572  -0.27701  -0.11629
  32   26723.2    374.2   0.169489403   2.08799  -1.29340   0.62399   0.16042
  33   27188.3    367.8   0.002948491   0.03570   0.14303   0.09568  -0.07805
  34   27214.3    367.5   0.008526750   0.10315   0.31185   0.04053   0.06524
  35   27525.0    363.3   0.072781601   0.87050  -0.70811  -0.59414   0.12680
  36   27594.3    362.4   0.041409136   0.49403  -0.70187   0.03278   0.01831
  37   27655.2    361.6   0.037383012   0.44501  -0.66479   0.02093   0.05134
  38   27739.4    360.5   0.161882659   1.92122   1.11871  -0.80469  -0.14890
  39   27792.3    359.8   0.022171250   0.26263  -0.45268   0.23721   0.03796
  40   27865.6    358.9   0.000079691   0.00094  -0.00216   0.01564  -0.02631
  41   27917.0    358.2   0.009654530   0.11385  -0.30268   0.14011   0.05102
  42   27991.0    357.3   0.002600508   0.03059  -0.10727  -0.13792   0.00761
  43   28185.0    354.8   0.014571847   0.17021  -0.41148  -0.01461   0.02606
  44   28238.1    354.1   0.003215973   0.03749  -0.13259   0.09505  -0.10430
  45   28302.9    353.3   0.002767809   0.03219  -0.16865   0.01310  -0.05983
  46   28342.2    352.8   0.002199958   0.02555   0.00908   0.15552   0.03586
  47   28469.3    351.3   0.002331971   0.02697  -0.15581  -0.02662  -0.04450
  48   28532.3    350.5   0.061277545   0.70703  -0.83396   0.09814   0.04372
  49   28617.3    349.4   0.004326916   0.04978   0.22310  -0.00142   0.00147
  50   28655.4    349.0   0.027121583   0.31159  -0.44596   0.32605   0.08002

-----------------------------------------------------------------------------
         ABSORPTION SPECTRUM VIA TRANSITION VELOCITY DIPOLE MOMENTS
-----------------------------------------------------------------------------
State   Energy    Wavelength   fosc        P2         PX        PY        PZ  
        (cm-1)      (nm)                 (au**2)     (au)      (au)      (au) 
-----------------------------------------------------------------------------
   1   13551.2    737.9   0.241522208   0.02237   0.12713   0.04226  -0.06648
   2   15590.6    641.4   0.011606348   0.00124  -0.00605  -0.03253   0.01191
   3   15863.5    630.4   0.006969885   0.00076   0.00776   0.01777  -0.01948
   4   17145.5    583.2   0.072874192   0.00854   0.08783  -0.02400  -0.01578
   5   18288.6    546.8   0.080065299   0.01001  -0.09229  -0.03589   0.01422
   6   19194.7    521.0   0.006597920   0.00087   0.02566   0.00609  -0.01304
   7   19748.8    506.4   0.468247631   0.06320  -0.21572   0.09391  -0.08858
   8   19992.4    500.2   0.044223742   0.00604  -0.06050   0.02929  -0.03905
   9   20821.2    480.3   0.000711930   0.00010  -0.00674  -0.00724  -0.00187
  10   21552.2    464.0   0.003485665   0.00051   0.02244  -0.00198  -0.00248
  11   22313.0    448.2   0.076877748   0.01172  -0.08995  -0.05592   0.02249
  12   22687.6    440.8   0.045503361   0.00706  -0.08252  -0.01338   0.00820
  13   22802.2    438.6   0.031210890   0.00486  -0.06765  -0.00137  -0.01690
  14   22848.4    437.7   0.251179987   0.03922  -0.19209  -0.01478  -0.04589
  15   23404.2    427.3   0.071968888   0.01151   0.10019   0.03802   0.00532
  16   23636.9    423.1   0.048351075   0.00781   0.06850  -0.04961   0.02563
  17   24241.2    412.5   0.015391826   0.00255  -0.03570   0.00438   0.03545
  18   24351.2    410.7   0.036845496   0.00613  -0.01378   0.02295   0.07359
  19   24569.8    407.0   0.011451162   0.00192   0.00553   0.01161   0.04192
  20   24714.0    404.6   0.239829386   0.04051   0.16833   0.09022   0.06352
  21   24731.1    404.3   0.062399758   0.01055   0.09173  -0.03323  -0.03207
  22   25097.5    398.4   0.073319867   0.01258  -0.07998  -0.07842   0.00554
  23   25163.4    397.4   0.024332895   0.00418  -0.04125  -0.04919   0.00802
  24   25348.1    394.5   0.004567526   0.00079   0.01228  -0.02530  -0.00059
  25   25434.9    393.2   0.005535485   0.00096  -0.02665   0.00835   0.01350
  26   25696.2    389.2   0.012667890   0.00222  -0.01944   0.04205   0.00889
  27   25765.4    388.1   0.003107358   0.00055   0.01218   0.01791   0.00885
  28   25830.6    387.1   0.014383497   0.00254   0.04716   0.00232   0.01759
  29   25891.5    386.2   0.002759206   0.00049   0.02187  -0.00173   0.00262
  30   26371.3    379.2   0.052371276   0.00944  -0.07600   0.05946  -0.01130
  31   26577.7    376.3   0.012421947   0.00226  -0.02138   0.04159  -0.00832
  32   26723.2    374.2   0.059569139   0.01088   0.09408  -0.04501  -0.00149
  33   27188.3    367.8   0.003728905   0.00069  -0.01453   0.00611  -0.02108
  34   27214.3    367.5   0.004861757   0.00090  -0.01957   0.01807   0.01395
  35   27525.0    363.3   0.024902555   0.00468   0.06391  -0.01513   0.01927
  36   27594.3    362.4   0.016664848   0.00314   0.05580  -0.00214  -0.00498
  37   27655.2    361.6   0.016629013   0.00314   0.05576   0.00297   0.00501
  38   27739.4    360.5   0.035880908   0.00680  -0.07094   0.04143  -0.00736
  39   27792.3    359.8   0.005958597   0.00113   0.02579   0.02129   0.00369
  40   27865.6    358.9   0.001462661   0.00028   0.00090   0.00892  -0.01408
  41   27917.0    358.2   0.002187537   0.00042   0.01746  -0.01054   0.00120
  42   27991.0    357.3   0.003701366   0.00071   0.02198   0.01098   0.01021
  43   28185.0    354.8   0.009866685   0.00190   0.03107   0.02912   0.00935
  44   28238.1    354.1   0.014287785   0.00276   0.03543   0.02107  -0.03253
  45   28302.9    353.3   0.015778040   0.00305   0.02058   0.04648   0.02163
  46   28342.2    352.8   0.004832372   0.00094   0.02429   0.01792  -0.00498
  47   28469.3    351.3   0.014118323   0.00275   0.03639   0.02584  -0.02748
  48   28532.3    350.5   0.042307471   0.00825   0.08874  -0.01865   0.00521
  49   28617.3    349.4   0.003439253   0.00067  -0.00325   0.02567   0.00172
  50   28655.4    349.0   0.002597805   0.00051   0.01184  -0.01888   0.00346

-------------------------------------------------------------------
                             CD SPECTRUM
-------------------------------------------------------------------
State  Energy     Wavelength     R         MX        MY        MZ   
       (cm-1)       (nm)     (1e40*cgs)   (au)      (au)      (au)  
-------------------------------------------------------------------
   1   13551.2    737.9    -171.62690   0.07538  -0.17473  -0.93253
   2   15590.6    641.4    -12.73147  -0.07993  -0.13993  -0.54588
   3   15863.5    630.4    -13.08156  -0.00664  -0.07745  -0.27398
   4   17145.5    583.2     39.86842  -0.04995   0.01846  -0.16547
   5   18288.6    546.8    -23.97866  -0.06652   0.10773   0.56190
   6   19194.7    521.0     77.16347  -0.14241   0.07622  -0.15994
   7   19748.8    506.4     35.21315   0.16914   0.10009   0.91109
   8   19992.4    500.2    -62.21576  -0.02272  -0.25465  -0.31284
   9   20821.2    480.3      1.52634  -0.03713  -0.10798  -0.29574
  10   21552.2    464.0    -15.75837  -0.02827  -0.13860  -0.26870
  11   22313.0    448.2    -82.32000  -0.11998   0.26476   0.64713
  12   22687.6    440.8    -30.80141  -0.05118   0.20525   0.61507
  13   22802.2    438.6     11.86730   0.02165   0.04153   0.36691
  14   22848.4    437.7     29.51477   0.00228   0.04618   0.86839
  15   23404.2    427.3    -53.94255   0.11114   0.00347  -0.60420
  16   23636.9    423.1    -39.29328   0.02186   0.06992  -0.45683
  17   24241.2    412.5    -54.53439   0.22544   0.19796  -0.03106
  18   24351.2    410.7    -71.80827   0.27840   0.14285  -0.15759
  19   24569.8    407.0     12.64156  -0.00526  -0.00732  -0.22148
  20   24714.0    404.6    -330.80369   0.39910   0.08859  -1.17866
  21   24731.1    404.3     19.81368  -0.26406  -0.16865  -0.17520
  22   25097.5    398.4    -18.07024  -0.04669   0.06006   0.19547
  23   25163.4    397.4      8.40515   0.07922  -0.19734   0.18915
  24   25348.1    394.5      1.94274  -0.03067  -0.04893  -0.09228
  25   25434.9    393.2     -4.44499  -0.08702  -0.04306   0.04421
  26   25696.2    389.2    -12.13220   0.08371   0.10508   0.16611
  27   25765.4    388.1     -0.32767   0.01898   0.12679  -0.16964
  28   25830.6    387.1    -26.75294  -0.02603   0.18136  -0.23593
  29   25891.5    386.2     38.81776  -0.01750   0.10063   0.26637
  30   26371.3    379.2    -24.71009   0.05589  -0.00101   0.43294
  31   26577.7    376.3    -11.81357   0.02839   0.01257   0.21866
  32   26723.2    374.2    -17.12351  -0.04260  -0.05993  -0.33673
  33   27188.3    367.8     -5.67983  -0.02807  -0.06617   0.02181
  34   27214.3    367.5     18.61579   0.05570   0.11371   0.26837
  35   27525.0    363.3    -43.84107  -0.02901   0.13709  -0.25298
  36   27594.3    362.4    -58.12513   0.16028  -0.05098  -0.49840
  37   27655.2    361.6     -7.08723  -0.00712  -0.36553  -0.23599
  38   27739.4    360.5     36.37413   0.09160   0.01522   0.08781
  39   27792.3    359.8      4.81292   0.03868   0.09147   0.15863
  40   27865.6    358.9      0.28397   0.04481   0.06194   0.01024
  41   27917.0    358.2      3.36580   0.01148   0.08784  -0.03322
  42   27991.0    357.3     10.94229  -0.10688  -0.10926  -0.43654
  43   28185.0    354.8      8.48936  -0.07693   0.24940  -0.38391
  44   28238.1    354.1     16.13570  -0.10279   0.04646  -0.15513
  45   28302.9    353.3      5.62344  -0.06619  -0.12364  -0.03984
  46   28342.2    352.8      5.19495  -0.02825   0.05283   0.08535
  47   28469.3    351.3     -3.16682   0.09775  -0.17299  -0.08782
  48   28532.3    350.5     -1.11059  -0.01805  -0.03581  -0.31787
  49   28617.3    349.4      1.18804   0.00882  -0.25807   0.12740
  50   28655.4    349.0      8.93183   0.01779   0.05958   0.09316

Total run time:   461779.434 sec

           *** ORCA-CIS/TD-DFT FINISHED WITHOUT ERROR ***

-----------------------
CIS/TD-DFT TOTAL ENERGY
-----------------------

    E(SCF)  =  -5622.974896131 Eh
    DE(CIS) =      0.061743837 Eh (Root  1)
    ----------------------------- ---------
    E(tot)  =  -5622.913152294 Eh


-------------------------   --------------------
FINAL SINGLE POINT ENERGY     -5622.913152294274
-------------------------   --------------------


                            ***************************************
                            *     ORCA property calculations      *
                            ***************************************

                                    ---------------------
                                    Active property flags
                                    ---------------------
   (+) Dipole Moment


------------------------------------------------------------------------------
                       ORCA ELECTRIC PROPERTIES CALCULATION
------------------------------------------------------------------------------

Dipole Moment Calculation                       ... on
Quadrupole Moment Calculation                   ... off
Polarizability Calculation                      ... off
GBWName                                         ... NIDT.gbw
Electron density file                           ... NIDT.scfp
The origin for moment calculation is the CENTER OF MASS  = ( 4.096889,  4.760752 -0.263265)

-------------
DIPOLE MOMENT
-------------
                                X             Y             Z
Electronic contribution:      4.24851     -30.30670      27.73623
Nuclear contribution   :     -4.20332      27.47300     -28.42714
                        -----------------------------------------
Total Dipole Moment    :      0.04519      -2.83371      -0.69091
                        -----------------------------------------
Magnitude (a.u.)       :      2.91707
Magnitude (Debye)      :      7.41460



--------------------
Rotational spectrum 
--------------------
 
Rotational constants in cm-1:     0.000742     0.000160     0.000139 
Rotational constants in MHz :    22.235914     4.796595     4.177220 

 Dipole components along the rotational axes: 
x,y,z [a.u.] :     0.286326    -2.899758    -0.136779 
x,y,z [Debye]:     0.727782    -7.370600    -0.347665 

 

Timings for individual modules:

Sum of individual times         ...   498100.127 sec (=8301.669 min)
GTO integral calculation        ...       16.759 sec (=   0.279 min)   0.0 %
SCF iterations                  ...    36303.667 sec (= 605.061 min)   7.3 %
CIS module                      ...   461779.700 sec (=7696.328 min)  92.7 %
                             ****ORCA TERMINATED NORMALLY****
TOTAL RUN TIME: 5 days 18 hours 21 minutes 43 seconds 273 msec
