
                                 *****************
                                 * O   R   C   A *
                                 *****************

           --- An Ab Initio, DFT and Semiempirical electronic structure package ---

                  #######################################################
                  #                        -***-                        #
                  #          Department of theory and spectroscopy      #
                  #               Directorship: Frank Neese             #
                  #        Max Planck Institute fuer Kohlenforschung    #
                  #                Kaiser Wilhelm Platz 1               #
                  #                 D-45470 Muelheim/Ruhr               #
                  #                      Germany                        #
                  #                                                     #
                  #                  All rights reserved                #
                  #                        -***-                        #
                  #######################################################


                         Program Version 4.2.0 -  RELEASE  -


 With contributions from (in alphabetic order):
   Daniel Aravena         : Magnetic Suceptibility
   Michael Atanasov       : Ab Initio Ligand Field Theory (pilot matlab implementation)
   Alexander A. Auer      : GIAO ZORA, VPT2
   Ute Becker             : Parallelization
   Giovanni Bistoni       : ED, misc. LED, open-shell LED, HFLED
   Martin Brehm           : Molecular dynamics
   Dmytro Bykov           : SCF Hessian
   Vijay G. Chilkuri      : MRCI spin determinant printing, contributions to CSF-ICE
   Dipayan Datta          : RHF DLPNO-CCSD density
   Achintya Kumar Dutta   : EOM-CC, STEOM-CC
   Dmitry Ganyushin       : Spin-Orbit,Spin-Spin,Magnetic field MRCI
   Miquel Garcia          : C-PCM Hessian, Gaussian charge scheme
   Yang Guo               : DLPNO-NEVPT2, CIM, IAO-localization
   Andreas Hansen         : Spin unrestricted coupled pair/coupled cluster methods
   Benjamin Helmich-Paris : CASSCF linear response (MC-RPA)
   Lee Huntington         : MR-EOM, pCC
   Robert Izsak           : Overlap fitted RIJCOSX, COSX-SCS-MP3, EOM
   Christian Kollmar      : KDIIS, OOCD, Brueckner-CCSD(T), CCSD density
   Simone Kossmann        : Meta GGA functionals, TD-DFT gradient, OOMP2, MP2 Hessian
   Martin Krupicka        : AUTO-CI
   Lucas Lang             : DCDCAS
   Dagmar Lenk            : GEPOL surface, SMD
   Dimitrios Liakos       : Extrapolation schemes; Compound Job, initial MDCI parallelization
   Dimitrios Manganas     : Further ROCIS development; embedding schemes
   Dimitrios Pantazis     : SARC Basis sets
   Taras Petrenko         : DFT Hessian,TD-DFT gradient, ASA, ECA, R-Raman, ABS, FL, XAS/XES, NRVS
   Peter Pinski           : DLPNO-MP2, DLPNO-MP2 Gradient
   Christoph Reimann      : Effective Core Potentials
   Marius Retegan         : Local ZFS, SOC
   Christoph Riplinger    : Optimizer, TS searches, QM/MM, DLPNO-CCSD(T), (RO)-DLPNO pert. Triples
   Tobias Risthaus        : Range-separated hybrids, TD-DFT gradient, RPA, STAB
   Michael Roemelt        : Original ROCIS implementation
   Masaaki Saitow         : Open-shell DLPNO-CCSD energy and density
   Barbara Sandhoefer     : DKH picture change effects
   Avijit Sen             : IP-ROCIS
   Kantharuban Sivalingam : CASSCF convergence, NEVPT2, FIC-MRCI
   Bernardo de Souza      : ESD, SOC TD-DFT
   Georgi Stoychev        : AutoAux, RI-MP2 NMR
   Willem Van den Heuvel  : Paramagnetic NMR
   Boris Wezisla          : Elementary symmetry handling
   Frank Wennmohs         : Technical directorship


 We gratefully acknowledge several colleagues who have allowed us to
 interface, adapt or use parts of their codes:
   Stefan Grimme, W. Hujo, H. Kruse,             : VdW corrections, initial TS optimization,
                  C. Bannwarth                     DFT functionals, gCP, sTDA/sTD-DF
   Ed Valeev, F. Pavosevic, A. Kumar             : LibInt (2-el integral package), F12 methods
   Garnet Chan, S. Sharma, J. Yang, R. Olivares  : DMRG
   Ulf Ekstrom                                   : XCFun DFT Library
   Mihaly Kallay                                 : mrcc  (arbitrary order and MRCC methods)
   Andreas Klamt, Michael Diedenhofen            : otool_cosmo (COSMO solvation model)
   Jiri Pittner, Ondrej Demel                    : Mk-CCSD
   Frank Weinhold                                : gennbo (NPA and NBO analysis)
   Christopher J. Cramer and Donald G. Truhlar   : smd solvation model
   Lars Goerigk                                  : TD-DFT with DH, B97 family of functionals
   V. Asgeirsson, H. Jonsson                     : NEB implementation
   FAccTs GmbH                                   : IRC, NEB, NEB-TS, Multilevel, MM, QM/MM, CI optimization
   S Lehtola, MJT Oliveira, MAL Marques          : LibXC Library


 Your calculation uses the libint2 library for the computation of 2-el integrals
 For citations please refer to: http://libint.valeyev.net

 Your ORCA version has been built with support for libXC version: 4.2.3
 For citations please refer to: https://tddft.org/programs/libxc/

 This ORCA versions uses:
   CBLAS   interface :  Fast vector & matrix operations
   LAPACKE interface :  Fast linear algebra routines
   SCALAPACK package :  Parallel linear algebra routines


----- Orbital basis set information -----
Your calculation utilizes the basis: def2-TZVP
   F. Weigend and R. Ahlrichs, Phys. Chem. Chem. Phys. 7, 3297 (2005).

----- AuxJ basis set information -----
Your calculation utilizes the auxiliary basis: def2/J
   F. Weigend, Phys. Chem. Chem. Phys. 8, 1057 (2006).

================================================================================
                                        WARNINGS
                       Please study these warnings very carefully!
================================================================================

INFO   : Checking CIS options ...

WARNING: CIS/ROCIS methods need fully converged wavefunctions
  ===> : Setting SCFConvForced true
         You can overwrite this default with %scf ConvForced false 


INFO   : the flag for use of LIBINT has been found!

================================================================================
                                       INPUT FILE
================================================================================
NAME = O-IDTBR.inp
|  1> # ORCA input file
|  2> # O-IDTBR.out: Geometry 41
|  3> ! B3LYP def2-TZVP def2/J RIJCOSX Grid4 TightSCF
|  4> 
|  5> %maxcore 6000
|  6> %tddft
|  7>   maxdim 5
|  8>   nroots 50
|  9>   end
| 10> %pal
| 11>   nprocs 6
| 12>   end
| 13> 
| 14> 
| 15> * xyz 0 1
| 16>    S        0.64327        -1.96333        -1.07928
| 17>    C        2.03444        -1.09341        -1.75345
| 18>    S        3.32589        -1.87560        -2.40179
| 19>    N        1.85514         0.26525        -1.65399
| 20>    C        2.82060         1.24596        -2.15400
| 21>    C        3.73869         1.76928        -1.05598
| 22>    C        0.69912         0.70123        -1.00068
| 23>    O        0.43306         1.87295        -0.82837
| 24>    C       -0.12027        -0.46491        -0.55577
| 25>    C       -1.22823        -0.18959         0.18297
| 26>    C       -2.27557        -0.97467         0.77871
| 27>    C       -2.48848        -2.38748         0.61052
| 28>    N       -1.71922        -3.20992        -0.09827
| 29>    S       -2.37200        -4.71228        -0.00675
| 30>    N       -3.66858        -4.36584         0.93670
| 31>    C       -3.63581        -3.06161         1.21586
| 32>    C       -4.59961        -2.32484         2.00560
| 33>    C       -4.31991        -0.96713         2.16698
| 34>    C       -3.21739        -0.32425         1.57665
| 35>    C       -5.79245        -2.92808         2.55621
| 36>    C       -6.22337        -4.25574         2.51379
| 37>    C       -7.48299        -4.43160         3.12108
| 38>    C       -8.01534        -3.25400         3.62782
| 39>    S       -6.98446        -1.90028         3.37527
| 40>    C       -9.32919        -3.47042         4.18720
| 41>    C       -9.61501        -4.85755         4.02941
| 42>    C       -8.43016        -5.59322         3.38441
| 43>    C       -8.84776        -6.31758         2.08316
| 44>    C       -9.45385        -5.40349         1.02150
| 45>    C       -7.72801        -6.56795         4.37420
| 46>    C       -8.55926        -7.72766         4.91851
| 47>    C      -10.86122        -5.35129         4.39047
| 48>    C      -11.80410        -4.45110         4.91580
| 49>    C      -11.51540        -3.06543         5.08070
| 50>    C      -10.26395        -2.57409         4.73259
| 51>    C      -12.72091        -2.31875         5.67558
| 52>    C      -12.35712        -1.65399         7.02536
| 53>    C      -11.83021        -2.62149         8.08182
| 54>    C      -13.33802        -1.28745         4.68746
| 55>    C      -12.45253        -0.13088         4.22747
| 56>    C      -13.71094        -3.46535         5.83933
| 57>    C      -13.15587        -4.65493         5.38219
| 58>    S      -14.23691        -5.98848         5.47771
| 59>    C      -15.50184        -4.93909         6.13801
| 60>    C      -15.04018        -3.62221         6.26710
| 61>    C      -16.82333        -5.43723         6.45029
| 62>    C      -17.17324        -6.82740         6.30178
| 63>    N      -16.34838        -7.78923         5.89119
| 64>    S      -17.19331        -9.19376         5.88405
| 65>    N      -18.64177        -8.62143         6.40314
| 66>    C      -18.51190        -7.30935         6.59881
| 67>    C      -19.55361        -6.41194         7.05026
| 68>    C      -19.16495        -5.07618         7.18755
| 69>    C      -17.86050        -4.61737         6.90210
| 70>    C      -20.85152        -6.99786         7.28958
| 71>    C      -22.06814        -6.52094         7.69218
| 72>    S      -23.44971        -7.62875         7.84074
| 73>    C      -24.56043        -6.33621         8.28546
| 74>    S      -26.16365        -6.57692         8.56273
| 75>    N      -23.87851        -5.14279         8.34660
| 76>    C      -24.53189        -3.88824         8.72746
| 77>    C      -24.68081        -3.75341        10.23708
| 78>    C      -22.50804        -5.15055         8.03445
| 79>    O      -21.84179        -4.13088         8.04974
| 80>    H        2.23613         2.06629        -2.59360
| 81>    H        3.39386         0.74155        -2.94225
| 82>    H        3.15916         2.28653        -0.27690
| 83>    H        4.45854         2.48475        -1.48383
| 84>    H        4.30500         0.94502        -0.59658
| 85>    H       -1.33394         0.88812         0.35476
| 86>    H       -4.99746        -0.35601         2.76722
| 87>    H       -3.09461         0.74788         1.74781
| 88>    H       -5.62595        -5.03016         2.03699
| 89>    H       -9.56745        -7.11104         2.34082
| 90>    H       -7.95917        -6.83246         1.67705
| 91>    H      -10.31273        -4.84357         1.42353
| 92>    H       -9.80925        -5.98669         0.15813
| 93>    H       -8.72185        -4.66808         0.65589
| 94>    H       -7.34551        -5.97055         5.21785
| 95>    H       -6.83842        -6.96349         3.85419
| 96>    H       -9.37737        -7.37360         5.56211
| 97>    H       -7.92508        -8.38987         5.52941
| 98>    H       -8.99798        -8.34546         4.11962
| 99>    H      -11.12179        -6.40243         4.25485
|100>    H      -10.00356        -1.52276         4.86474
|101>    H      -13.25271        -1.13079         7.40455
|102>    H      -11.60519        -0.87093         6.83619
|103>    H      -12.59226        -3.36282         8.36425
|104>    H      -11.52676        -2.08065         8.99156
|105>    H      -10.95234        -3.17432         7.71201
|106>    H      -14.24123        -0.88258         5.17659
|107>    H      -13.69522        -1.84096         3.80378
|108>    H      -12.02708         0.43791         5.06858
|109>    H      -13.04465         0.57593         3.62453
|110>    H      -11.62202        -0.47882         3.59720
|111>    H      -15.66299        -2.81824         6.65855
|112>    H      -19.90881        -4.35779         7.52768
|113>    H      -17.66857        -3.55261         7.04172
|114>    H      -20.84077        -8.07377         7.08319
|115>    H      -25.51378        -3.87274         8.23495
|116>    H      -23.90549        -3.08632         8.31660
|117>    H      -25.31014        -4.56037        10.63768
|118>    H      -25.16105        -2.79317        10.48130
|119>    H      -23.69902        -3.78513        10.73269
|120> *
|121> 
|122>                          ****END OF INPUT****
================================================================================

                       ****************************
                       * Single Point Calculation *
                       ****************************

---------------------------------
CARTESIAN COORDINATES (ANGSTROEM)
---------------------------------
  S      0.643270   -1.963330   -1.079280
  C      2.034440   -1.093410   -1.753450
  S      3.325890   -1.875600   -2.401790
  N      1.855140    0.265250   -1.653990
  C      2.820600    1.245960   -2.154000
  C      3.738690    1.769280   -1.055980
  C      0.699120    0.701230   -1.000680
  O      0.433060    1.872950   -0.828370
  C     -0.120270   -0.464910   -0.555770
  C     -1.228230   -0.189590    0.182970
  C     -2.275570   -0.974670    0.778710
  C     -2.488480   -2.387480    0.610520
  N     -1.719220   -3.209920   -0.098270
  S     -2.372000   -4.712280   -0.006750
  N     -3.668580   -4.365840    0.936700
  C     -3.635810   -3.061610    1.215860
  C     -4.599610   -2.324840    2.005600
  C     -4.319910   -0.967130    2.166980
  C     -3.217390   -0.324250    1.576650
  C     -5.792450   -2.928080    2.556210
  C     -6.223370   -4.255740    2.513790
  C     -7.482990   -4.431600    3.121080
  C     -8.015340   -3.254000    3.627820
  S     -6.984460   -1.900280    3.375270
  C     -9.329190   -3.470420    4.187200
  C     -9.615010   -4.857550    4.029410
  C     -8.430160   -5.593220    3.384410
  C     -8.847760   -6.317580    2.083160
  C     -9.453850   -5.403490    1.021500
  C     -7.728010   -6.567950    4.374200
  C     -8.559260   -7.727660    4.918510
  C    -10.861220   -5.351290    4.390470
  C    -11.804100   -4.451100    4.915800
  C    -11.515400   -3.065430    5.080700
  C    -10.263950   -2.574090    4.732590
  C    -12.720910   -2.318750    5.675580
  C    -12.357120   -1.653990    7.025360
  C    -11.830210   -2.621490    8.081820
  C    -13.338020   -1.287450    4.687460
  C    -12.452530   -0.130880    4.227470
  C    -13.710940   -3.465350    5.839330
  C    -13.155870   -4.654930    5.382190
  S    -14.236910   -5.988480    5.477710
  C    -15.501840   -4.939090    6.138010
  C    -15.040180   -3.622210    6.267100
  C    -16.823330   -5.437230    6.450290
  C    -17.173240   -6.827400    6.301780
  N    -16.348380   -7.789230    5.891190
  S    -17.193310   -9.193760    5.884050
  N    -18.641770   -8.621430    6.403140
  C    -18.511900   -7.309350    6.598810
  C    -19.553610   -6.411940    7.050260
  C    -19.164950   -5.076180    7.187550
  C    -17.860500   -4.617370    6.902100
  C    -20.851520   -6.997860    7.289580
  C    -22.068140   -6.520940    7.692180
  S    -23.449710   -7.628750    7.840740
  C    -24.560430   -6.336210    8.285460
  S    -26.163650   -6.576920    8.562730
  N    -23.878510   -5.142790    8.346600
  C    -24.531890   -3.888240    8.727460
  C    -24.680810   -3.753410   10.237080
  C    -22.508040   -5.150550    8.034450
  O    -21.841790   -4.130880    8.049740
  H      2.236130    2.066290   -2.593600
  H      3.393860    0.741550   -2.942250
  H      3.159160    2.286530   -0.276900
  H      4.458540    2.484750   -1.483830
  H      4.305000    0.945020   -0.596580
  H     -1.333940    0.888120    0.354760
  H     -4.997460   -0.356010    2.767220
  H     -3.094610    0.747880    1.747810
  H     -5.625950   -5.030160    2.036990
  H     -9.567450   -7.111040    2.340820
  H     -7.959170   -6.832460    1.677050
  H    -10.312730   -4.843570    1.423530
  H     -9.809250   -5.986690    0.158130
  H     -8.721850   -4.668080    0.655890
  H     -7.345510   -5.970550    5.217850
  H     -6.838420   -6.963490    3.854190
  H     -9.377370   -7.373600    5.562110
  H     -7.925080   -8.389870    5.529410
  H     -8.997980   -8.345460    4.119620
  H    -11.121790   -6.402430    4.254850
  H    -10.003560   -1.522760    4.864740
  H    -13.252710   -1.130790    7.404550
  H    -11.605190   -0.870930    6.836190
  H    -12.592260   -3.362820    8.364250
  H    -11.526760   -2.080650    8.991560
  H    -10.952340   -3.174320    7.712010
  H    -14.241230   -0.882580    5.176590
  H    -13.695220   -1.840960    3.803780
  H    -12.027080    0.437910    5.068580
  H    -13.044650    0.575930    3.624530
  H    -11.622020   -0.478820    3.597200
  H    -15.662990   -2.818240    6.658550
  H    -19.908810   -4.357790    7.527680
  H    -17.668570   -3.552610    7.041720
  H    -20.840770   -8.073770    7.083190
  H    -25.513780   -3.872740    8.234950
  H    -23.905490   -3.086320    8.316600
  H    -25.310140   -4.560370   10.637680
  H    -25.161050   -2.793170   10.481300
  H    -23.699020   -3.785130   10.732690

----------------------------
CARTESIAN COORDINATES (A.U.)
----------------------------
  NO LB      ZA    FRAG     MASS         X           Y           Z
   0 S    16.0000    0    32.060    1.215604   -3.710156   -2.039544
   1 C     6.0000    0    12.011    3.844534   -2.066245   -3.313540
   2 S    16.0000    0    32.060    6.285021   -3.544370   -4.538725
   3 N     7.0000    0    14.007    3.505707    0.501250   -3.125588
   4 C     6.0000    0    12.011    5.330162    2.354523   -4.070470
   5 C     6.0000    0    12.011    7.065100    3.343455   -1.995513
   6 C     6.0000    0    12.011    1.321145    1.325133   -1.891011
   7 O     8.0000    0    15.999    0.818365    3.539363   -1.565392
   8 C     6.0000    0    12.011   -0.227277   -0.878553   -1.050253
   9 C     6.0000    0    12.011   -2.321018   -0.358273    0.345763
  10 C     6.0000    0    12.011   -4.300204   -1.841859    1.471549
  11 C     6.0000    0    12.011   -4.702546   -4.511683    1.153716
  12 N     7.0000    0    14.007   -3.248855   -6.065870   -0.185703
  13 S    16.0000    0    32.060   -4.482430   -8.904919   -0.012756
  14 N     7.0000    0    14.007   -6.932612   -8.250242    1.770106
  15 C     6.0000    0    12.011   -6.870685   -5.785604    2.297642
  16 C     6.0000    0    12.011   -8.692003   -4.393311    3.790035
  17 C     6.0000    0    12.011   -8.163447   -1.827611    4.094999
  18 C     6.0000    0    12.011   -6.079986   -0.612744    2.979437
  19 C     6.0000    0    12.011  -10.946144   -5.533269    4.830537
  20 C     6.0000    0    12.011  -11.760465   -8.042183    4.750375
  21 C     6.0000    0    12.011  -14.140802   -8.374510    5.897986
  22 C     6.0000    0    12.011  -15.146797   -6.149169    6.855586
  23 S    16.0000    0    32.060  -13.198717   -3.591009    6.378336
  24 C     6.0000    0    12.011  -17.629614   -6.558143    7.912661
  25 C     6.0000    0    12.011  -18.169736   -9.179439    7.614481
  26 C     6.0000    0    12.011  -15.930694  -10.569654    6.395608
  27 C     6.0000    0    12.011  -16.719843  -11.938496    3.936602
  28 C     6.0000    0    12.011  -17.865187  -10.211116    1.930355
  29 C     6.0000    0    12.011  -14.603822  -12.411627    8.266040
  30 C     6.0000    0    12.011  -16.174657  -14.603161    9.294637
  31 C     6.0000    0    12.011  -20.524731  -10.112473    8.296786
  32 C     6.0000    0    12.011  -22.306516   -8.411360    9.289516
  33 C     6.0000    0    12.011  -21.760952   -5.792823    9.601132
  34 C     6.0000    0    12.011  -19.396055   -4.864325    8.943299
  35 C     6.0000    0    12.011  -24.039036   -4.381802   10.725292
  36 C     6.0000    0    12.011  -23.351573   -3.125588   13.276006
  37 C     6.0000    0    12.011  -22.355857   -4.953898   15.272426
  38 C     6.0000    0    12.011  -25.205205   -2.432928    8.858016
  39 C     6.0000    0    12.011  -23.531871   -0.247327    7.988761
  40 C     6.0000    0    12.011  -25.909922   -6.548562   11.034735
  41 C     6.0000    0    12.011  -24.860991   -8.796543   10.170865
  42 S    16.0000    0    32.060  -26.903861  -11.316587   10.351372
  43 C     6.0000    0    12.011  -29.294232   -9.333527   11.599158
  44 C     6.0000    0    12.011  -28.421821   -6.844985   11.843103
  45 C     6.0000    0    12.011  -31.791486  -10.274876   12.189282
  46 C     6.0000    0    12.011  -32.452720  -12.901916   11.908638
  47 N     7.0000    0    14.007  -30.893961  -14.719511   11.132736
  48 S    16.0000    0    32.060  -32.490647  -17.373689   11.119243
  49 N     7.0000    0    14.007  -35.227840  -16.292142   12.100181
  50 C     6.0000    0    12.011  -34.982421  -13.812670   12.469944
  51 C     6.0000    0    12.011  -36.950968  -12.116811   13.323061
  52 C     6.0000    0    12.011  -36.216507   -9.592590   13.582501
  53 C     6.0000    0    12.011  -33.751454   -8.725565   13.043079
  54 C     6.0000    0    12.011  -39.403662  -13.224039   13.775310
  55 C     6.0000    0    12.011  -41.702741  -12.322791   14.536114
  56 S    16.0000    0    32.060  -44.313530  -14.416248   14.816851
  57 C     6.0000    0    12.011  -46.412486  -11.973702   15.657250
  58 S    16.0000    0    32.060  -49.442133  -12.428578   16.181215
  59 N     7.0000    0    14.007  -45.123844   -9.718465   15.772788
  60 C     6.0000    0    12.011  -46.358554   -7.347709   16.492509
  61 C     6.0000    0    12.011  -46.639972   -7.092917   19.345278
  62 C     6.0000    0    12.011  -42.534031   -9.733129   15.182910
  63 O     8.0000    0    15.999  -41.275001   -7.806232   15.211804
  64 H     1.0000    0     1.008    4.225673    3.904722   -4.901194
  65 H     1.0000    0     1.008    6.413466    1.401326   -5.560047
  66 H     1.0000    0     1.008    5.969947    4.320915   -0.523265
  67 H     1.0000    0     1.008    8.425420    4.695497   -2.804032
  68 H     1.0000    0     1.008    8.135271    1.785829   -1.127373
  69 H     1.0000    0     1.008   -2.520781    1.678304    0.670399
  70 H     1.0000    0     1.008   -9.443831   -0.672761    5.229288
  71 H     1.0000    0     1.008   -5.847965    1.413288    3.302882
  72 H     1.0000    0     1.008  -10.631505   -9.505625    3.849353
  73 H     1.0000    0     1.008  -18.079860  -13.437918    4.423509
  74 H     1.0000    0     1.008  -15.040652  -12.911478    3.169165
  75 H     1.0000    0     1.008  -19.488235   -9.153021    2.690082
  76 H     1.0000    0     1.008  -18.536796  -11.313205    0.298822
  77 H     1.0000    0     1.008  -16.481908   -8.821393    1.239452
  78 H     1.0000    0     1.008  -13.881002  -11.282704    9.860308
  79 H     1.0000    0     1.008  -12.922741  -13.159089    7.283364
  80 H     1.0000    0     1.008  -17.720661  -13.934085   10.510865
  81 H     1.0000    0     1.008  -14.976231  -15.854557   10.449071
  82 H     1.0000    0     1.008  -17.003718  -15.770634    7.784954
  83 H     1.0000    0     1.008  -21.017137  -12.098839    8.040501
  84 H     1.0000    0     1.008  -18.903989   -2.877599    9.193026
  85 H     1.0000    0     1.008  -25.043992   -2.136883   13.992572
  86 H     1.0000    0     1.008  -21.930631   -1.645819   12.918527
  87 H     1.0000    0     1.008  -23.795923   -6.354809   15.806142
  88 H     1.0000    0     1.008  -21.782420   -3.931859   16.991586
  89 H     1.0000    0     1.008  -20.696923   -5.998595   14.573587
  90 H     1.0000    0     1.008  -26.912025   -1.667834    9.782337
  91 H     1.0000    0     1.008  -25.880215   -3.478910    7.188102
  92 H     1.0000    0     1.008  -22.727887    0.827530    9.578228
  93 H     1.0000    0     1.008  -24.650816    1.088350    6.849369
  94 H     1.0000    0     1.008  -21.962435   -0.904839    6.797723
  95 H     1.0000    0     1.008  -29.598762   -5.325702   12.582836
  96 H     1.0000    0     1.008  -37.622199   -8.235030   14.225254
  97 H     1.0000    0     1.008  -33.388758   -6.713460   13.306922
  98 H     1.0000    0     1.008  -39.383348  -15.257214   13.385289
  99 H     1.0000    0     1.008  -48.214057   -7.318418   15.561800
 100 H     1.0000    0     1.008  -45.174829   -5.832300   15.716096
 101 H     1.0000    0     1.008  -47.829233   -8.617850   20.102302
 102 H     1.0000    0     1.008  -47.547494   -5.278326   19.806787
 103 H     1.0000    0     1.008  -44.784657   -7.152859   20.281845

--------------------------------
INTERNAL COORDINATES (ANGSTROEM)
--------------------------------
 S      0   0   0     0.000000000000     0.00000000     0.00000000
 C      1   0   0     1.773871462141     0.00000000     0.00000000
 S      2   1   0     1.643170427619   122.20143327     0.00000000
 N      2   1   3     1.374044314133   110.79763331   179.67036658
 C      4   2   1     1.464211431386   123.47187067   181.48986346
 C      5   4   2     1.523942581235   112.40757561   262.33524262
 C      4   2   1     1.397596063568   116.75837420     3.43190419
 O      7   4   2     1.213839535565   123.28364472   178.84496121
 C      7   4   2     1.493059737519   110.46206868   359.27651015
 C      9   7   4     1.359821036607   116.80153371   175.28636968
 C     10   9   7     1.438116069585   135.06448128   178.81050671
 C     11  10   9     1.438628040982   126.54560139   353.06970858
 N     12  11  10     1.330620819505   125.71198624     2.16730127
 S     13  12  11     1.640604525289   107.83405275   180.63256623
 N     14  13  12     1.640499397287    98.81078656     0.29432326
 C     15  14  13     1.334173928467   107.90019380   359.89925977
 C     16  15  14     1.447559926393   126.53759167   179.10755882
 C     17  16  15     1.395583046078   115.13852563   178.92201507
 C     11  10   9     1.395270343840   118.29520141   174.94439527
 C     17  16  15     1.445661487105   123.00955569   356.95424772
 C     20  17  16     1.396485795989   129.77328346     3.16802558
 C     21  20  17     1.409386543181   112.41568897   182.79347883
 C     22  21  20     1.388136776438   113.21554237   359.88252827
 S     23  22  21     1.720189790488   112.59302391   359.91164626
 C     23  22  21     1.444280244032   111.29278423   177.47984883
 C     25  23  22     1.425033470975   106.58471660     0.64059438
 C     22  21  20     1.521786687483   136.55831701   180.47355514
 C     27  22  21     1.546718698439   112.33042585   302.16845356
 C     28  27  22     1.526442783664   114.32348297   305.27887510
 C     27  22  21     1.556533790028   107.89523186    65.23247102
 C     30  27  22     1.527146758730   117.17147704   172.73636920
 C     26  25  23     1.388230123322   119.83173859   184.64919139
 C     32  26  25     1.405466591350   118.14148141   359.50478979
 C     33  32  26     1.424998613648   122.01578293     0.13654814
 C     34  33  32     1.388784601801   119.84024067   359.18738783
 C     34  33  32     1.537747572555   110.98402566   180.09167057
 C     36  34  33     1.547951895280   111.19925757   120.10385918
 C     37  36  34     1.526367626000   114.35894618   302.77631065
 C     36  34  33     1.555887391973   112.77442637   245.86026493
 C     39  36  34     1.527526597183   117.59331801   297.91742550
 C     36  34  33     1.523701093850   100.69327925     0.73872430
 C     41  36  34     1.390028870528   110.43776238   358.90023996
 S     42  41  36     1.719339162149   113.23003829   182.22235573
 C     43  42  41     1.771232160672    90.58508921     0.58796262
 C     44  43  42     1.401416111688   110.84279475   359.48142961
 C     44  43  42     1.446374114156   121.93320842   178.16530925
 C     46  44  43     1.441202573235   122.12645416     2.90779774
 N     47  46  44     1.331951619467   125.30712013     0.90326351
 S     48  47  46     1.639104086201   107.51096971   179.96101599
 N     49  48  47     1.641661484168    98.89963967     0.06858605
 C     50  49  48     1.332931690748   107.67552827     0.03720400
 C     51  50  49     1.447173636679   125.87871328   179.62161882
 C     52  51  50     1.397912700171   115.02708809   179.56485744
 C     46  44  43     1.397148633682   123.09097440   183.63451531
 C     52  51  50     1.444003696983   116.55657112   359.08846769
 C     55  52  51     1.367371080139   134.99187687   180.91901283
 S     56  55  52     1.777089962439   119.92783425   179.21649278
 C     57  56  55     1.761287724479    93.08994309   182.58419115
 S     58  57  56     1.644729255957   123.35862821   177.95486577
 N     58  57  56     1.375864921568   109.58527593   358.37363494
 C     60  58  57     1.464873873922   122.23167105   181.61535961
 C     61  60  58     1.522927719788   112.15790693    80.53884661
 C     60  58  57     1.405590929467   117.94272160     1.35353739
 O     63  60  58     1.218133718235   121.72670450   179.04447024
 H      5   4   2     1.098997110915   106.61145691   140.95948687
 H      5   4   2     1.097449105061   106.37096484    24.18689821
 H      6   5   4     1.100167364450   110.75257683   298.25986921
 H      6   5   4     1.101424970618   109.68918716   178.77658264
 H      6   5   4     1.100527111751   110.70640392    59.44055998
 H     10   9   7     1.096423847014   111.26535044   358.89858438
 H     18  17  16     1.092167438857   118.91956924   181.08703253
 H     19  11  10     1.092626839731   118.10900301   357.53621905
 H     21  20  17     1.088106259885   121.36753452     1.74063663
 H     28  27  22     1.101780896231   108.47447447   182.72434024
 H     28  27  22     1.104363588045   108.08783108    68.20191387
 H     29  28  27     1.101278067384   111.11418946   304.62767492
 H     29  28  27     1.100835662985   110.88041172   184.89521270
 H     29  28  27     1.100146599413   111.54610463    64.53791110
 H     30  27  22     1.102242410951   107.68886366    49.34909286
 H     30  27  22     1.103735774450   106.76211534   295.91640718
 H     31  30  27     1.099492344539   111.66064496   293.79820703
 H     31  30  27     1.101773645764   109.92230913   174.84051317
 H     31  30  27     1.101080065436   112.60421742    55.49325340
 H     32  26  25     1.091414132628   121.63725792   178.16965465
 H     35  34  33     1.091128472500   121.70681418   181.24061224
 H     37  36  34     1.104357163331   108.19593752   179.77290134
 H     37  36  34     1.101983201959   108.41112278    65.23949760
 H     38  37  36     1.100025943467   111.45267086   296.56576374
 H     38  37  36     1.101007118823   110.83501690   176.18593945
 H     38  37  36     1.101379218026   111.15619416    56.42198026
 H     39  36  34     1.104063484542   106.62952305   174.91404964
 H     39  36  34     1.102204836906   107.74876901    61.57951833
 H     40  39  36     1.100906807455   112.65238552   305.45501045
 H     40  39  36     1.101691024789   109.81650104   186.15126874
 H     40  39  36     1.099112995374   111.77834323    67.33004246
 H     45  44  43     1.089721597244   122.55334872   180.21944129
 H     53  52  51     1.088623125145   118.11701065   180.20193815
 H     54  46  44     1.090891711812   118.91643986   359.11837617
 H     55  52  51     1.095579628644   111.00410308     0.02936340
 H     61  60  58     1.098596523843   107.10800089   318.71973284
 H     61  60  58     1.097387163220   105.89602220   202.04960530
 H     62  61  60     1.098963625649   110.62977888   298.34722282
 H     62  61  60     1.101060726572   109.86022291   179.14506623
 H     62  61  60     1.100248623994   110.89809350    59.42414597

---------------------------
INTERNAL COORDINATES (A.U.)
---------------------------
 S      0   0   0     0.000000000000     0.00000000     0.00000000
 C      1   0   0     3.352131260226     0.00000000     0.00000000
 S      2   1   0     3.105142099557   122.20143327     0.00000000
 N      2   1   3     2.596567449582   110.79763331   179.67036658
 C      4   2   1     2.766958607475   123.47187067   181.48986346
 C      5   4   2     2.879834122354   112.40757561   262.33524262
 C      4   2   1     2.641073805989   116.75837420     3.43190419
 O      7   4   2     2.293824292744   123.28364472   178.84496121
 C      7   4   2     2.821474005495   110.46206868   359.27651015
 C      9   7   4     2.569689350333   116.80153371   175.28636968
 C     10   9   7     2.717645520308   135.06448128   178.81050671
 C     11  10   9     2.718613006036   126.54560139   353.06970858
 N     12  11  10     2.514508936958   125.71198624     2.16730127
 S     13  12  11     3.100293246869   107.83405275   180.63256623
 N     14  13  12     3.100094583736    98.81078656     0.29432326
 C     15  14  13     2.521223339820   107.90019380   359.89925977
 C     16  15  14     2.735491823323   126.53759167   179.10755882
 C     17  16  15     2.637269754231   115.13852563   178.92201507
 C     11  10   9     2.636678832640   118.29520141   174.94439527
 C     17  16  15     2.731904292987   123.00955569   356.95424772
 C     20  17  16     2.638975704331   129.77328346     3.16802558
 C     21  20  17     2.663354583446   112.41568897   182.79347883
 C     22  21  20     2.623198343892   113.21554237   359.88252827
 S     23  22  21     3.250687602390   112.59302391   359.91164626
 C     23  22  21     2.729294121853   111.29278423   177.47984883
 C     25  23  22     2.692922991815   106.58471660     0.64059438
 C     22  21  20     2.875760073590   136.55831701   180.47355514
 C     27  22  21     2.922874746264   112.33042585   302.16845356
 C     28  27  22     2.884558820225   114.32348297   305.27887510
 C     27  22  21     2.941422581348   107.89523186    65.23247102
 C     30  27  22     2.885889140305   117.17147704   172.73636920
 C     26  25  23     2.623374743939   119.83173859   184.64919139
 C     32  26  25     2.655946948027   118.14148141   359.50478979
 C     33  32  26     2.692857121013   122.01578293     0.13654814
 C     34  33  32     2.624422556411   119.84024067   359.18738783
 C     34  33  32     2.905921775232   110.98402566   180.09167057
 C     36  34  33     2.925205150563   111.19925757   120.10385918
 C     37  36  34     2.884416792823   114.35894618   302.77631065
 C     36  34  33     2.940201066050   112.77442637   245.86026493
 C     39  36  34     2.886606930956   117.59331801   297.91742550
 C     36  34  33     2.879377777333   100.69327925     0.73872430
 C     41  36  34     2.626773883541   110.43776238   358.90023996
 S     42  41  36     3.249080147788   113.23003829   182.22235573
 C     43  42  41     3.347143703264    90.58508921     0.58796262
 C     44  43  42     2.648292650756   110.84279475   359.48142961
 C     44  43  42     2.733250962947   121.93320842   178.16530925
 C     46  44  43     2.723478166917   122.12645416     2.90779774
 N     47  46  44     2.517023784425   125.30712013     0.90326351
 S     48  47  46     3.097457827911   107.51096971   179.96101599
 N     49  48  47     3.102290609684    98.89963967     0.06858605
 C     50  49  48     2.518875850738   107.67552827     0.03720400
 C     51  50  49     2.734761841555   125.87871328   179.62161882
 C     52  51  50     2.641672162454   115.02708809   179.56485744
 C     46  44  43     2.640228286042   123.09097440   183.63451531
 C     52  51  50     2.728771523667   116.55657112   359.08846769
 C     55  52  51     2.583956864906   134.99187687   180.91901283
 S     56  55  52     3.358213344349   119.92783425   179.21649278
 C     57  56  55     3.328351442302    93.08994309   182.58419115
 S     58  57  56     3.108087858206   123.35862821   177.95486577
 N     58  57  56     2.600007899032   109.58527593   358.37363494
 C     60  58  57     2.768210442449   122.23167105   181.61535961
 C     61  60  58     2.877916312157   112.15790693    80.53884661
 C     60  58  57     2.656181913017   117.94272160     1.35353739
 O     63  60  58     2.301939121959   121.72670450   179.04447024
 H      5   4   2     2.076803561600   106.61145691   140.95948687
 H      5   4   2     2.073878254483   106.37096484    24.18689821
 H      6   5   4     2.079015020288   110.75257683   298.25986921
 H      6   5   4     2.081391551530   109.68918716   178.77658264
 H      6   5   4     2.079694844166   110.70640392    59.44055998
 H     10   9   7     2.071940797556   111.26535044   358.89858438
 H     18  17  16     2.063897351826   118.91956924   181.08703253
 H     19  11  10     2.064765493663   118.10900301   357.53621905
 H     21  20  17     2.056222835787   121.36753452     1.74063663
 H     28  27  22     2.082064153463   108.47447447   182.72434024
 H     28  27  22     2.086944733680   108.08783108    68.20191387
 H     29  28  27     2.081113944649   111.11418946   304.62767492
 H     29  28  27     2.080277921496   110.88041172   184.89521270
 H     29  28  27     2.078975780055   111.54610463    64.53791110
 H     30  27  22     2.082936289891   107.68886366    49.34909286
 H     30  27  22     2.085758337921   106.76211534   295.91640718
 H     31  30  27     2.077739417522   111.66064496   293.79820703
 H     31  30  27     2.082050452066   109.92230913   174.84051317
 H     31  30  27     2.080739775194   112.60421742    55.49325340
 H     32  26  25     2.062473809358   121.63725792   178.16965465
 H     35  34  33     2.061933989949   121.70681418   181.24061224
 H     37  36  34     2.086932592729   108.19593752   179.77290134
 H     37  36  34     2.082446455884   108.41112278    65.23949760
 H     38  37  36     2.078747773361   111.45267086   296.56576374
 H     38  37  36     2.080601926074   110.83501690   176.18593945
 H     38  37  36     2.081305091662   111.15619416    56.42198026
 H     39  36  34     2.086377620248   106.62952305   174.91404964
 H     39  36  34     2.082865285237   107.74876901    61.57951833
 H     40  39  36     2.080412365059   112.65238552   305.45501045
 H     40  39  36     2.081894321050   109.81650104   186.15126874
 H     40  39  36     2.077022551491   111.77834323    67.33004246
 H     45  44  43     2.059275381010   122.55334872   180.21944129
 H     53  52  51     2.057199569577   118.11701065   180.20193815
 H     54  46  44     2.061486577089   118.91643986   359.11837617
 H     55  52  51     2.070345456041   111.00410308     0.02936340
 H     61  60  58     2.076046561741   107.10800089   318.71973284
 H     61  60  58     2.073761201367   105.89602220   202.04960530
 H     62  61  60     2.076740283618   110.62977888   298.34722282
 H     62  61  60     2.080703230038   109.86022291   179.14506623
 H     62  61  60     2.079168578572   110.89809350    59.42414597

---------------------
BASIS SET INFORMATION
---------------------
There are 5 groups of distinct atoms

 Group   1 Type S   : 14s9p3d1f contracted to 5s5p2d1f pattern {73211/51111/21/1}
 Group   2 Type C   : 11s6p2d1f contracted to 5s3p2d1f pattern {62111/411/11/1}
 Group   3 Type N   : 11s6p2d1f contracted to 5s3p2d1f pattern {62111/411/11/1}
 Group   4 Type O   : 11s6p2d1f contracted to 5s3p2d1f pattern {62111/411/11/1}
 Group   5 Type H   : 5s1p contracted to 3s1p pattern {311/1}

Atom   0S    basis set group =>   1
Atom   1C    basis set group =>   2
Atom   2S    basis set group =>   1
Atom   3N    basis set group =>   3
Atom   4C    basis set group =>   2
Atom   5C    basis set group =>   2
Atom   6C    basis set group =>   2
Atom   7O    basis set group =>   4
Atom   8C    basis set group =>   2
Atom   9C    basis set group =>   2
Atom  10C    basis set group =>   2
Atom  11C    basis set group =>   2
Atom  12N    basis set group =>   3
Atom  13S    basis set group =>   1
Atom  14N    basis set group =>   3
Atom  15C    basis set group =>   2
Atom  16C    basis set group =>   2
Atom  17C    basis set group =>   2
Atom  18C    basis set group =>   2
Atom  19C    basis set group =>   2
Atom  20C    basis set group =>   2
Atom  21C    basis set group =>   2
Atom  22C    basis set group =>   2
Atom  23S    basis set group =>   1
Atom  24C    basis set group =>   2
Atom  25C    basis set group =>   2
Atom  26C    basis set group =>   2
Atom  27C    basis set group =>   2
Atom  28C    basis set group =>   2
Atom  29C    basis set group =>   2
Atom  30C    basis set group =>   2
Atom  31C    basis set group =>   2
Atom  32C    basis set group =>   2
Atom  33C    basis set group =>   2
Atom  34C    basis set group =>   2
Atom  35C    basis set group =>   2
Atom  36C    basis set group =>   2
Atom  37C    basis set group =>   2
Atom  38C    basis set group =>   2
Atom  39C    basis set group =>   2
Atom  40C    basis set group =>   2
Atom  41C    basis set group =>   2
Atom  42S    basis set group =>   1
Atom  43C    basis set group =>   2
Atom  44C    basis set group =>   2
Atom  45C    basis set group =>   2
Atom  46C    basis set group =>   2
Atom  47N    basis set group =>   3
Atom  48S    basis set group =>   1
Atom  49N    basis set group =>   3
Atom  50C    basis set group =>   2
Atom  51C    basis set group =>   2
Atom  52C    basis set group =>   2
Atom  53C    basis set group =>   2
Atom  54C    basis set group =>   2
Atom  55C    basis set group =>   2
Atom  56S    basis set group =>   1
Atom  57C    basis set group =>   2
Atom  58S    basis set group =>   1
Atom  59N    basis set group =>   3
Atom  60C    basis set group =>   2
Atom  61C    basis set group =>   2
Atom  62C    basis set group =>   2
Atom  63O    basis set group =>   4
Atom  64H    basis set group =>   5
Atom  65H    basis set group =>   5
Atom  66H    basis set group =>   5
Atom  67H    basis set group =>   5
Atom  68H    basis set group =>   5
Atom  69H    basis set group =>   5
Atom  70H    basis set group =>   5
Atom  71H    basis set group =>   5
Atom  72H    basis set group =>   5
Atom  73H    basis set group =>   5
Atom  74H    basis set group =>   5
Atom  75H    basis set group =>   5
Atom  76H    basis set group =>   5
Atom  77H    basis set group =>   5
Atom  78H    basis set group =>   5
Atom  79H    basis set group =>   5
Atom  80H    basis set group =>   5
Atom  81H    basis set group =>   5
Atom  82H    basis set group =>   5
Atom  83H    basis set group =>   5
Atom  84H    basis set group =>   5
Atom  85H    basis set group =>   5
Atom  86H    basis set group =>   5
Atom  87H    basis set group =>   5
Atom  88H    basis set group =>   5
Atom  89H    basis set group =>   5
Atom  90H    basis set group =>   5
Atom  91H    basis set group =>   5
Atom  92H    basis set group =>   5
Atom  93H    basis set group =>   5
Atom  94H    basis set group =>   5
Atom  95H    basis set group =>   5
Atom  96H    basis set group =>   5
Atom  97H    basis set group =>   5
Atom  98H    basis set group =>   5
Atom  99H    basis set group =>   5
Atom 100H    basis set group =>   5
Atom 101H    basis set group =>   5
Atom 102H    basis set group =>   5
Atom 103H    basis set group =>   5
---------------------------------
AUXILIARY/J BASIS SET INFORMATION
---------------------------------
There are 5 groups of distinct atoms

 Group   1 Type S   : 14s5p5d2f1g contracted to 8s4p3d1f1g pattern {71111111/2111/311/2/1}
 Group   2 Type C   : 12s5p4d2f1g contracted to 6s4p3d1f1g pattern {711111/2111/211/2/1}
 Group   3 Type N   : 12s5p4d2f1g contracted to 6s4p3d1f1g pattern {711111/2111/211/2/1}
 Group   4 Type O   : 12s5p4d2f1g contracted to 6s4p3d1f1g pattern {711111/2111/211/2/1}
 Group   5 Type H   : 5s2p1d contracted to 3s1p1d pattern {311/2/1}

Atom   0S    basis set group =>   1
Atom   1C    basis set group =>   2
Atom   2S    basis set group =>   1
Atom   3N    basis set group =>   3
Atom   4C    basis set group =>   2
Atom   5C    basis set group =>   2
Atom   6C    basis set group =>   2
Atom   7O    basis set group =>   4
Atom   8C    basis set group =>   2
Atom   9C    basis set group =>   2
Atom  10C    basis set group =>   2
Atom  11C    basis set group =>   2
Atom  12N    basis set group =>   3
Atom  13S    basis set group =>   1
Atom  14N    basis set group =>   3
Atom  15C    basis set group =>   2
Atom  16C    basis set group =>   2
Atom  17C    basis set group =>   2
Atom  18C    basis set group =>   2
Atom  19C    basis set group =>   2
Atom  20C    basis set group =>   2
Atom  21C    basis set group =>   2
Atom  22C    basis set group =>   2
Atom  23S    basis set group =>   1
Atom  24C    basis set group =>   2
Atom  25C    basis set group =>   2
Atom  26C    basis set group =>   2
Atom  27C    basis set group =>   2
Atom  28C    basis set group =>   2
Atom  29C    basis set group =>   2
Atom  30C    basis set group =>   2
Atom  31C    basis set group =>   2
Atom  32C    basis set group =>   2
Atom  33C    basis set group =>   2
Atom  34C    basis set group =>   2
Atom  35C    basis set group =>   2
Atom  36C    basis set group =>   2
Atom  37C    basis set group =>   2
Atom  38C    basis set group =>   2
Atom  39C    basis set group =>   2
Atom  40C    basis set group =>   2
Atom  41C    basis set group =>   2
Atom  42S    basis set group =>   1
Atom  43C    basis set group =>   2
Atom  44C    basis set group =>   2
Atom  45C    basis set group =>   2
Atom  46C    basis set group =>   2
Atom  47N    basis set group =>   3
Atom  48S    basis set group =>   1
Atom  49N    basis set group =>   3
Atom  50C    basis set group =>   2
Atom  51C    basis set group =>   2
Atom  52C    basis set group =>   2
Atom  53C    basis set group =>   2
Atom  54C    basis set group =>   2
Atom  55C    basis set group =>   2
Atom  56S    basis set group =>   1
Atom  57C    basis set group =>   2
Atom  58S    basis set group =>   1
Atom  59N    basis set group =>   3
Atom  60C    basis set group =>   2
Atom  61C    basis set group =>   2
Atom  62C    basis set group =>   2
Atom  63O    basis set group =>   4
Atom  64H    basis set group =>   5
Atom  65H    basis set group =>   5
Atom  66H    basis set group =>   5
Atom  67H    basis set group =>   5
Atom  68H    basis set group =>   5
Atom  69H    basis set group =>   5
Atom  70H    basis set group =>   5
Atom  71H    basis set group =>   5
Atom  72H    basis set group =>   5
Atom  73H    basis set group =>   5
Atom  74H    basis set group =>   5
Atom  75H    basis set group =>   5
Atom  76H    basis set group =>   5
Atom  77H    basis set group =>   5
Atom  78H    basis set group =>   5
Atom  79H    basis set group =>   5
Atom  80H    basis set group =>   5
Atom  81H    basis set group =>   5
Atom  82H    basis set group =>   5
Atom  83H    basis set group =>   5
Atom  84H    basis set group =>   5
Atom  85H    basis set group =>   5
Atom  86H    basis set group =>   5
Atom  87H    basis set group =>   5
Atom  88H    basis set group =>   5
Atom  89H    basis set group =>   5
Atom  90H    basis set group =>   5
Atom  91H    basis set group =>   5
Atom  92H    basis set group =>   5
Atom  93H    basis set group =>   5
Atom  94H    basis set group =>   5
Atom  95H    basis set group =>   5
Atom  96H    basis set group =>   5
Atom  97H    basis set group =>   5
Atom  98H    basis set group =>   5
Atom  99H    basis set group =>   5
Atom 100H    basis set group =>   5
Atom 101H    basis set group =>   5
Atom 102H    basis set group =>   5
Atom 103H    basis set group =>   5


           ************************************************************
           *        Program running with 6 parallel MPI-processes     *
           *              working on a common directory               *
           ************************************************************
------------------------------------------------------------------------------
                           ORCA GTO INTEGRAL CALCULATION
                           -- RI-GTO INTEGRALS CHOSEN --
------------------------------------------------------------------------------

                         BASIS SET STATISTICS AND STARTUP INFO

Gaussian basis set:
 # of primitive gaussian shells          ... 1576
 # of primitive gaussian functions       ... 3400
 # of contracted shells                  ...  880
 # of contracted basis functions         ... 2272
 Highest angular momentum                ...    3
 Maximum contraction depth               ...    7
Auxiliary gaussian basis set:
 # of primitive gaussian shells          ... 1880
 # of primitive gaussian functions       ... 5176
 # of contracted shells                  ... 1176
 # of contracted aux-basis functions     ... 3592
 Highest angular momentum                ...    4
 Maximum contraction depth               ...    7
Ratio of auxiliary to basis functions    ...  1.58
Integral package used                  ... LIBINT
 One Electron integrals                  ... done
 Ordering auxiliary basis shells         ... done
 Integral threshhold             Thresh  ...  2.500e-11
 Primitive cut-off               TCut    ...  2.500e-12
 Pre-screening matrix                    ... done
 Shell pair data                         ... 
 Ordering of the shell pairs             ... done (   0.027 sec) 124581 of 387640 pairs
 Determination of significant pairs      ... done (   0.001 sec)
 Creation of shell pair data             ... done (   0.013 sec)
 Storage of shell pair data              ... done (   0.032 sec)
 Shell pair data done in (   0.073 sec)
 Computing two index integrals           ... done
 Cholesky decomposition of the V-matrix  ... done


Timings:
 Total evaluation time                   ...   5.742 sec (  0.096 min)
 One electron matrix time                ...   2.019 sec (  0.034 min) = 35.2%
 Schwartz matrix evaluation time         ...   2.887 sec (  0.048 min) = 50.3%
 Two index repulsion integral time       ...   0.300 sec (  0.005 min) =  5.2%
 Cholesky decomposition of V             ...   0.445 sec (  0.007 min) =  7.8%
 Three index repulsion integral time     ...   0.000 sec (  0.000 min) =  0.0%



           ************************************************************
           *        Program running with 6 parallel MPI-processes     *
           *              working on a common directory               *
           ************************************************************
-------------------------------------------------------------------------------
                                 ORCA SCF
-------------------------------------------------------------------------------

------------
SCF SETTINGS
------------
Hamiltonian:
 Density Functional     Method          .... DFT(GTOs)
 Exchange Functional    Exchange        .... B88
   X-Alpha parameter    XAlpha          ....  0.666667
   Becke's b parameter  XBeta           ....  0.004200
 Correlation Functional Correlation     .... LYP
 LDA part of GGA corr.  LDAOpt          .... VWN-5
 Gradients option       PostSCFGGA      .... off
 Hybrid DFT is turned on
   Fraction HF Exchange ScalHFX         ....  0.200000
   Scaling of DF-GGA-X  ScalDFX         ....  0.720000
   Scaling of DF-GGA-C  ScalDFC         ....  0.810000
   Scaling of DF-LDA-C  ScalLDAC        ....  1.000000
   Perturbative correction              ....  0.000000
   Density functional embedding theory  .... OFF
   NL short-range parameter             ....  4.800000
 RI-approximation to the Coulomb term is turned on
   Number of auxiliary basis functions  .... 3592
   RIJ-COSX (HFX calculated with COS-X)).... on


General Settings:
 Integral files         IntName         .... O-IDTBR
 Hartree-Fock type      HFTyp           .... RHF
 Total Charge           Charge          ....    0
 Multiplicity           Mult            ....    1
 Number of Electrons    NEL             ....  514
 Basis Dimension        Dim             .... 2272
 Nuclear Repulsion      ENuc            ....   9885.7820304093 Eh

Convergence Acceleration:
 DIIS                   CNVDIIS         .... on
   Start iteration      DIISMaxIt       ....    12
   Startup error        DIISStart       ....  0.200000
   # of expansion vecs  DIISMaxEq       ....     5
   Bias factor          DIISBfac        ....   1.050
   Max. coefficient     DIISMaxC        ....  10.000
 Newton-Raphson         CNVNR           .... off
 SOSCF                  CNVSOSCF        .... on
   Start iteration      SOSCFMaxIt      ....   150
   Startup grad/error   SOSCFStart      ....  0.003300
 Level Shifting         CNVShift        .... on
   Level shift para.    LevelShift      ....    0.2500
   Turn off err/grad.   ShiftErr        ....    0.0010
 Zerner damping         CNVZerner       .... off
 Static damping         CNVDamp         .... on
   Fraction old density DampFac         ....    0.7000
   Max. Damping (<1)    DampMax         ....    0.9800
   Min. Damping (>=0)   DampMin         ....    0.0000
   Turn off err/grad.   DampErr         ....    0.1000
 Fernandez-Rico         CNVRico         .... off

SCF Procedure:
 Maximum # iterations   MaxIter         ....   125
 SCF integral mode      SCFMode         .... Direct
   Integral package                     .... LIBINT
 Reset frequency        DirectResetFreq ....    20
 Integral Threshold     Thresh          ....  2.500e-11 Eh
 Primitive CutOff       TCut            ....  2.500e-12 Eh

Convergence Tolerance:
 Convergence Check Mode ConvCheckMode   .... Total+1el-Energy
 Convergence forced     ConvForced      .... 1
 Energy Change          TolE            ....  1.000e-08 Eh
 1-El. energy change                    ....  1.000e-05 Eh
 Orbital Gradient       TolG            ....  1.000e-05
 Orbital Rotation angle TolX            ....  1.000e-05
 DIIS Error             TolErr          ....  5.000e-07


Diagonalization of the overlap matrix:
Smallest eigenvalue                        ... 2.868e-06
Time for diagonalization                   ...    0.837 sec
Threshold for overlap eigenvalues          ... 1.000e-08
Number of eigenvalues below threshold      ... 0
Time for construction of square roots      ...    0.571 sec
Total time needed                          ...    1.419 sec

-------------------
DFT GRID GENERATION
-------------------

General Integration Accuracy     IntAcc      ...  4.670
Radial Grid Type                 RadialGrid  ... Gauss-Chebyshev
Angular Grid (max. acc.)         AngularGrid ... Lebedev-302
Angular grid pruning method      GridPruning ... 3 (G Style)
Weight generation scheme         WeightScheme... Becke
Basis function cutoff            BFCut       ...    1.0000e-11
Integration weight cutoff        WCut        ...    1.0000e-14
Grids for H and He will be reduced by one unit

# of grid points (after initial pruning)     ... 538400 (   0.0 sec)
# of grid points (after weights+screening)   ... 460688 (   6.3 sec)
nearest neighbour list constructed           ...    0.0 sec
Grid point re-assignment to atoms done       ...    0.1 sec
Grid point division into batches done        ...    1.5 sec
Reduced shell lists constructed in    3.1 sec

Total number of grid points                  ...   460688
Total number of batches                      ...     7250
Average number of points per batch           ...       63
Average number of grid points per atom       ...     4430
Average number of shells per batch           ...   133.35 (15.15%)
Average number of basis functions per batch  ...   348.78 (15.35%)
Average number of large shells per batch     ...    85.78 (64.33%)
Average number of large basis fcns per batch ...   229.21 (65.72%)
Maximum spatial batch extension              ...  19.60, 17.25, 21.20 au
Average spatial batch extension              ...   0.35,  0.33,  0.37 au

Time for grid setup =   10.114 sec

------------------------------
INITIAL GUESS: MODEL POTENTIAL
------------------------------
Loading Hartree-Fock densities                     ... done
Calculating cut-offs                               ... done
Setting up the integral package                    ... done
Initializing the effective Hamiltonian             ... done
Starting the Coulomb interaction                   ... done (   3.8 sec)
Reading the grid                                   ... done
Mapping shells                                     ... done
Starting the XC term evaluation                    ... done (   3.6 sec)
  promolecular density results
     # of electrons  =    513.980404849
     EX              =   -514.920740380
     EC              =    -18.492504904
     EX+EC           =   -533.413245284
Transforming the Hamiltonian                       ... done (   0.4 sec)
Diagonalizing the Hamiltonian                      ... done (   0.9 sec)
Back transforming the eigenvectors                 ... done (   0.2 sec)
Now organizing SCF variables                       ... done
                      ------------------
                      INITIAL GUESS DONE (  19.3 sec)
                      ------------------
--------------------
COSX GRID GENERATION
--------------------

General Integration Accuracy     IntAcc      ...  3.340
Radial Grid Type                 RadialGrid  ... Gauss-Chebyshev
Angular Grid (max. acc.)         AngularGrid ... Lebedev-50
Angular grid pruning method      GridPruning ... 3 (G Style)
Weight generation scheme         WeightScheme... Becke
Basis function cutoff            BFCut       ...    1.0000e-11
Integration weight cutoff        WCut        ...    1.0000e-14
Grids for H and He will be reduced by one unit

# of grid points (after initial pruning)     ...  50844 (   0.0 sec)
# of grid points (after weights+screening)   ...  45422 (   0.6 sec)
nearest neighbour list constructed           ...    0.0 sec
Grid point re-assignment to atoms done       ...    0.0 sec
Grid point division into batches done        ...    0.0 sec
Reduced shell lists constructed in    0.2 sec

Total number of grid points                  ...    45422
Total number of batches                      ...      761
Average number of points per batch           ...       59
Average number of grid points per atom       ...      437
Average number of shells per batch           ...   155.47 (17.67%)
Average number of basis functions per batch  ...   409.94 (18.04%)
Average number of large shells per batch     ...   101.14 (65.06%)
Average number of large basis fcns per batch ...   273.47 (66.71%)
Maximum spatial batch extension              ...  15.85, 15.97, 27.62 au
Average spatial batch extension              ...   0.71,  0.59,  0.82 au

Overlap Fitting                  UseSFitting ... on
Constructing numerical overlap ... done (      0.3 sec)
Inverting numerical overlap    ... done (      0.2 sec)
Obtaining analytic overlap     ... done (      0.0 sec)
Final contraction and storage  ... done (      0.4 sec)


General Integration Accuracy     IntAcc      ...  3.670
Radial Grid Type                 RadialGrid  ... Gauss-Chebyshev
Angular Grid (max. acc.)         AngularGrid ... Lebedev-50
Angular grid pruning method      GridPruning ... 3 (G Style)
Weight generation scheme         WeightScheme... Becke
Basis function cutoff            BFCut       ...    1.0000e-11
Integration weight cutoff        WCut        ...    1.0000e-14
Grids for H and He will be reduced by one unit

# of grid points (after initial pruning)     ...  63984 (   0.0 sec)
# of grid points (after weights+screening)   ...  56904 (   0.7 sec)
nearest neighbour list constructed           ...    0.0 sec
Grid point re-assignment to atoms done       ...    0.0 sec
Grid point division into batches done        ...    0.0 sec
Reduced shell lists constructed in    0.3 sec

Total number of grid points                  ...    56904
Total number of batches                      ...      938
Average number of points per batch           ...       60
Average number of grid points per atom       ...      547
Average number of shells per batch           ...   153.96 (17.50%)
Average number of basis functions per batch  ...   406.18 (17.88%)
Average number of large shells per batch     ...   100.16 (65.06%)
Average number of large basis fcns per batch ...   270.77 (66.66%)
Maximum spatial batch extension              ...  16.36, 16.97, 33.45 au
Average spatial batch extension              ...   0.69,  0.58,  0.80 au

Overlap Fitting                  UseSFitting ... on
Constructing numerical overlap ... done (      0.3 sec)
Inverting numerical overlap    ... done (      0.2 sec)
Obtaining analytic overlap     ... done (      0.0 sec)
Final contraction and storage  ... done (      0.4 sec)


General Integration Accuracy     IntAcc      ...  4.010
Radial Grid Type                 RadialGrid  ... Gauss-Chebyshev
Angular Grid (max. acc.)         AngularGrid ... Lebedev-110
Angular grid pruning method      GridPruning ... 3 (G Style)
Weight generation scheme         WeightScheme... Becke
Basis function cutoff            BFCut       ...    1.0000e-11
Integration weight cutoff        WCut        ...    1.0000e-14
Grids for H and He will be reduced by one unit

# of grid points (after initial pruning)     ... 121892 (   0.0 sec)
# of grid points (after weights+screening)   ... 107462 (   1.5 sec)
nearest neighbour list constructed           ...    0.0 sec
Grid point re-assignment to atoms done       ...    0.0 sec
Grid point division into batches done        ...    0.1 sec
Reduced shell lists constructed in    0.5 sec

Total number of grid points                  ...   107462
Total number of batches                      ...     1731
Average number of points per batch           ...       62
Average number of grid points per atom       ...     1033
Average number of shells per batch           ...   146.97 (16.70%)
Average number of basis functions per batch  ...   387.00 (17.03%)
Average number of large shells per batch     ...    95.30 (64.85%)
Average number of large basis fcns per batch ...   256.68 (66.33%)
Maximum spatial batch extension              ...  18.23, 17.87, 22.00 au
Average spatial batch extension              ...   0.58,  0.52,  0.65 au

Overlap Fitting                  UseSFitting ... on
Constructing numerical overlap ... done (      0.5 sec)
Inverting numerical overlap    ... done (      0.2 sec)
Obtaining analytic overlap     ... done (      0.0 sec)
Final contraction and storage  ... done (      0.4 sec)

Time for X-Grid setup             =    7.166 sec
--------------
SCF ITERATIONS
--------------
ITER       Energy         Delta-E        Max-DP      RMS-DP      [F,P]     Damp
               ***  Starting incremental Fock matrix formation  ***
  0  -5515.0456264710   0.000000000000 0.21630329  0.00062999  0.3000432 0.7000
  1  -5515.9414257827  -0.895799311773 0.16554827  0.00050120  0.1072334 0.7000
                               ***Turning on DIIS***
  2  -5516.2505982452  -0.309172462417 0.17434626  0.00091491  0.0353926 0.0000
  3  -5516.7237718794  -0.473173634251 0.13572945  0.00041172  0.0631916 0.0000
  4  -5516.8664329826  -0.142661103224 0.03287930  0.00017099  0.0209290 0.0000
  5  -5516.8754014794  -0.008968496813 0.02085678  0.00007990  0.0154757 0.0000
                      *** Initiating the SOSCF procedure ***
                           *** Shutting down DIIS ***
                      *** Re-Reading the Fockian *** 
                      *** Removing any level shift *** 
ITER      Energy       Delta-E        Grad      Rot      Max-DP    RMS-DP
  6  -5516.87667644  -0.0012749608  0.000692  0.000692  0.006425  0.000031
               *** Restarting incremental Fock matrix formation ***
  7  -5516.87682370  -0.0001472560  0.000532  0.007069  0.008315  0.000064
  8  -5516.87679545   0.0000282504  0.000542  0.001664  0.002323  0.000019
  9  -5516.87686478  -0.0000693354  0.000182  0.000828  0.002479  0.000019
 10  -5516.87685652   0.0000082654  0.000301  0.000499  0.000851  0.000004
 11  -5516.87686888  -0.0000123676  0.000072  0.000936  0.000950  0.000006
 12  -5516.87686668   0.0000022037  0.000116  0.000399  0.000533  0.000002
 13  -5516.87686954  -0.0000028607  0.000018  0.000310  0.001139  0.000002
 14  -5516.87686935   0.0000001883  0.000040  0.000208  0.000783  0.000001
 15  -5516.87686963  -0.0000002807  0.000005  0.000034  0.000514  0.000001
 16  -5516.87686953   0.0000001004  0.000009  0.000016  0.000165  0.000001
                  ***Gradient check signals convergence***
              ***Rediagonalizing the Fockian in SOSCF/NRSCF***

               *****************************************************
               *                     SUCCESS                       *
               *           SCF CONVERGED AFTER  17 CYCLES          *
               *****************************************************

Setting up the final grid:

General Integration Accuracy     IntAcc      ...  5.010
Radial Grid Type                 RadialGrid  ... Gauss-Chebyshev
Angular Grid (max. acc.)         AngularGrid ... Lebedev-434
Angular grid pruning method      GridPruning ... 3 (G Style)
Weight generation scheme         WeightScheme... Becke
Basis function cutoff            BFCut       ...    1.0000e-11
Integration weight cutoff        WCut        ...    1.0000e-14
Grids for H and He will be reduced by one unit

# of grid points (after initial pruning)     ... 960328 (   0.1 sec)
# of grid points (after weights+screening)   ... 819045 (  23.5 sec)
nearest neighbour list constructed           ...    0.0 sec
Grid point re-assignment to atoms done       ...    0.2 sec
Grid point division into batches done        ...   10.5 sec
Reduced shell lists constructed in   16.7 sec

Total number of grid points                  ...   819045
Total number of batches                      ...    12845
Average number of points per batch           ...       63
Average number of grid points per atom       ...     7875
Average number of shells per batch           ...   130.72 (14.85%)
Average number of basis functions per batch  ...   341.13 (15.01%)
Average number of large shells per batch     ...    83.77 (64.08%)
Average number of large basis fcns per batch ...   223.72 (65.58%)
Maximum spatial batch extension              ...  18.33, 20.24, 20.47 au
Average spatial batch extension              ...   0.28,  0.27,  0.30 au

Final grid set up in   45.2 sec
Final integration                            ... done (  19.2 sec)
Change in XC energy                          ...    -0.000146358
Integrated number of electrons               ...   513.999869941
Previous integrated no of electrons          ...   513.999923898
Old exchange energy                            =   -103.896963680 Eh
New exchange energy                            =   -103.899434171 Eh
Exchange energy change after final integration =     -0.002470491 Eh
Total energy after final integration           =  -5516.879486479 Eh
Final COS-X integration done in                =   458.639 sec

----------------
TOTAL SCF ENERGY
----------------

Total Energy       :        -5516.87948648 Eh         -150121.92288 eV

Components:
Nuclear Repulsion  :         9885.78203041 Eh          269005.80504 eV
Electronic Energy  :       -15402.66151689 Eh         -419127.72792 eV
One Electron Energy:       -27263.01908937 Eh         -741864.46508 eV
Two Electron Energy:        11860.35757248 Eh          322736.73717 eV

Virial components:
Potential Energy   :       -11017.10123126 Eh         -299790.56556 eV
Kinetic Energy     :         5500.22174479 Eh          149668.64268 eV
Virial Ratio       :            2.00302856


DFT components:
N(Alpha)           :      256.999934970477 electrons
N(Beta)            :      256.999934970477 electrons
N(Total)           :      513.999869940955 electrons
E(X)               :     -412.833097831627 Eh       
E(C)               :      -21.699595948771 Eh       
E(XC)              :     -434.532693780399 Eh       
DFET-embed. en.    :        0.000000000000 Eh       

---------------
SCF CONVERGENCE
---------------

  Last Energy change         ...   -9.7489e-08  Tolerance :   1.0000e-08
  Last MAX-Density change    ...    4.8850e-15  Tolerance :   1.0000e-07
  Last RMS-Density change    ...    1.3584e-17  Tolerance :   5.0000e-09
  Last Orbital Gradient      ...    1.6938e-06  Tolerance :   1.0000e-05
  Last Orbital Rotation      ...    1.0950e-05  Tolerance :   1.0000e-05

             **** THE GBW FILE WAS UPDATED (O-IDTBR.gbw) ****
             **** DENSITY FILE WAS UPDATED (O-IDTBR.scfp) ****
             **** ENERGY FILE WAS UPDATED (O-IDTBR.en.tmp) ****
             **** THE GBW FILE WAS UPDATED (O-IDTBR.gbw) ****
             **** DENSITY FILE WAS UPDATED (O-IDTBR.scfp) ****
----------------
ORBITAL ENERGIES
----------------

  NO   OCC          E(Eh)            E(eV) 
   0   2.0000     -88.958299     -2420.6784 
   1   2.0000     -88.955755     -2420.6092 
   2   2.0000     -88.899648     -2419.0824 
   3   2.0000     -88.897091     -2419.0128 
   4   2.0000     -88.896918     -2419.0081 
   5   2.0000     -88.892644     -2418.8918 
   6   2.0000     -88.825779     -2417.0723 
   7   2.0000     -88.822592     -2416.9856 
   8   2.0000     -19.127169      -520.4767 
   9   2.0000     -19.118070      -520.2291 
  10   2.0000     -14.390560      -391.5870 
  11   2.0000     -14.385008      -391.4360 
  12   2.0000     -14.366465      -390.9314 
  13   2.0000     -14.365976      -390.9181 
  14   2.0000     -14.364000      -390.8643 
  15   2.0000     -14.362163      -390.8143 
  16   2.0000     -10.306898      -280.4650 
  17   2.0000     -10.296212      -280.1742 
  18   2.0000     -10.294796      -280.1356 
  19   2.0000     -10.287768      -279.9444 
  20   2.0000     -10.249478      -278.9025 
  21   2.0000     -10.248263      -278.8694 
  22   2.0000     -10.244097      -278.7560 
  23   2.0000     -10.243701      -278.7453 
  24   2.0000     -10.235762      -278.5292 
  25   2.0000     -10.229478      -278.3582 
  26   2.0000     -10.229180      -278.3502 
  27   2.0000     -10.228497      -278.3316 
  28   2.0000     -10.228119      -278.3213 
  29   2.0000     -10.226655      -278.2814 
  30   2.0000     -10.218774      -278.0670 
  31   2.0000     -10.218579      -278.0617 
  32   2.0000     -10.218472      -278.0588 
  33   2.0000     -10.217318      -278.0274 
  34   2.0000     -10.215272      -277.9717 
  35   2.0000     -10.214871      -277.9608 
  36   2.0000     -10.213274      -277.9173 
  37   2.0000     -10.211857      -277.8788 
  38   2.0000     -10.210533      -277.8427 
  39   2.0000     -10.209541      -277.8157 
  40   2.0000     -10.209404      -277.8120 
  41   2.0000     -10.206516      -277.7334 
  42   2.0000     -10.205768      -277.7131 
  43   2.0000     -10.205513      -277.7061 
  44   2.0000     -10.202750      -277.6309 
  45   2.0000     -10.200254      -277.5630 
  46   2.0000     -10.199471      -277.5417 
  47   2.0000     -10.199322      -277.5377 
  48   2.0000     -10.199278      -277.5365 
  49   2.0000     -10.196276      -277.4548 
  50   2.0000     -10.195800      -277.4418 
  51   2.0000     -10.195091      -277.4225 
  52   2.0000     -10.192675      -277.3568 
  53   2.0000     -10.192455      -277.3508 
  54   2.0000     -10.187111      -277.2054 
  55   2.0000     -10.185682      -277.1665 
  56   2.0000     -10.185559      -277.1632 
  57   2.0000     -10.184171      -277.1254 
  58   2.0000     -10.173298      -276.8295 
  59   2.0000     -10.171515      -276.7810 
  60   2.0000     -10.171227      -276.7732 
  61   2.0000     -10.168395      -276.6961 
  62   2.0000     -10.167372      -276.6683 
  63   2.0000     -10.166353      -276.6405 
  64   2.0000      -8.028665      -218.4711 
  65   2.0000      -8.026081      -218.4008 
  66   2.0000      -7.975781      -217.0320 
  67   2.0000      -7.973361      -216.9662 
  68   2.0000      -7.972314      -216.9377 
  69   2.0000      -7.968074      -216.8223 
  70   2.0000      -7.903871      -215.0753 
  71   2.0000      -7.900710      -214.9893 
  72   2.0000      -5.993207      -163.0834 
  73   2.0000      -5.990566      -163.0116 
  74   2.0000      -5.986071      -162.8893 
  75   2.0000      -5.985605      -162.8766 
  76   2.0000      -5.983556      -162.8208 
  77   2.0000      -5.983023      -162.8063 
  78   2.0000      -5.938204      -161.5867 
  79   2.0000      -5.936394      -161.5375 
  80   2.0000      -5.934846      -161.4954 
  81   2.0000      -5.934598      -161.4886 
  82   2.0000      -5.932482      -161.4311 
  83   2.0000      -5.932462      -161.4305 
  84   2.0000      -5.931237      -161.3972 
  85   2.0000      -5.930969      -161.3899 
  86   2.0000      -5.929076      -161.3384 
  87   2.0000      -5.928824      -161.3315 
  88   2.0000      -5.927115      -161.2850 
  89   2.0000      -5.923501      -161.1866 
  90   2.0000      -5.866433      -159.6338 
  91   2.0000      -5.863727      -159.5601 
  92   2.0000      -5.863160      -159.5447 
  93   2.0000      -5.860647      -159.4763 
  94   2.0000      -5.858788      -159.4257 
  95   2.0000      -5.855657      -159.3405 
  96   2.0000      -1.076122       -29.2828 
  97   2.0000      -1.068686       -29.0804 
  98   2.0000      -1.032407       -28.0932 
  99   2.0000      -1.030323       -28.0365 
 100   2.0000      -0.992954       -27.0197 
 101   2.0000      -0.987712       -26.8770 
 102   2.0000      -0.924017       -25.1438 
 103   2.0000      -0.916263       -24.9328 
 104   2.0000      -0.909367       -24.7451 
 105   2.0000      -0.906585       -24.6694 
 106   2.0000      -0.888193       -24.1690 
 107   2.0000      -0.882370       -24.0105 
 108   2.0000      -0.868501       -23.6331 
 109   2.0000      -0.857043       -23.3213 
 110   2.0000      -0.851270       -23.1642 
 111   2.0000      -0.847136       -23.0518 
 112   2.0000      -0.826179       -22.4815 
 113   2.0000      -0.813862       -22.1463 
 114   2.0000      -0.810687       -22.0599 
 115   2.0000      -0.799672       -21.7602 
 116   2.0000      -0.787122       -21.4187 
 117   2.0000      -0.780576       -21.2405 
 118   2.0000      -0.779833       -21.2203 
 119   2.0000      -0.775242       -21.0954 
 120   2.0000      -0.767979       -20.8978 
 121   2.0000      -0.764481       -20.8026 
 122   2.0000      -0.763216       -20.7682 
 123   2.0000      -0.762366       -20.7450 
 124   2.0000      -0.761284       -20.7156 
 125   2.0000      -0.754878       -20.5413 
 126   2.0000      -0.750602       -20.4249 
 127   2.0000      -0.748896       -20.3785 
 128   2.0000      -0.731911       -19.9163 
 129   2.0000      -0.722646       -19.6642 
 130   2.0000      -0.696683       -18.9577 
 131   2.0000      -0.694341       -18.8940 
 132   2.0000      -0.683754       -18.6059 
 133   2.0000      -0.677964       -18.4483 
 134   2.0000      -0.669130       -18.2080 
 135   2.0000      -0.662322       -18.0227 
 136   2.0000      -0.659433       -17.9441 
 137   2.0000      -0.649310       -17.6686 
 138   2.0000      -0.644370       -17.5342 
 139   2.0000      -0.638314       -17.3694 
 140   2.0000      -0.634611       -17.2686 
 141   2.0000      -0.633227       -17.2310 
 142   2.0000      -0.627561       -17.0768 
 143   2.0000      -0.626441       -17.0463 
 144   2.0000      -0.624077       -16.9820 
 145   2.0000      -0.621873       -16.9220 
 146   2.0000      -0.611444       -16.6382 
 147   2.0000      -0.595076       -16.1928 
 148   2.0000      -0.587291       -15.9810 
 149   2.0000      -0.582476       -15.8500 
 150   2.0000      -0.569849       -15.5064 
 151   2.0000      -0.560995       -15.2654 
 152   2.0000      -0.558700       -15.2030 
 153   2.0000      -0.553125       -15.0513 
 154   2.0000      -0.546784       -14.8787 
 155   2.0000      -0.537577       -14.6282 
 156   2.0000      -0.533300       -14.5118 
 157   2.0000      -0.525500       -14.2996 
 158   2.0000      -0.519629       -14.1398 
 159   2.0000      -0.517059       -14.0699 
 160   2.0000      -0.512540       -13.9469 
 161   2.0000      -0.506584       -13.7849 
 162   2.0000      -0.499388       -13.5890 
 163   2.0000      -0.498371       -13.5614 
 164   2.0000      -0.495266       -13.4769 
 165   2.0000      -0.489434       -13.3182 
 166   2.0000      -0.483125       -13.1465 
 167   2.0000      -0.482537       -13.1305 
 168   2.0000      -0.480689       -13.0802 
 169   2.0000      -0.474665       -12.9163 
 170   2.0000      -0.473707       -12.8902 
 171   2.0000      -0.471622       -12.8335 
 172   2.0000      -0.470597       -12.8056 
 173   2.0000      -0.469498       -12.7757 
 174   2.0000      -0.467977       -12.7343 
 175   2.0000      -0.465755       -12.6738 
 176   2.0000      -0.462843       -12.5946 
 177   2.0000      -0.459562       -12.5053 
 178   2.0000      -0.455862       -12.4046 
 179   2.0000      -0.455281       -12.3888 
 180   2.0000      -0.454265       -12.3612 
 181   2.0000      -0.450238       -12.2516 
 182   2.0000      -0.444306       -12.0902 
 183   2.0000      -0.440318       -11.9817 
 184   2.0000      -0.436367       -11.8742 
 185   2.0000      -0.433560       -11.7978 
 186   2.0000      -0.430073       -11.7029 
 187   2.0000      -0.426405       -11.6031 
 188   2.0000      -0.425213       -11.5706 
 189   2.0000      -0.417376       -11.3574 
 190   2.0000      -0.414441       -11.2775 
 191   2.0000      -0.412006       -11.2113 
 192   2.0000      -0.411250       -11.1907 
 193   2.0000      -0.409293       -11.1374 
 194   2.0000      -0.405685       -11.0392 
 195   2.0000      -0.405316       -11.0292 
 196   2.0000      -0.403652       -10.9839 
 197   2.0000      -0.403251       -10.9730 
 198   2.0000      -0.400346       -10.8940 
 199   2.0000      -0.398539       -10.8448 
 200   2.0000      -0.397103       -10.8057 
 201   2.0000      -0.394047       -10.7226 
 202   2.0000      -0.392481       -10.6799 
 203   2.0000      -0.390848       -10.6355 
 204   2.0000      -0.390341       -10.6217 
 205   2.0000      -0.388261       -10.5651 
 206   2.0000      -0.387208       -10.5365 
 207   2.0000      -0.385863       -10.4999 
 208   2.0000      -0.382096       -10.3974 
 209   2.0000      -0.380390       -10.3509 
 210   2.0000      -0.379549       -10.3281 
 211   2.0000      -0.378307       -10.2943 
 212   2.0000      -0.376447       -10.2436 
 213   2.0000      -0.374416       -10.1884 
 214   2.0000      -0.373725       -10.1696 
 215   2.0000      -0.372031       -10.1235 
 216   2.0000      -0.371575       -10.1111 
 217   2.0000      -0.370290       -10.0761 
 218   2.0000      -0.366796        -9.9810 
 219   2.0000      -0.365974        -9.9587 
 220   2.0000      -0.363276        -9.8853 
 221   2.0000      -0.362978        -9.8771 
 222   2.0000      -0.357306        -9.7228 
 223   2.0000      -0.355722        -9.6797 
 224   2.0000      -0.355092        -9.6625 
 225   2.0000      -0.353456        -9.6180 
 226   2.0000      -0.352214        -9.5842 
 227   2.0000      -0.342183        -9.3113 
 228   2.0000      -0.341856        -9.3024 
 229   2.0000      -0.338575        -9.2131 
 230   2.0000      -0.336386        -9.1535 
 231   2.0000      -0.335554        -9.1309 
 232   2.0000      -0.332010        -9.0344 
 233   2.0000      -0.329247        -8.9593 
 234   2.0000      -0.328367        -8.9353 
 235   2.0000      -0.324456        -8.8289 
 236   2.0000      -0.323392        -8.8000 
 237   2.0000      -0.313511        -8.5311 
 238   2.0000      -0.312515        -8.5040 
 239   2.0000      -0.308867        -8.4047 
 240   2.0000      -0.291734        -7.9385 
 241   2.0000      -0.290855        -7.9146 
 242   2.0000      -0.288262        -7.8440 
 243   2.0000      -0.284724        -7.7477 
 244   2.0000      -0.280621        -7.6361 
 245   2.0000      -0.278764        -7.5855 
 246   2.0000      -0.269870        -7.3435 
 247   2.0000      -0.269202        -7.3254 
 248   2.0000      -0.265034        -7.2119 
 249   2.0000      -0.263973        -7.1831 
 250   2.0000      -0.260394        -7.0857 
[...]
   243a -> 258a  :     0.032644 (c= -0.18067610)
   243a -> 260a  :     0.014808 (c= -0.12168670)
   245a -> 258a  :     0.012156 (c=  0.11025513)
   250a -> 260a  :     0.010896 (c=  0.10438353)
   251a -> 259a  :     0.021314 (c= -0.14599210)
   252a -> 260a  :     0.086776 (c= -0.29457759)
   252a -> 261a  :     0.014866 (c=  0.12192742)
   255a -> 261a  :     0.015052 (c=  0.12268474)
   255a -> 266a  :     0.019085 (c=  0.13814872)
   255a -> 267a  :     0.010953 (c=  0.10465809)
   256a -> 262a  :     0.026781 (c= -0.16364795)
   256a -> 264a  :     0.018225 (c= -0.13500181)
   256a -> 265a  :     0.149389 (c=  0.38650823)
   256a -> 266a  :     0.038521 (c= -0.19626688)
   256a -> 267a  :     0.021008 (c= -0.14494027)
   256a -> 269a  :     0.014164 (c= -0.11901250)

STATE 44:  E=   0.147974 au      4.027 eV    32476.6 cm**-1
   240a -> 257a  :     0.170775 (c= -0.41324982)
   241a -> 257a  :     0.035571 (c= -0.18860387)
   244a -> 258a  :     0.099279 (c=  0.31508591)
   245a -> 258a  :     0.399987 (c= -0.63244489)
   247a -> 257a  :     0.022852 (c=  0.15116812)
   247a -> 258a  :     0.012142 (c= -0.11018872)
   256a -> 265a  :     0.134847 (c=  0.36721571)

STATE 45:  E=   0.149376 au      4.065 eV    32784.2 cm**-1
   252a -> 259a  :     0.025605 (c=  0.16001516)
   252a -> 260a  :     0.012179 (c=  0.11035626)
   252a -> 261a  :     0.052660 (c=  0.22947714)
   252a -> 262a  :     0.043065 (c= -0.20752010)
   252a -> 263a  :     0.042034 (c= -0.20502200)
   253a -> 259a  :     0.069823 (c=  0.26424004)
   253a -> 260a  :     0.073718 (c=  0.27151094)
   253a -> 261a  :     0.337251 (c=  0.58073312)
   253a -> 262a  :     0.144560 (c= -0.38021054)
   253a -> 263a  :     0.151152 (c= -0.38878280)
   253a -> 264a  :     0.011042 (c= -0.10508109)

STATE 46:  E=   0.151272 au      4.116 eV    33200.3 cm**-1
   243a -> 257a  :     0.073259 (c= -0.27066453)
   244a -> 257a  :     0.026713 (c=  0.16344092)
   244a -> 258a  :     0.102041 (c= -0.31943796)
   245a -> 258a  :     0.015362 (c=  0.12394424)
   251a -> 259a  :     0.238264 (c= -0.48812336)
   252a -> 260a  :     0.023472 (c=  0.15320521)
   252a -> 261a  :     0.253241 (c=  0.50323043)
   253a -> 261a  :     0.056684 (c= -0.23808494)
   256a -> 265a  :     0.055294 (c=  0.23514662)
   256a -> 266a  :     0.012232 (c=  0.11060023)

STATE 47:  E=   0.152432 au      4.148 eV    33455.0 cm**-1
   244a -> 257a  :     0.073792 (c= -0.27164599)
   244a -> 258a  :     0.339278 (c=  0.58247544)
   245a -> 257a  :     0.010794 (c= -0.10389255)
   245a -> 258a  :     0.047467 (c=  0.21786954)
   251a -> 259a  :     0.307430 (c= -0.55446334)
   255a -> 262a  :     0.071562 (c= -0.26750985)
   256a -> 265a  :     0.038420 (c= -0.19601113)

STATE 48:  E=   0.152748 au      4.156 eV    33524.3 cm**-1
   240a -> 257a  :     0.101105 (c= -0.31797041)
   241a -> 257a  :     0.029707 (c= -0.17235674)
   242a -> 257a  :     0.015182 (c= -0.12321488)
   243a -> 257a  :     0.064154 (c= -0.25328712)
   243a -> 258a  :     0.013532 (c= -0.11632742)
   244a -> 258a  :     0.043967 (c=  0.20968264)
   245a -> 258a  :     0.352940 (c=  0.59408785)
   251a -> 259a  :     0.109406 (c=  0.33076576)
   251a -> 261a  :     0.016086 (c=  0.12682924)
   256a -> 264a  :     0.025987 (c= -0.16120452)
   256a -> 265a  :     0.125709 (c=  0.35455442)

STATE 49:  E=   0.153180 au      4.168 eV    33619.2 cm**-1
   239a -> 257a  :     0.585566 (c=  0.76522294)
   239a -> 258a  :     0.280239 (c=  0.52937587)
   239a -> 259a  :     0.045686 (c= -0.21374277)
   241a -> 259a  :     0.017555 (c=  0.13249535)

STATE 50:  E=   0.153464 au      4.176 eV    33681.4 cm**-1
   240a -> 257a  :     0.020650 (c= -0.14370183)
   243a -> 257a  :     0.038444 (c= -0.19607073)
   243a -> 258a  :     0.011427 (c= -0.10689947)
   244a -> 258a  :     0.132414 (c= -0.36388795)
   251a -> 259a  :     0.068672 (c= -0.26205404)
   251a -> 260a  :     0.051575 (c=  0.22710125)
   252a -> 261a  :     0.217323 (c= -0.46617886)
   253a -> 261a  :     0.099847 (c=  0.31598515)
   255a -> 262a  :     0.158207 (c= -0.39775205)
   256a -> 263a  :     0.057130 (c=  0.23901883)
   256a -> 265a  :     0.031640 (c=  0.17787605)


-----------------------------
TD-DFT/TDA-EXCITATION SPECTRA
-----------------------------

Center of mass = (-20.2526, -7.4414,  7.3952)
Calculating the Dipole integrals                  ... done
Transforming integrals                            ... done
Calculating the Linear Momentum integrals         ... done
Transforming integrals                            ... done
Calculating angular momentum integrals            ... done
Transforming integrals                            ... done

-----------------------------------------------------------------------------
         ABSORPTION SPECTRUM VIA TRANSITION ELECTRIC DIPOLE MOMENTS
-----------------------------------------------------------------------------
State   Energy    Wavelength  fosc         T2        TX        TY        TZ  
        (cm-1)      (nm)                 (au**2)    (au)      (au)      (au) 
-----------------------------------------------------------------------------
   1   13640.9    733.1   2.959059797  71.41468   7.71915   1.85961  -2.89330
   2   15368.0    650.7   0.004318486   0.09251  -0.21250  -0.02038  -0.21665
   3   18527.7    539.7   0.008099119   0.14391  -0.31925   0.04158  -0.20065
   4   18668.6    535.7   0.018569875   0.32747  -0.50335   0.03024  -0.27054
   5   19338.3    517.1   0.088512499   1.50682  -1.11527  -0.28700   0.42499
   6   19374.6    516.1   0.108470868   1.84313   1.24240   0.33070  -0.43614
   7   20902.1    478.4   0.143888710   2.26628   1.41442   0.24842  -0.45165
   8   21998.8    454.6   0.833739516  12.47693   3.34955   0.31067  -1.07748
   9   22068.3    453.1   0.008416787   0.12556  -0.31845  -0.06645   0.14049
  10   22468.8    445.1   0.418890164   6.13756  -2.08593  -0.65592   1.16457
  11   23140.8    432.1   0.003564143   0.05071  -0.10174  -0.14212   0.14197
  12   23487.1    425.8   0.025682889   0.35999   0.18641   0.42908  -0.37567
  13   24496.8    408.2   0.000592069   0.00796  -0.04653   0.06034  -0.04638
  14   25332.5    394.7   0.214540631   2.78809  -1.57344  -0.23477   0.50720
  15   25798.0    387.6   0.000332587   0.00424   0.06194  -0.00746  -0.01875
  16   26191.2    381.8   0.001508099   0.01896  -0.06915   0.00150   0.11905
  17   26289.0    380.4   0.005129241   0.06423   0.17992  -0.17382   0.04062
  18   26414.5    378.6   0.022294786   0.27787  -0.40009   0.29570  -0.17424
  19   27038.1    369.8   0.004551588   0.05542  -0.14455  -0.17307   0.06762
  20   27149.1    368.3   0.021952931   0.26620  -0.37572   0.29983   0.18745
  21   27446.0    364.4   0.043116037   0.51717   0.60772  -0.22611  -0.31100
  22   27559.3    362.9   0.072546612   0.86661   0.81174   0.17676  -0.42006
  23   28207.1    354.5   0.012261286   0.14310   0.33171   0.05951  -0.17185
  24   28440.0    351.6   0.008312457   0.09622  -0.20783   0.19652   0.12003
  25   28984.9    345.0   0.008120490   0.09223  -0.22053  -0.15554   0.13930
  26   29088.0    343.8   0.000087442   0.00099   0.00407  -0.02306   0.02101
  27   29399.6    340.1   0.003401081   0.03808   0.17248  -0.08015  -0.04371
  28   29607.4    337.8   0.006894927   0.07667  -0.20240  -0.18596   0.03344
  29   29666.8    337.1   0.043107742   0.47837  -0.65843  -0.19617   0.07974
  30   30036.9    332.9   0.000673883   0.00739  -0.08447   0.01164  -0.01076
  31   30141.4    331.8   0.001573305   0.01718   0.00859  -0.12327  -0.04375
  32   30268.4    330.4   0.000526018   0.00572   0.02742  -0.06815  -0.01801
  33   30419.2    328.7   0.022747535   0.24619   0.17032  -0.44627  -0.13423
  34   30439.4    328.5   0.037112726   0.40139  -0.48525   0.32305   0.24812
  35   30666.4    326.1   0.002272210   0.02439   0.09855   0.11856  -0.02495
  36   31058.0    322.0   0.014475716   0.15344  -0.05114   0.37158   0.11292
  37   31215.4    320.4   0.011643499   0.12280   0.18430   0.29095  -0.06465
  38   31295.4    319.5   0.000044135   0.00046  -0.01957   0.00825  -0.00365
  39   31397.1    318.5   0.031838359   0.33384  -0.29576   0.43626   0.23674
  40   31537.9    317.1   0.000486353   0.00508   0.04007   0.05304   0.02565
  41   32076.9    311.8   0.004497711   0.04616   0.01339  -0.20946  -0.04591
  42   32164.9    310.9   0.009222056   0.09439  -0.08181  -0.29331   0.04084
  43   32355.7    309.1   0.021279056   0.21651   0.14453  -0.40546  -0.17670
  44   32476.6    307.9   0.010101884   0.10240  -0.26454   0.14630   0.10495
  45   32784.2    305.0   0.000248073   0.00249   0.02042  -0.04525  -0.00513
  46   33200.3    301.2   0.017832875   0.17683  -0.35841   0.06036   0.21149
  47   33455.0    298.9   0.008471572   0.08336   0.17997   0.22077  -0.04729
  48   33524.3    298.3   0.013906158   0.13656  -0.21853   0.26092   0.14396
  49   33619.2    297.4   0.000464733   0.00455  -0.06703  -0.00485   0.00583
  50   33681.4    296.9   0.020998500   0.20525   0.40986  -0.06947  -0.18010

-----------------------------------------------------------------------------
         ABSORPTION SPECTRUM VIA TRANSITION VELOCITY DIPOLE MOMENTS
-----------------------------------------------------------------------------
State   Energy    Wavelength   fosc        P2         PX        PY        PZ  
        (cm-1)      (nm)                 (au**2)     (au)      (au)      (au) 
-----------------------------------------------------------------------------
   1   13640.9    733.1   0.674759996   0.06291  -0.23121  -0.03580   0.09037
   2   15368.0    650.7   0.001185972   0.00012   0.00245  -0.00612  -0.00901
   3   18527.7    539.7   0.004147959   0.00053   0.01053  -0.01788  -0.00973
   4   18668.6    535.7   0.009187506   0.00117   0.01093  -0.02594  -0.01949
   5   19338.3    517.1   0.013411646   0.00177   0.03762   0.01092  -0.01542
   6   19374.6    516.1   0.023119033   0.00306  -0.05257  -0.01189   0.01249
   7   20902.1    478.4   0.147259080   0.02104  -0.13378  -0.02643   0.04942
   8   21998.8    454.6   0.282434461   0.04246  -0.18660  -0.05768   0.06572
   9   22068.3    453.1   0.003977613   0.00060   0.02267   0.00510  -0.00775
  10   22468.8    445.1   0.186821996   0.02869   0.15050   0.04314  -0.06463
  11   23140.8    432.1   0.002201794   0.00035   0.01466   0.01084  -0.00400
  12   23487.1    425.8   0.021145557   0.00339  -0.03020  -0.04886   0.00977
  13   24496.8    408.2   0.009180233   0.00154   0.00884   0.03806   0.00325
  14   25332.5    394.7   0.156007026   0.02701   0.15167   0.02177  -0.05945
  15   25798.0    387.6   0.001092647   0.00019  -0.01307   0.00242  -0.00400
  16   26191.2    381.8   0.000689081   0.00012   0.00193  -0.00379  -0.01026
  17   26289.0    380.4   0.003259422   0.00059  -0.00006   0.02303   0.00743
  18   26414.5    378.6   0.009131334   0.00165   0.02230  -0.03393  -0.00042
  19   27038.1    369.8   0.007969221   0.00147   0.01646  -0.02994  -0.01747
  20   27149.1    368.3   0.018896080   0.00351   0.00378   0.05907   0.00171
  21   27446.0    364.4   0.027279575   0.00512  -0.03788  -0.06053   0.00433
  22   27559.3    362.9   0.026318863   0.00496  -0.06420  -0.01510   0.02464
  23   28207.1    354.5   0.015206300   0.00293  -0.04497   0.01897   0.02344
  24   28440.0    351.6   0.012717525   0.00247   0.03053   0.03917  -0.00232
  25   28984.9    345.0   0.003049230   0.00060   0.01647   0.01679  -0.00711
  26   29088.0    343.8   0.000497787   0.00010   0.00958  -0.00049  -0.00264
  27   29399.6    340.1   0.000440927   0.00009   0.00066  -0.00939  -0.00017
  28   29607.4    337.8   0.000568197   0.00011   0.01000  -0.00344  -0.00177
  29   29666.8    337.1   0.016757946   0.00340   0.05647   0.00795  -0.01209
  30   30036.9    332.9   0.003509117   0.00072   0.01431   0.01194  -0.01931
  31   30141.4    331.8   0.000228288   0.00005  -0.00021  -0.00671  -0.00138
  32   30268.4    330.4   0.003694718   0.00076  -0.02262  -0.01586  -0.00089
  33   30419.2    328.7   0.014328759   0.00298  -0.03534  -0.04159  -0.00015
  34   30439.4    328.5   0.005000473   0.00104   0.01454   0.02754  -0.00838
  35   30666.4    326.1   0.003211102   0.00067   0.01891   0.01582  -0.00808
  36   31058.0    322.0   0.003174068   0.00067   0.01196   0.02271   0.00388
  37   31215.4    320.4   0.039075028   0.00834  -0.08091  -0.02853   0.03124
  38   31295.4    319.5   0.000123050   0.00003   0.00334   0.00375  -0.00107
  39   31397.1    318.5   0.006515824   0.00140   0.02400   0.02743  -0.00836
  40   31537.9    317.1   0.003749537   0.00081   0.02565  -0.00044  -0.01225
  41   32076.9    311.8   0.003068768   0.00067   0.00438  -0.02470  -0.00660
  42   32164.9    310.9   0.008502619   0.00187   0.01318  -0.04035  -0.00823
  43   32355.7    309.1   0.018702954   0.00414   0.01757  -0.05574  -0.02683
  44   32476.6    307.9   0.003290595   0.00073   0.01440   0.02112  -0.00877
  45   32784.2    305.0   0.000215188   0.00005   0.00251  -0.00629  -0.00152
  46   33200.3    301.2   0.008984633   0.00204   0.02815   0.03528  -0.00103
  47   33455.0    298.9   0.000103123   0.00002  -0.00395  -0.00215   0.00184
  48   33524.3    298.3   0.009264802   0.00212  -0.00425   0.04511   0.00837
  49   33619.2    297.4   0.000360646   0.00008   0.00710   0.00499  -0.00276
  50   33681.4    296.9   0.007062693   0.00163  -0.03384  -0.01363   0.01717

-------------------------------------------------------------------
                             CD SPECTRUM
-------------------------------------------------------------------
State  Energy     Wavelength     R         MX        MY        MZ   
       (cm-1)       (nm)     (1e40*cgs)   (au)      (au)      (au)  
-------------------------------------------------------------------
   1   13640.9    733.1    -101.61298  -0.02640   0.13734   0.09234
   2   15368.0    650.7     10.94247  -0.03591  -0.00467  -0.07147
   3   18527.7    539.7     17.24711  -0.12848   0.13823   0.05075
   4   18668.6    535.7     -9.56311   0.08922  -0.09833  -0.10200
   5   19338.3    517.1    -94.03750   0.09653   0.12415  -0.13218
   6   19374.6    516.1     87.92014   0.14549   0.08362   0.05026
   7   20902.1    478.4    -35.02140  -0.17220   0.16707  -0.28292
   8   21998.8    454.6     -2.58999   0.13139   0.04417   0.42628
   9   22068.3    453.1      6.93648  -0.04200   0.04095   0.02889
  10   22468.8    445.1    -32.64154   0.08229  -0.12528   0.01737
  11   23140.8    432.1     10.53285  -0.03909  -0.06418   0.06511
  12   23487.1    425.8     23.80940  -0.04305   0.05680  -0.09092
  13   24496.8    408.2     -0.48672  -0.02746  -0.04909  -0.01406
  14   25332.5    394.7    -39.83414   0.11747  -0.18998   0.10990
  15   25798.0    387.6      7.87011   0.21006  -0.23305  -0.10362
  16   26191.2    381.8     -3.47749  -0.23315  -0.08042  -0.19638
  17   26289.0    380.4     11.90229  -0.05328  -0.12055   0.34166
  18   26414.5    378.6     51.53451  -0.16318   0.02204  -0.21526
  19   27038.1    369.8     -1.14296  -0.15019   0.02701  -0.28779
  20   27149.1    368.3    -11.27598  -0.17657   0.00522  -0.48987
  21   27446.0    364.4     -7.09029   0.11935  -0.07637   0.33709
  22   27559.3    362.9    -22.12470   0.05444  -0.09173   0.17833
  23   28207.1    354.5      2.96669  -0.05253   0.05136  -0.12022
  24   28440.0    351.6     -4.95675   0.09758  -0.06857   0.19362
  25   28984.9    345.0     -0.51096  -0.00111   0.00707  -0.00164
  26   29088.0    343.8     -1.06837  -0.01951   0.03365  -0.06715
  27   29399.6    340.1      1.02279   0.06235   0.01728   0.16472
  28   29607.4    337.8      4.05775   0.00195  -0.05046  -0.01141
  29   29666.8    337.1      4.47139  -0.01490  -0.02439  -0.06413
  30   30036.9    332.9      3.77194  -0.04964   0.33409   0.00767
  31   30141.4    331.8     -1.62223   0.00409   0.01910   0.02564
  32   30268.4    330.4     -2.01169   0.05336   0.04378   0.15249
  33   30419.2    328.7      9.28395   0.05452  -0.07015   0.15570
  34   30439.4    328.5    -13.54275   0.02691  -0.04364  -0.00632
  35   30666.4    326.1    -11.91982  -0.02349  -0.21117  -0.08294
  36   31058.0    322.0     -4.29142   0.13167  -0.08413   0.25585
  37   31215.4    320.4     11.33102   0.04446   0.07905   0.11072
  38   31295.4    319.5     -1.47210   0.11171  -0.13213  -0.04212
  39   31397.1    318.5      5.00040   0.08546  -0.00786   0.16607
  40   31537.9    317.1     -5.30878  -0.13035   0.07726  -0.39511
  41   32076.9    311.8     -1.51801   0.03553   0.02686  -0.04205
  42   32164.9    310.9    -12.27452  -0.13853   0.08434  -0.30932
  43   32355.7    309.1      0.14714   0.26121  -0.13351   0.51825
  44   32476.6    307.9      3.48982  -0.11782   0.00459  -0.23284
  45   32784.2    305.0      0.07224  -0.12659  -0.06839   0.06953
  46   33200.3    301.2      1.28489  -0.08352   0.00420  -0.12985
  47   33455.0    298.9     -6.75235   0.00652  -0.06117   0.04211
  48   33524.3    298.3      3.72437   0.08264  -0.00269   0.18520
  49   33619.2    297.4     -4.35098   0.14757  -0.23571  -0.08251
  50   33681.4    296.9      9.29269   0.03531   0.04235  -0.04543

Total run time:    22796.185 sec

           *** ORCA-CIS/TD-DFT FINISHED WITHOUT ERROR ***

-----------------------
CIS/TD-DFT TOTAL ENERGY
-----------------------

    E(SCF)  =  -5516.879486479 Eh
    DE(CIS) =      0.062152345 Eh (Root  1)
    ----------------------------- ---------
    E(tot)  =  -5516.817334134 Eh


-------------------------   --------------------
FINAL SINGLE POINT ENERGY     -5516.817334133963
-------------------------   --------------------


                            ***************************************
                            *     ORCA property calculations      *
                            ***************************************

                                    ---------------------
                                    Active property flags
                                    ---------------------
   (+) Dipole Moment


------------------------------------------------------------------------------
                       ORCA ELECTRIC PROPERTIES CALCULATION
------------------------------------------------------------------------------

Dipole Moment Calculation                       ... on
Quadrupole Moment Calculation                   ... off
Polarizability Calculation                      ... off
GBWName                                         ... O-IDTBR.gbw
Electron density file                           ... O-IDTBR.scfp
The origin for moment calculation is the CENTER OF MASS  = (-20.252599, -7.441404  7.395240)

-------------
DIPOLE MOMENT
-------------
                                X             Y             Z
Electronic contribution:     -1.03193     -35.50676     -17.51509
Nuclear contribution   :      0.94943      36.10451      18.30522
                        -----------------------------------------
Total Dipole Moment    :     -0.08250       0.59776       0.79013
                        -----------------------------------------
Magnitude (a.u.)       :      0.99420
Magnitude (Debye)      :      2.52705



--------------------
Rotational spectrum 
--------------------
 
Rotational constants in cm-1:     0.003809     0.000189     0.000183 
Rotational constants in MHz :   114.199738     5.670333     5.488924 

 Dipole components along the rotational axes: 
x,y,z [a.u.] :     0.229271    -0.737719     0.625805 
x,y,z [Debye]:     0.582762    -1.875133     1.590669 

 

Timings for individual modules:

Sum of individual times         ...    25634.482 sec (= 427.241 min)
GTO integral calculation        ...        7.016 sec (=   0.117 min)   0.0 %
SCF iterations                  ...     2828.419 sec (=  47.140 min)  11.0 %
CIS module                      ...    22799.047 sec (= 379.984 min)  88.9 %
                             ****ORCA TERMINATED NORMALLY****
TOTAL RUN TIME: 0 days 7 hours 7 minutes 17 seconds 445 msec
