
                                 *****************
                                 * O   R   C   A *
                                 *****************

           --- An Ab Initio, DFT and Semiempirical electronic structure package ---

                  #######################################################
                  #                        -***-                        #
                  #          Department of theory and spectroscopy      #
                  #               Directorship: Frank Neese             #
                  #        Max Planck Institute fuer Kohlenforschung    #
                  #                Kaiser Wilhelm Platz 1               #
                  #                 D-45470 Muelheim/Ruhr               #
                  #                      Germany                        #
                  #                                                     #
                  #                  All rights reserved                #
                  #                        -***-                        #
                  #######################################################


                         Program Version 4.2.0 -  RELEASE  -


 With contributions from (in alphabetic order):
   Daniel Aravena         : Magnetic Suceptibility
   Michael Atanasov       : Ab Initio Ligand Field Theory (pilot matlab implementation)
   Alexander A. Auer      : GIAO ZORA, VPT2
   Ute Becker             : Parallelization
   Giovanni Bistoni       : ED, misc. LED, open-shell LED, HFLED
   Martin Brehm           : Molecular dynamics
   Dmytro Bykov           : SCF Hessian
   Vijay G. Chilkuri      : MRCI spin determinant printing, contributions to CSF-ICE
   Dipayan Datta          : RHF DLPNO-CCSD density
   Achintya Kumar Dutta   : EOM-CC, STEOM-CC
   Dmitry Ganyushin       : Spin-Orbit,Spin-Spin,Magnetic field MRCI
   Miquel Garcia          : C-PCM Hessian, Gaussian charge scheme
   Yang Guo               : DLPNO-NEVPT2, CIM, IAO-localization
   Andreas Hansen         : Spin unrestricted coupled pair/coupled cluster methods
   Benjamin Helmich-Paris : CASSCF linear response (MC-RPA)
   Lee Huntington         : MR-EOM, pCC
   Robert Izsak           : Overlap fitted RIJCOSX, COSX-SCS-MP3, EOM
   Christian Kollmar      : KDIIS, OOCD, Brueckner-CCSD(T), CCSD density
   Simone Kossmann        : Meta GGA functionals, TD-DFT gradient, OOMP2, MP2 Hessian
   Martin Krupicka        : AUTO-CI
   Lucas Lang             : DCDCAS
   Dagmar Lenk            : GEPOL surface, SMD
   Dimitrios Liakos       : Extrapolation schemes; Compound Job, initial MDCI parallelization
   Dimitrios Manganas     : Further ROCIS development; embedding schemes
   Dimitrios Pantazis     : SARC Basis sets
   Taras Petrenko         : DFT Hessian,TD-DFT gradient, ASA, ECA, R-Raman, ABS, FL, XAS/XES, NRVS
   Peter Pinski           : DLPNO-MP2, DLPNO-MP2 Gradient
   Christoph Reimann      : Effective Core Potentials
   Marius Retegan         : Local ZFS, SOC
   Christoph Riplinger    : Optimizer, TS searches, QM/MM, DLPNO-CCSD(T), (RO)-DLPNO pert. Triples
   Tobias Risthaus        : Range-separated hybrids, TD-DFT gradient, RPA, STAB
   Michael Roemelt        : Original ROCIS implementation
   Masaaki Saitow         : Open-shell DLPNO-CCSD energy and density
   Barbara Sandhoefer     : DKH picture change effects
   Avijit Sen             : IP-ROCIS
   Kantharuban Sivalingam : CASSCF convergence, NEVPT2, FIC-MRCI
   Bernardo de Souza      : ESD, SOC TD-DFT
   Georgi Stoychev        : AutoAux, RI-MP2 NMR
   Willem Van den Heuvel  : Paramagnetic NMR
   Boris Wezisla          : Elementary symmetry handling
   Frank Wennmohs         : Technical directorship


 We gratefully acknowledge several colleagues who have allowed us to
 interface, adapt or use parts of their codes:
   Stefan Grimme, W. Hujo, H. Kruse,             : VdW corrections, initial TS optimization,
                  C. Bannwarth                     DFT functionals, gCP, sTDA/sTD-DF
   Ed Valeev, F. Pavosevic, A. Kumar             : LibInt (2-el integral package), F12 methods
   Garnet Chan, S. Sharma, J. Yang, R. Olivares  : DMRG
   Ulf Ekstrom                                   : XCFun DFT Library
   Mihaly Kallay                                 : mrcc  (arbitrary order and MRCC methods)
   Andreas Klamt, Michael Diedenhofen            : otool_cosmo (COSMO solvation model)
   Jiri Pittner, Ondrej Demel                    : Mk-CCSD
   Frank Weinhold                                : gennbo (NPA and NBO analysis)
   Christopher J. Cramer and Donald G. Truhlar   : smd solvation model
   Lars Goerigk                                  : TD-DFT with DH, B97 family of functionals
   V. Asgeirsson, H. Jonsson                     : NEB implementation
   FAccTs GmbH                                   : IRC, NEB, NEB-TS, Multilevel, MM, QM/MM, CI optimization
   S Lehtola, MJT Oliveira, MAL Marques          : LibXC Library


 Your calculation uses the libint2 library for the computation of 2-el integrals
 For citations please refer to: http://libint.valeyev.net

 Your ORCA version has been built with support for libXC version: 4.2.3
 For citations please refer to: https://tddft.org/programs/libxc/

 This ORCA versions uses:
   CBLAS   interface :  Fast vector & matrix operations
   LAPACKE interface :  Fast linear algebra routines
   SCALAPACK package :  Parallel linear algebra routines


----- Orbital basis set information -----
Your calculation utilizes the basis: def2-TZVP
   F. Weigend and R. Ahlrichs, Phys. Chem. Chem. Phys. 7, 3297 (2005).

----- AuxJ basis set information -----
Your calculation utilizes the auxiliary basis: def2/J
   F. Weigend, Phys. Chem. Chem. Phys. 8, 1057 (2006).

================================================================================
                                        WARNINGS
                       Please study these warnings very carefully!
================================================================================

INFO   : Checking CIS options ...

WARNING: CIS/ROCIS methods need fully converged wavefunctions
  ===> : Setting SCFConvForced true
         You can overwrite this default with %scf ConvForced false 


INFO   : the flag for use of LIBINT has been found!

================================================================================
                                       INPUT FILE
================================================================================
NAME = O-IDTBR.inp
|  1> # ORCA input file
|  2> # ../O-IDTBR.out
|  3> ! B3LYP def2-TZVP def2/J RIJCOSX Grid4 TightSCF
|  4> %maxcore 1000
|  5> %tddft
|  6>   maxdim 5
|  7>   nroots 50
|  8>   end
|  9> * xyz 0 1
| 10>    S        0.59402        -2.16021        -0.28280
| 11>    C        2.17822        -1.54834        -0.75208
| 12>    S        3.39585        -2.50266        -1.27372
| 13>    N        2.23583        -0.19839        -0.63438
| 14>    C        3.43254         0.56200        -0.93727
| 15>    C        4.39340         0.57033         0.24490
| 16>    C        1.09751         0.43038        -0.17297
| 17>    O        1.00766         1.62922        -0.01988
| 18>    C        0.03402        -0.55273         0.09014
| 19>    C       -1.15571        -0.11252         0.56801
| 20>    C       -2.35308        -0.79387         0.92646
| 21>    C       -2.57173        -2.19059         0.79800
| 22>    N       -1.72259        -3.09068         0.31674
| 23>    S       -2.40126        -4.54740         0.35639
| 24>    N       -3.81336        -4.11133         0.98754
| 25>    C       -3.81752        -2.79611         1.19689
| 26>    C       -4.87205        -2.00954         1.73835
| 27>    C       -4.61831        -0.64390         1.83988
| 28>    C       -3.42103        -0.06505         1.45138
| 29>    C       -6.11004        -2.58343         2.15512
| 30>    C       -6.50295        -3.91057         2.10750
| 31>    C       -7.78716        -4.09968         2.60509
| 32>    C       -8.37889        -2.92579         3.04397
| 33>    S       -7.36518        -1.56068         2.83978
| 34>    C       -9.69751        -3.17111         3.53076
| 35>    C       -9.93515        -4.56071         3.39735
| 36>    C       -8.71039        -5.26732         2.84269
| 37>    C       -9.02161        -6.03257         1.54801
| 38>    C       -9.54266        -5.12017         0.44344
| 39>    C       -8.03087        -6.17483         3.89496
| 40>    C       -8.85873        -7.34997         4.39717
| 41>    C      -11.15900        -5.08382         3.74552
| 42>    C      -12.11689        -4.20598         4.24966
| 43>    C      -11.87885        -2.81565         4.37574
| 44>    C      -10.65631        -2.29134         4.02731
| 45>    C      -13.09881        -2.10500         4.93195
| 46>    C      -12.77738        -1.30202         6.20037
| 47>    C      -12.22087        -2.17748         7.31733
| 48>    C      -13.79607        -1.23192         3.86163
| 49>    C      -12.97331        -0.07774         3.30549
| 50>    C      -14.00680        -3.27553         5.20769
| 51>    C      -13.42625        -4.45576         4.76333
| 52>    S      -14.42828        -5.82392         5.01817
| 53>    C      -15.65290        -4.80006         5.73668
| 54>    C      -15.26771        -3.46555         5.75273
| 55>    C      -16.86417        -5.36660         6.23073
| 56>    C      -17.10809        -6.76315         6.13588
| 57>    N      -16.30148        -7.67341         5.59789
| 58>    S      -16.99315        -9.12092         5.71797
| 59>    N      -18.34620        -8.66306         6.45786
| 60>    C      -18.31688        -7.34570         6.64463
| 61>    C      -19.32020        -6.54484         7.26487
| 62>    C      -19.04478        -5.17994         7.32973
| 63>    C      -17.87380        -4.62052         6.83648
| 64>    C      -20.47501        -7.22313         7.75055
| 65>    C      -21.60748        -6.80824         8.38171
| 66>    S      -22.79645        -8.03431         8.82476
| 67>    C      -23.87240        -6.84435         9.52745
| 68>    S      -25.31467        -7.18965        10.21023
| 69>    N      -23.33170        -5.60660         9.40698
| 70>    C      -23.99906        -4.42693         9.92386
| 71>    C      -23.71704        -4.23976        11.40906
| 72>    C      -22.09147        -5.49331         8.79780
| 73>    O      -21.55192        -4.41419         8.65787
| 74>    H        3.10435         1.57747        -1.17027
| 75>    H        3.90754         0.10953        -1.81081
| 76>    H        3.91605         1.01418         1.11513
| 77>    H        5.27465         1.15233        -0.00668
| 78>    H        4.70201        -0.44379         0.48620
| 79>    H       -1.18542         0.96474         0.70635
| 80>    H       -5.39367        -0.00819         2.24218
| 81>    H       -3.30420         1.00269         1.56425
| 82>    H       -5.85903        -4.67579         1.71605
| 83>    H       -9.76979        -6.79743         1.75855
| 84>    H       -8.11061        -6.53029         1.20939
| 85>    H      -10.44462        -4.60428         0.76631
| 86>    H       -9.77850        -5.70372        -0.44331
| 87>    H       -8.79787        -4.37449         0.17446
| 88>    H       -7.75577        -5.55014         4.74897
| 89>    H       -7.10657        -6.55142         3.45074
| 90>    H       -9.73687        -7.00599         4.93626
| 91>    H       -8.25637        -7.94491         5.08040
| 92>    H       -9.17302        -7.99334         3.57987
| 93>    H      -11.39522        -6.13071         3.63758
| 94>    H      -10.42127        -1.24391         4.13486
| 95>    H      -13.68969        -0.80937         6.54331
| 96>    H      -12.04688        -0.52974         5.95746
| 97>    H      -12.94371        -2.93497         7.61159
| 98>    H      -11.98703        -1.56954         8.18814
| 99>    H      -11.31182        -2.67927         6.99281
|100>    H      -14.71194        -0.83678         4.30724
|101>    H      -14.08652        -1.88511         3.03460
|102>    H      -12.64987         0.59654         4.09385
|103>    H      -13.58193         0.49093         2.60569
|104>    H      -12.10100        -0.44414         2.77166
|105>    H      -15.88294        -2.68120         6.15387
|106>    H      -19.77133        -4.52808         7.78524
|107>    H      -17.74585        -3.55424         6.93463
|108>    H      -20.42247        -8.29312         7.57616
|109>    H      -25.07125        -4.54364         9.75074
|110>    H      -23.61566        -3.57806         9.35284
|111>    H      -24.08527        -5.09311        11.97352
|112>    H      -24.21924        -3.34456        11.76357
|113>    H      -22.64818        -4.13344        11.57968
|114> *
|115> 
|116>                          ****END OF INPUT****
================================================================================

                       ****************************
                       * Single Point Calculation *
                       ****************************

---------------------------------
CARTESIAN COORDINATES (ANGSTROEM)
---------------------------------
  S      0.594020   -2.160210   -0.282800
  C      2.178220   -1.548340   -0.752080
  S      3.395850   -2.502660   -1.273720
  N      2.235830   -0.198390   -0.634380
  C      3.432540    0.562000   -0.937270
  C      4.393400    0.570330    0.244900
  C      1.097510    0.430380   -0.172970
  O      1.007660    1.629220   -0.019880
  C      0.034020   -0.552730    0.090140
  C     -1.155710   -0.112520    0.568010
  C     -2.353080   -0.793870    0.926460
  C     -2.571730   -2.190590    0.798000
  N     -1.722590   -3.090680    0.316740
  S     -2.401260   -4.547400    0.356390
  N     -3.813360   -4.111330    0.987540
  C     -3.817520   -2.796110    1.196890
  C     -4.872050   -2.009540    1.738350
  C     -4.618310   -0.643900    1.839880
  C     -3.421030   -0.065050    1.451380
  C     -6.110040   -2.583430    2.155120
  C     -6.502950   -3.910570    2.107500
  C     -7.787160   -4.099680    2.605090
  C     -8.378890   -2.925790    3.043970
  S     -7.365180   -1.560680    2.839780
  C     -9.697510   -3.171110    3.530760
  C     -9.935150   -4.560710    3.397350
  C     -8.710390   -5.267320    2.842690
  C     -9.021610   -6.032570    1.548010
  C     -9.542660   -5.120170    0.443440
  C     -8.030870   -6.174830    3.894960
  C     -8.858730   -7.349970    4.397170
  C    -11.159000   -5.083820    3.745520
  C    -12.116890   -4.205980    4.249660
  C    -11.878850   -2.815650    4.375740
  C    -10.656310   -2.291340    4.027310
  C    -13.098810   -2.105000    4.931950
  C    -12.777380   -1.302020    6.200370
  C    -12.220870   -2.177480    7.317330
  C    -13.796070   -1.231920    3.861630
  C    -12.973310   -0.077740    3.305490
  C    -14.006800   -3.275530    5.207690
  C    -13.426250   -4.455760    4.763330
  S    -14.428280   -5.823920    5.018170
  C    -15.652900   -4.800060    5.736680
  C    -15.267710   -3.465550    5.752730
  C    -16.864170   -5.366600    6.230730
  C    -17.108090   -6.763150    6.135880
  N    -16.301480   -7.673410    5.597890
  S    -16.993150   -9.120920    5.717970
  N    -18.346200   -8.663060    6.457860
  C    -18.316880   -7.345700    6.644630
  C    -19.320200   -6.544840    7.264870
  C    -19.044780   -5.179940    7.329730
  C    -17.873800   -4.620520    6.836480
  C    -20.475010   -7.223130    7.750550
  C    -21.607480   -6.808240    8.381710
  S    -22.796450   -8.034310    8.824760
  C    -23.872400   -6.844350    9.527450
  S    -25.314670   -7.189650   10.210230
  N    -23.331700   -5.606600    9.406980
  C    -23.999060   -4.426930    9.923860
  C    -23.717040   -4.239760   11.409060
  C    -22.091470   -5.493310    8.797800
  O    -21.551920   -4.414190    8.657870
  H      3.104350    1.577470   -1.170270
  H      3.907540    0.109530   -1.810810
  H      3.916050    1.014180    1.115130
  H      5.274650    1.152330   -0.006680
  H      4.702010   -0.443790    0.486200
  H     -1.185420    0.964740    0.706350
  H     -5.393670   -0.008190    2.242180
  H     -3.304200    1.002690    1.564250
  H     -5.859030   -4.675790    1.716050
  H     -9.769790   -6.797430    1.758550
  H     -8.110610   -6.530290    1.209390
  H    -10.444620   -4.604280    0.766310
  H     -9.778500   -5.703720   -0.443310
  H     -8.797870   -4.374490    0.174460
  H     -7.755770   -5.550140    4.748970
  H     -7.106570   -6.551420    3.450740
  H     -9.736870   -7.005990    4.936260
  H     -8.256370   -7.944910    5.080400
  H     -9.173020   -7.993340    3.579870
  H    -11.395220   -6.130710    3.637580
  H    -10.421270   -1.243910    4.134860
  H    -13.689690   -0.809370    6.543310
  H    -12.046880   -0.529740    5.957460
  H    -12.943710   -2.934970    7.611590
  H    -11.987030   -1.569540    8.188140
  H    -11.311820   -2.679270    6.992810
  H    -14.711940   -0.836780    4.307240
  H    -14.086520   -1.885110    3.034600
  H    -12.649870    0.596540    4.093850
  H    -13.581930    0.490930    2.605690
  H    -12.101000   -0.444140    2.771660
  H    -15.882940   -2.681200    6.153870
  H    -19.771330   -4.528080    7.785240
  H    -17.745850   -3.554240    6.934630
  H    -20.422470   -8.293120    7.576160
  H    -25.071250   -4.543640    9.750740
  H    -23.615660   -3.578060    9.352840
  H    -24.085270   -5.093110   11.973520
  H    -24.219240   -3.344560   11.763570
  H    -22.648180   -4.133440   11.579680

----------------------------
CARTESIAN COORDINATES (A.U.)
----------------------------
  NO LB      ZA    FRAG     MASS         X           Y           Z
   0 S    16.0000    0    32.060    1.122535   -4.082205   -0.534415
   1 C     6.0000    0    12.011    4.116239   -2.925939   -1.421225
   2 S    16.0000    0    32.060    6.417226   -4.729342   -2.406982
   3 N     7.0000    0    14.007    4.225106   -0.374903   -1.198804
   4 C     6.0000    0    12.011    6.486561    1.062026   -1.771184
   5 C     6.0000    0    12.011    8.302323    1.077768    0.462794
   6 C     6.0000    0    12.011    2.073993    0.813300   -0.326866
   7 O     8.0000    0    15.999    1.904201    3.078780   -0.037568
   8 C     6.0000    0    12.011    0.064288   -1.044508    0.170340
   9 C     6.0000    0    12.011   -2.183975   -0.212632    1.073383
  10 C     6.0000    0    12.011   -4.446677   -1.500197    1.750756
  11 C     6.0000    0    12.011   -4.859865   -4.139615    1.508001
  12 N     7.0000    0    14.007   -3.255223   -5.840539    0.598552
  13 S    16.0000    0    32.060   -4.537724   -8.593341    0.673479
  14 N     7.0000    0    14.007   -7.206206   -7.769288    1.866180
  15 C     6.0000    0    12.011   -7.214067   -5.283882    2.261794
  16 C     6.0000    0    12.011   -9.206840   -3.797480    3.285005
  17 C     6.0000    0    12.011   -8.727341   -1.216795    3.476869
  18 C     6.0000    0    12.011   -6.464810   -0.122927    2.742711
  19 C     6.0000    0    12.011  -11.546302   -4.881975    4.072587
  20 C     6.0000    0    12.011  -12.288795   -7.389906    3.982598
  21 C     6.0000    0    12.011  -14.715600   -7.747272    4.922907
  22 C     6.0000    0    12.011  -15.833807   -5.528942    5.752270
  23 S    16.0000    0    32.060  -13.918173   -2.949258    5.366406
  24 C     6.0000    0    12.011  -18.325638   -5.992529    6.672169
  25 C     6.0000    0    12.011  -18.774713   -8.618493    6.420061
  26 C     6.0000    0    12.011  -16.460252   -9.953792    5.371906
  27 C     6.0000    0    12.011  -17.048372  -11.399905    2.925315
  28 C     6.0000    0    12.011  -18.033014   -9.675719    0.837980
  29 C     6.0000    0    12.011  -15.176145  -11.668738    7.360408
  30 C     6.0000    0    12.011  -16.740574  -13.889430    8.309447
  31 C     6.0000    0    12.011  -21.087454   -9.607028    7.078007
  32 C     6.0000    0    12.011  -22.897604   -7.948150    8.030694
  33 C     6.0000    0    12.011  -22.447773   -5.320807    8.268950
  34 C     6.0000    0    12.011  -20.137507   -4.330005    7.610513
  35 C     6.0000    0    12.011  -24.753164   -3.977874    9.320035
  36 C     6.0000    0    12.011  -24.145749   -2.460461   11.717001
  37 C     6.0000    0    12.011  -23.094097   -4.114841   13.827750
  38 C     6.0000    0    12.011  -26.070794   -2.327991    7.297423
  39 C     6.0000    0    12.011  -24.516003   -0.146907    6.246471
  40 C     6.0000    0    12.011  -26.469016   -6.189855    9.841108
  41 C     6.0000    0    12.011  -25.371936   -8.420166    9.001389
  42 S    16.0000    0    32.060  -27.265498  -11.005614    9.482967
  43 C     6.0000    0    12.011  -29.579694   -9.070799   10.840754
  44 C     6.0000    0    12.011  -28.851791   -6.548940   10.871084
  45 C     6.0000    0    12.011  -31.868663  -10.141404   11.774373
  46 C     6.0000    0    12.011  -32.329605  -12.780501   11.595133
  47 N     7.0000    0    14.007  -30.805333  -14.500643   10.578479
  48 S    16.0000    0    32.060  -32.112400  -17.236041   10.805397
  49 N     7.0000    0    14.007  -34.669294  -16.370811   12.203587
  50 C     6.0000    0    12.011  -34.613887  -13.881361   12.556531
  51 C     6.0000    0    12.011  -36.509887  -12.367955   13.728615
  52 C     6.0000    0    12.011  -35.989418   -9.788668   13.851182
  53 C     6.0000    0    12.011  -33.776587   -8.731517   12.919075
  54 C     6.0000    0    12.011  -38.692161  -13.649738   14.646417
  55 C     6.0000    0    12.011  -40.832220  -12.865709   15.839136
  56 S    16.0000    0    32.060  -43.079047  -15.182646   16.676380
  57 C     6.0000    0    12.011  -45.112298  -12.933947   18.004271
  58 S    16.0000    0    32.060  -47.837793  -13.586469   19.294538
  59 N     7.0000    0    14.007  -44.090523  -10.594939   17.776616
  60 C     6.0000    0    12.011  -45.351651   -8.365685   18.753378
  61 C     6.0000    0    12.011  -44.818710   -8.011985   21.559999
  62 C     6.0000    0    12.011  -41.746828  -10.380851   16.625433
  63 O     8.0000    0    15.999  -40.727226   -8.341610   16.361003
  64 H     1.0000    0     1.008    5.866371    2.980986   -2.211490
  65 H     1.0000    0     1.008    7.384180    0.206982   -3.421935
  66 H     1.0000    0     1.008    7.400262    1.916522    2.107290
  67 H     1.0000    0     1.008    9.967644    2.177588   -0.012623
  68 H     1.0000    0     1.008    8.885511   -0.838642    0.918785
  69 H     1.0000    0     1.008   -2.240119    1.823094    1.334808
  70 H     1.0000    0     1.008  -10.192559   -0.015477    4.237106
  71 H     1.0000    0     1.008   -6.244033    1.894809    2.956004
  72 H     1.0000    0     1.008  -11.071962   -8.835963    3.242865
  73 H     1.0000    0     1.008  -18.462227  -12.845281    3.323178
  74 H     1.0000    0     1.008  -15.326832  -12.340460    2.285416
  75 H     1.0000    0     1.008  -19.737471   -8.700828    1.448116
  76 H     1.0000    0     1.008  -18.478687  -10.778469   -0.837734
  77 H     1.0000    0     1.008  -16.625565   -8.266588    0.329682
  78 H     1.0000    0     1.008  -14.656281  -10.488245    8.974253
  79 H     1.0000    0     1.008  -13.429471  -12.380390    6.520954
  80 H     1.0000    0     1.008  -18.400018  -13.239402    9.328180
  81 H     1.0000    0     1.008  -15.602278  -15.013704    9.600565
  82 H     1.0000    0     1.008  -17.334496  -15.105223    6.764974
  83 H     1.0000    0     1.008  -21.533845  -11.585363    6.874030
  84 H     1.0000    0     1.008  -19.693346   -2.350649    7.813753
  85 H     1.0000    0     1.008  -25.869765   -1.529488   12.365064
  86 H     1.0000    0     1.008  -22.765304   -1.001064   11.257968
  87 H     1.0000    0     1.008  -24.460067   -5.546290   14.383821
  88 H     1.0000    0     1.008  -22.652204   -2.966001   15.473342
  89 H     1.0000    0     1.008  -21.376242   -5.063087   13.214496
  90 H     1.0000    0     1.008  -27.801537   -1.581285    8.139504
  91 H     1.0000    0     1.008  -26.619665   -3.562342    5.734563
  92 H     1.0000    0     1.008  -23.904790    1.127297    7.736255
  93 H     1.0000    0     1.008  -25.666128    0.927723    4.924040
  94 H     1.0000    0     1.008  -22.867576   -0.839303    5.237678
  95 H     1.0000    0     1.008  -30.014407   -5.066734   11.629129
  96 H     1.0000    0     1.008  -37.362399   -8.556831   14.711971
  97 H     1.0000    0     1.008  -33.534797   -6.716540   13.104552
  98 H     1.0000    0     1.008  -38.592875  -15.671726   14.316868
  99 H     1.0000    0     1.008  -47.377796   -8.586235   18.426228
 100 H     1.0000    0     1.008  -44.627130   -6.761553   17.674306
 101 H     1.0000    0     1.008  -45.514564   -9.624583   22.626674
 102 H     1.0000    0     1.008  -45.767731   -6.320302   22.229926
 103 H     1.0000    0     1.008  -42.798858   -7.811070   21.882424

--------------------------------
INTERNAL COORDINATES (ANGSTROEM)
--------------------------------
 S      0   0   0     0.000000000000     0.00000000     0.00000000
 C      1   0   0     1.761901885832     0.00000000     0.00000000
 S      2   1   0     1.632622972061   123.55223799     0.00000000
 N      2   1   3     1.356295397249   111.14512638   179.35041496
 C      4   2   1     1.449844863529   122.61149255   179.05515961
 C      5   4   2     1.523432715088   111.18337081   276.95994368
 C      4   2   1     1.379863516222   116.58476932     0.69070577
 O      7   4   2     1.211910440668   123.65305155   180.03426042
 C      7   4   2     1.471986115526   110.57600866   359.70123160
 C      9   7   4     1.355581813798   118.69956337   179.14715624
 C     10   9   7     1.423523495380   132.18723522   180.58493124
 C     11  10   9     1.419555054410   125.28944983   357.44016372
 N     12  11  10     1.327709281168   126.96412039   359.19057377
 S     13  12  11     1.607544167294   109.59543518   180.26893876
 N     14  13  12     1.607026377319    97.74493745     0.03322075
 C     15  14  13     1.331783907584   109.41811979     0.00000000
 C     16  15  14     1.422640087092   127.45673945   179.87605799
 C     17  16  15     1.392718542312   115.77526632   180.57750350
 C     18  17  16     1.385452623116   123.13990456   359.69061964
 C     17  16  15     1.426767747428   122.13788178     0.76658602
 C     20  17  16     1.384899459203   128.43182643   359.39319352
 C     21  20  17     1.390163200599   112.34234993   179.94123060
 C     22  21  20     1.385921274604   113.11275792   359.54560831
 S     23  22  21     1.712549804327   112.62411538     0.44724388
 C     23  22  21     1.426851467708   110.91488647   179.38586927
 C     25  23  22     1.416071734659   106.95750732     0.38141806
 C     22  21  20     1.507378705734   136.68451020   182.14726001
 C     27  22  21     1.535793525608   112.16093191   300.36966506
 C     28  27  22     1.524480812408   112.44808575   306.78152030
 C     27  22  21     1.546801210046   107.01574645    63.23311666
 C     30  27  22     1.522669065588   115.99684899   173.85675604
 C     26  25  23     1.375745341079   119.90573638   182.42966443
 C     32  26  25     1.393669063049   117.61146912   358.66885014
 C     33  32  26     1.416183857026   122.34762593     1.69079312
 C     34  33  32     1.375103084354   120.07979772   358.31003756
 C     34  33  32     1.517463471784   110.93234242   179.17073442
 C     36  34  33     1.535247023023   112.30005242   124.27519779
 C     37  36  34     1.524379622437   112.42271705   300.85383946
 C     36  34  33     1.547263744938   111.90044348   250.91287538
 C     39  36  34     1.522615246738   115.90556371   296.79701229
 C     36  34  33     1.506857282094   100.81983142     4.41236565
 C     41  36  34     1.388321636005   110.47656502   355.47404481
 S     42  41  36     1.714896303600   112.72604914   181.25721853
 C     43  42  41     1.750497090572    90.17954139   359.95262383
 C     41  36  34     1.386748077374   136.57342241   177.48242337
 C     44  43  42     1.425562340622   120.28000148   180.91399169
 C     46  44  43     1.420860792407   120.88690689   359.22315459
 N     47  46  44     1.329897063611   126.55763311   359.33449609
 S     48  47  46     1.608760950359   108.95899342   179.93376862
 N     49  48  47     1.608669417314    98.03975487   359.96251585
 C     50  49  48     1.330856891217   109.13230682     0.03866315
 C     51  50  49     1.425736798852   126.98226580   180.04920632
 C     52  51  50     1.393920731606   115.54491498   180.28541090
 C     53  52  51     1.388322894467   123.00280457   359.60896052
 C     52  51  50     1.424622238560   116.82759440     0.65253142
 C     55  52  51     1.361243901217   133.41925935   179.95725444
 S     56  55  52     1.764423590950   117.72590728   180.60665798
 C     57  56  55     1.751412698424    92.44118377   180.06192767
 S     58  57  56     1.632655313071   124.52645094   179.82964620
 N     58  57  56     1.356058469757   109.84988041     0.32797919
 C     60  58  57     1.450570788655   121.81622654   181.03038540
 C     61  60  58     1.523281631643   111.23350164    83.36054650
 C     60  58  57     1.386400140436   118.05454288   359.47810191
 O     63  60  58     1.214575885567   121.37370142   179.96725832
 H      5   4   2     1.092326415043   106.50687325   156.54370399
 H      5   4   2     1.092440493803   107.98203284    38.20911775
 H      6   5   4     1.087274619358   110.26791272   300.25147083
 H      6   5   4     1.085641772824   109.57762557   180.46385556
 H      6   5   4     1.087154633205   110.25367030    60.82879624
 H     10   9   7     1.086512653999   113.00782019     0.03555072
 H     18  17  16     1.080349769149   118.25384508   179.75817562
 H     19  18  17     1.080026663282   118.50455655   180.06616893
 H     21  20  17     1.073977521785   121.68332084   359.56647741
 H     28  27  22     1.090463765377   109.01222776   185.81756688
 H     28  27  22     1.091929348813   108.63156739    68.10231834
 H     29  28  27     1.088080590122   110.61519045   301.56785487
 H     29  28  27     1.087417431624   110.10846620   181.70174428
 H     29  28  27     1.087704485097   110.82069805    61.84606957
 H     30  27  22     1.093275210640   107.86113046    51.75861689
 H     30  27  22     1.092465984139   107.29601714   296.14265279
 H     31  30  27     1.086310327715   111.02654840   295.45362476
 H     31  30  27     1.087931250631   109.15627228   176.50195107
 H     31  30  27     1.086592127249   111.47759616    57.30010322
 H     32  26  25     1.078623940074   122.58472307   178.38054745
 H     35  34  33     1.078851430457   122.58929686   181.88775587
 H     37  36  34     1.092072068226   108.69265399   179.45431310
 H     37  36  34     1.090436571516   109.06472863    61.85423063
 H     38  37  36     1.087601817441   110.83042479   298.74779391
 H     38  37  36     1.087465974318   110.13234143   178.80437677
 H     38  37  36     1.087877905374   110.57209603    58.91863564
 H     39  36  34     1.092484209771   107.44107035   174.48103282
 H     39  36  34     1.093159183056   107.81295254    58.79769844
 H     40  39  36     1.086636296835   111.48245389   302.18576167
 H     40  39  36     1.087898852513   109.20126402   182.94260780
 H     40  39  36     1.086346245448   110.96002824    63.97740190
 H     45  41  36     1.074535329805   124.56241839   357.87601124
 H     53  52  51     1.077165596461   118.61798578   179.76870177
 H     54  53  52     1.078405148077   117.78488292   180.24762931
 H     55  52  51     1.085380543312   112.04612261     0.23784265
 H     61  60  58     1.092329233610   107.95200377   322.03534735
 H     61  60  58     1.092538181163   106.50992391   203.74851234
 H     62  61  60     1.087388912487   110.30376889   298.94746239
 H     62  61  60     1.085939786590   109.50961673   179.34047938
 H     62  61  60     1.087601409709   110.29883019    59.60037047

---------------------------
INTERNAL COORDINATES (A.U.)
---------------------------
 S      0   0   0     0.000000000000     0.00000000     0.00000000
 C      1   0   0     3.329512039063     0.00000000     0.00000000
 S      2   1   0     3.085210297143   123.55223799     0.00000000
 N      2   1   3     2.563026857499   111.14512638   179.35041496
 C      4   2   1     2.739809728741   122.61149255   179.05515961
 C      5   4   2     2.878870614972   111.18337081   276.95994368
 C      4   2   1     2.607564147849   116.58476932     0.69070577
 O      7   4   2     2.290178831702   123.65305155   180.03426042
 C      7   4   2     2.781650631278   110.57600866   359.70123160
 C      9   7   4     2.561678380203   118.69956337   179.14715624
 C     10   9   7     2.690069551471   132.18723522   180.58493124
 C     11  10   9     2.682570284858   125.28944983   357.44016372
 N     12  11  10     2.509006926873   126.96412039   359.19057377
 S     13  12  11     3.037818224368   109.59543518   180.26893876
 N     14  13  12     3.036839743121    97.74493745     0.03322075
 C     15  14  13     2.516706854897   109.41811979     0.00000000
 C     16  15  14     2.688400151741   127.45673945   179.87605799
 C     17  16  15     2.631856626604   115.77526632   180.57750350
 C     18  17  16     2.618126029213   123.13990456   359.69061964
 C     17  16  15     2.696200299350   122.13788178     0.76658602
 C     20  17  16     2.617080700909   128.43182643   359.39319352
 C     21  20  17     2.627027730588   112.34234993   179.94123060
 C     22  21  20     2.619011652177   113.11275792   359.54560831
 S     23  22  21     3.236250120878   112.62411538     0.44724388
 C     23  22  21     2.696358507751   110.91488647   179.38586927
 C     25  23  22     2.675987764492   106.95750732     0.38141806
 C     22  21  20     2.848532933942   136.68451020   182.14726001
 C     27  22  21     2.902229161649   112.16093191   300.36966506
 C     28  27  22     2.880851231869   112.44808575   306.78152030
 C     27  22  21     2.923030670605   107.01574645    63.23311666
 C     30  27  22     2.877427526556   115.99684899   173.85675604
 C     26  25  23     2.599781924657   119.90573638   182.42966443
 C     32  26  25     2.633652850481   117.61146912   358.66885014
 C     33  32  26     2.676199645059   122.34762593     1.69079312
 C     34  33  32     2.598568235340   120.07979772   358.31003756
 C     34  33  32     2.867590379902   110.93234242   179.17073442
 C     36  34  33     2.901196421431   112.30005242   124.27519779
 C     37  36  34     2.880660010535   112.42271705   300.85383946
 C     36  34  33     2.923904734878   111.90044348   250.91287538
 C     39  36  34     2.877325823668   115.90556371   296.79701229
 C     36  34  33     2.847547586063   100.81983142     4.41236565
 C     41  36  34     2.623547677847   110.47656502   355.47404481
 S     42  41  36     3.240684361877   112.72604914   181.25721853
 C     43  42  41     3.307960099406    90.17954139   359.95262383
 C     41  36  34     2.620574082978   136.57342241   177.48242337
 C     44  43  42     2.693922410608   120.28000148   180.91399169
 C     46  44  43     2.685037772076   120.88690689   359.22315459
 N     47  46  44     2.513141236530   126.55763311   359.33449609
 S     48  47  46     3.040117611125   108.95899342   179.93376862
 N     49  48  47     3.039944638737    98.03975487   359.96251585
 C     50  49  48     2.514955047842   109.13230682     0.03866315
 C     51  50  49     2.694252088883   126.98226580   180.04920632
 C     52  51  50     2.634128435130   115.54491498   180.28541090
 C     53  52  51     2.623550055995   123.00280457   359.60896052
 C     52  51  50     2.692145875172   116.82759440     0.65253142
 C     55  52  51     2.572378174770   133.41925935   179.95725444
 S     56  55  52     3.334277371125   117.72590728   180.60665798
 C     57  56  55     3.309690347493    92.44118377   180.06192767
 S     58  57  56     3.085271412796   124.52645094   179.82964620
 N     58  57  56     2.562579129425   109.84988041     0.32797919
 C     60  58  57     2.741181528425   121.81622654   181.03038540
 C     61  60  58     2.878585108637   111.23350164    83.36054650
 C     60  58  57     2.619916577453   118.05454288   359.47810191
 O     63  60  58     2.295215792586   121.37370142   179.96725832
 H      5   4   2     2.064197773279   106.50687325   156.54370399
 H      5   4   2     2.064413350893   107.98203284    38.20911775
 H      6   5   4     2.054651262950   110.26791272   300.25147083
 H      6   5   4     2.051565630182   109.57762557   180.46385556
 H      6   5   4     2.054424521982   110.25367030    60.82879624
 H     10   9   7     2.053211357098   113.00782019     0.03555072
 H     18  17  16     2.041565192536   118.25384508   179.75817562
 H     19  18  17     2.040954610936   118.50455655   180.06616893
 H     21  20  17     2.029523390162   121.68332084   359.56647741
 H     28  27  22     2.060677875527   109.01222776   185.81756688
 H     28  27  22     2.063447426848   108.63156739    68.10231834
 H     29  28  27     2.056174326966   110.61519045   301.56785487
 H     29  28  27     2.054921139022   110.10846620   181.70174428
 H     29  28  27     2.055463591471   110.82069805    61.84606957
 H     30  27  22     2.065990737115   107.86113046    51.75861689
 H     30  27  22     2.064461520647   107.29601714   296.14265279
 H     31  30  27     2.052829015831   111.02654840   295.45362476
 H     31  30  27     2.055892116227   109.15627228   176.50195107
 H     31  30  27     2.053361539776   111.47759616    57.30010322
 H     32  26  25     2.038303848230   122.58472307   178.38054745
 H     35  34  33     2.038733742754   122.58929686   181.88775587
 H     37  36  34     2.063717127453   108.69265399   179.45431310
 H     37  36  34     2.060626486578   109.06472863    61.85423063
 H     38  37  36     2.055269577718   110.83042479   298.74779391
 H     38  37  36     2.055012871419   110.13234143   178.80437677
 H     38  37  36     2.055791308300   110.57209603    58.91863564
 H     39  36  34     2.064495962101   107.44107035   174.48103282
 H     39  36  34     2.065771476757   107.81295254    58.79769844
 H     40  39  36     2.053445008197   111.48245389   302.18576167
 H     40  39  36     2.055830892658   109.20126402   182.94260780
 H     40  39  36     2.052896890511   110.96002824    63.97740190
 H     45  41  36     2.030577494555   124.56241839   357.87601124
 H     53  52  51     2.035547978194   118.61798578   179.76870177
 H     54  53  52     2.037890391277   117.78488292   180.24762931
 H     55  52  51     2.051071977946   112.04612261     0.23784265
 H     61  60  58     2.064203099600   107.95200377   322.03534735
 H     61  60  58     2.064597953251   106.50992391   203.74851234
 H     62  61  60     2.054867245663   110.30376889   298.94746239
 H     62  61  60     2.052128794585   109.50961673   179.34047938
 H     62  61  60     2.055268807216   110.29883019    59.60037047

---------------------
BASIS SET INFORMATION
---------------------
There are 5 groups of distinct atoms

 Group   1 Type S   : 14s9p3d1f contracted to 5s5p2d1f pattern {73211/51111/21/1}
 Group   2 Type C   : 11s6p2d1f contracted to 5s3p2d1f pattern {62111/411/11/1}
 Group   3 Type N   : 11s6p2d1f contracted to 5s3p2d1f pattern {62111/411/11/1}
 Group   4 Type O   : 11s6p2d1f contracted to 5s3p2d1f pattern {62111/411/11/1}
 Group   5 Type H   : 5s1p contracted to 3s1p pattern {311/1}

Atom   0S    basis set group =>   1
Atom   1C    basis set group =>   2
Atom   2S    basis set group =>   1
Atom   3N    basis set group =>   3
Atom   4C    basis set group =>   2
Atom   5C    basis set group =>   2
Atom   6C    basis set group =>   2
Atom   7O    basis set group =>   4
Atom   8C    basis set group =>   2
Atom   9C    basis set group =>   2
Atom  10C    basis set group =>   2
Atom  11C    basis set group =>   2
Atom  12N    basis set group =>   3
Atom  13S    basis set group =>   1
Atom  14N    basis set group =>   3
Atom  15C    basis set group =>   2
Atom  16C    basis set group =>   2
Atom  17C    basis set group =>   2
Atom  18C    basis set group =>   2
Atom  19C    basis set group =>   2
Atom  20C    basis set group =>   2
Atom  21C    basis set group =>   2
Atom  22C    basis set group =>   2
Atom  23S    basis set group =>   1
Atom  24C    basis set group =>   2
Atom  25C    basis set group =>   2
Atom  26C    basis set group =>   2
Atom  27C    basis set group =>   2
Atom  28C    basis set group =>   2
Atom  29C    basis set group =>   2
Atom  30C    basis set group =>   2
Atom  31C    basis set group =>   2
Atom  32C    basis set group =>   2
Atom  33C    basis set group =>   2
Atom  34C    basis set group =>   2
Atom  35C    basis set group =>   2
Atom  36C    basis set group =>   2
Atom  37C    basis set group =>   2
Atom  38C    basis set group =>   2
Atom  39C    basis set group =>   2
Atom  40C    basis set group =>   2
Atom  41C    basis set group =>   2
Atom  42S    basis set group =>   1
Atom  43C    basis set group =>   2
Atom  44C    basis set group =>   2
Atom  45C    basis set group =>   2
Atom  46C    basis set group =>   2
Atom  47N    basis set group =>   3
Atom  48S    basis set group =>   1
Atom  49N    basis set group =>   3
Atom  50C    basis set group =>   2
Atom  51C    basis set group =>   2
Atom  52C    basis set group =>   2
Atom  53C    basis set group =>   2
Atom  54C    basis set group =>   2
Atom  55C    basis set group =>   2
Atom  56S    basis set group =>   1
Atom  57C    basis set group =>   2
Atom  58S    basis set group =>   1
Atom  59N    basis set group =>   3
Atom  60C    basis set group =>   2
Atom  61C    basis set group =>   2
Atom  62C    basis set group =>   2
Atom  63O    basis set group =>   4
Atom  64H    basis set group =>   5
Atom  65H    basis set group =>   5
Atom  66H    basis set group =>   5
Atom  67H    basis set group =>   5
Atom  68H    basis set group =>   5
Atom  69H    basis set group =>   5
Atom  70H    basis set group =>   5
Atom  71H    basis set group =>   5
Atom  72H    basis set group =>   5
Atom  73H    basis set group =>   5
Atom  74H    basis set group =>   5
Atom  75H    basis set group =>   5
Atom  76H    basis set group =>   5
Atom  77H    basis set group =>   5
Atom  78H    basis set group =>   5
Atom  79H    basis set group =>   5
Atom  80H    basis set group =>   5
Atom  81H    basis set group =>   5
Atom  82H    basis set group =>   5
Atom  83H    basis set group =>   5
Atom  84H    basis set group =>   5
Atom  85H    basis set group =>   5
Atom  86H    basis set group =>   5
Atom  87H    basis set group =>   5
Atom  88H    basis set group =>   5
Atom  89H    basis set group =>   5
Atom  90H    basis set group =>   5
Atom  91H    basis set group =>   5
Atom  92H    basis set group =>   5
Atom  93H    basis set group =>   5
Atom  94H    basis set group =>   5
Atom  95H    basis set group =>   5
Atom  96H    basis set group =>   5
Atom  97H    basis set group =>   5
Atom  98H    basis set group =>   5
Atom  99H    basis set group =>   5
Atom 100H    basis set group =>   5
Atom 101H    basis set group =>   5
Atom 102H    basis set group =>   5
Atom 103H    basis set group =>   5
---------------------------------
AUXILIARY/J BASIS SET INFORMATION
---------------------------------
There are 5 groups of distinct atoms

 Group   1 Type S   : 14s5p5d2f1g contracted to 8s4p3d1f1g pattern {71111111/2111/311/2/1}
 Group   2 Type C   : 12s5p4d2f1g contracted to 6s4p3d1f1g pattern {711111/2111/211/2/1}
 Group   3 Type N   : 12s5p4d2f1g contracted to 6s4p3d1f1g pattern {711111/2111/211/2/1}
 Group   4 Type O   : 12s5p4d2f1g contracted to 6s4p3d1f1g pattern {711111/2111/211/2/1}
 Group   5 Type H   : 5s2p1d contracted to 3s1p1d pattern {311/2/1}

Atom   0S    basis set group =>   1
Atom   1C    basis set group =>   2
Atom   2S    basis set group =>   1
Atom   3N    basis set group =>   3
Atom   4C    basis set group =>   2
Atom   5C    basis set group =>   2
Atom   6C    basis set group =>   2
Atom   7O    basis set group =>   4
Atom   8C    basis set group =>   2
Atom   9C    basis set group =>   2
Atom  10C    basis set group =>   2
Atom  11C    basis set group =>   2
Atom  12N    basis set group =>   3
Atom  13S    basis set group =>   1
Atom  14N    basis set group =>   3
Atom  15C    basis set group =>   2
Atom  16C    basis set group =>   2
Atom  17C    basis set group =>   2
Atom  18C    basis set group =>   2
Atom  19C    basis set group =>   2
Atom  20C    basis set group =>   2
Atom  21C    basis set group =>   2
Atom  22C    basis set group =>   2
Atom  23S    basis set group =>   1
Atom  24C    basis set group =>   2
Atom  25C    basis set group =>   2
Atom  26C    basis set group =>   2
Atom  27C    basis set group =>   2
Atom  28C    basis set group =>   2
Atom  29C    basis set group =>   2
Atom  30C    basis set group =>   2
Atom  31C    basis set group =>   2
Atom  32C    basis set group =>   2
Atom  33C    basis set group =>   2
Atom  34C    basis set group =>   2
Atom  35C    basis set group =>   2
Atom  36C    basis set group =>   2
Atom  37C    basis set group =>   2
Atom  38C    basis set group =>   2
Atom  39C    basis set group =>   2
Atom  40C    basis set group =>   2
Atom  41C    basis set group =>   2
Atom  42S    basis set group =>   1
Atom  43C    basis set group =>   2
Atom  44C    basis set group =>   2
Atom  45C    basis set group =>   2
Atom  46C    basis set group =>   2
Atom  47N    basis set group =>   3
Atom  48S    basis set group =>   1
Atom  49N    basis set group =>   3
Atom  50C    basis set group =>   2
Atom  51C    basis set group =>   2
Atom  52C    basis set group =>   2
Atom  53C    basis set group =>   2
Atom  54C    basis set group =>   2
Atom  55C    basis set group =>   2
Atom  56S    basis set group =>   1
Atom  57C    basis set group =>   2
Atom  58S    basis set group =>   1
Atom  59N    basis set group =>   3
Atom  60C    basis set group =>   2
Atom  61C    basis set group =>   2
Atom  62C    basis set group =>   2
Atom  63O    basis set group =>   4
Atom  64H    basis set group =>   5
Atom  65H    basis set group =>   5
Atom  66H    basis set group =>   5
Atom  67H    basis set group =>   5
Atom  68H    basis set group =>   5
Atom  69H    basis set group =>   5
Atom  70H    basis set group =>   5
Atom  71H    basis set group =>   5
Atom  72H    basis set group =>   5
Atom  73H    basis set group =>   5
Atom  74H    basis set group =>   5
Atom  75H    basis set group =>   5
Atom  76H    basis set group =>   5
Atom  77H    basis set group =>   5
Atom  78H    basis set group =>   5
Atom  79H    basis set group =>   5
Atom  80H    basis set group =>   5
Atom  81H    basis set group =>   5
Atom  82H    basis set group =>   5
Atom  83H    basis set group =>   5
Atom  84H    basis set group =>   5
Atom  85H    basis set group =>   5
Atom  86H    basis set group =>   5
Atom  87H    basis set group =>   5
Atom  88H    basis set group =>   5
Atom  89H    basis set group =>   5
Atom  90H    basis set group =>   5
Atom  91H    basis set group =>   5
Atom  92H    basis set group =>   5
Atom  93H    basis set group =>   5
Atom  94H    basis set group =>   5
Atom  95H    basis set group =>   5
Atom  96H    basis set group =>   5
Atom  97H    basis set group =>   5
Atom  98H    basis set group =>   5
Atom  99H    basis set group =>   5
Atom 100H    basis set group =>   5
Atom 101H    basis set group =>   5
Atom 102H    basis set group =>   5
Atom 103H    basis set group =>   5
------------------------------------------------------------------------------
                           ORCA GTO INTEGRAL CALCULATION
                           -- RI-GTO INTEGRALS CHOSEN --
------------------------------------------------------------------------------

                         BASIS SET STATISTICS AND STARTUP INFO

Gaussian basis set:
 # of primitive gaussian shells          ... 1576
 # of primitive gaussian functions       ... 3400
 # of contracted shells                  ...  880
 # of contracted basis functions         ... 2272
 Highest angular momentum                ...    3
 Maximum contraction depth               ...    7
Auxiliary gaussian basis set:
 # of primitive gaussian shells          ... 1880
 # of primitive gaussian functions       ... 5176
 # of contracted shells                  ... 1176
 # of contracted aux-basis functions     ... 3592
 Highest angular momentum                ...    4
 Maximum contraction depth               ...    7
Ratio of auxiliary to basis functions    ...  1.58
Integral package used                  ... LIBINT
 One Electron integrals                  ... done
 Ordering auxiliary basis shells         ... done
 Integral threshhold             Thresh  ...  2.500e-11
 Primitive cut-off               TCut    ...  2.500e-12
 Pre-screening matrix                    ... done
 Shell pair data                         ... 
 Ordering of the shell pairs             ... done (   0.031 sec) 126547 of 387640 pairs
 Determination of significant pairs      ... done (   0.001 sec)
 Creation of shell pair data             ... done (   0.016 sec)
 Storage of shell pair data              ... done (   0.020 sec)
 Shell pair data done in (   0.068 sec)
 Computing two index integrals           ... done
 Cholesky decomposition of the V-matrix  ... done


Timings:
 Total evaluation time                   ...   5.858 sec (  0.098 min)
 One electron matrix time                ...   1.979 sec (  0.033 min) = 33.8%
 Schwartz matrix evaluation time         ...   2.999 sec (  0.050 min) = 51.2%
 Two index repulsion integral time       ...   0.347 sec (  0.006 min) =  5.9%
 Cholesky decomposition of V             ...   0.448 sec (  0.007 min) =  7.6%
 Three index repulsion integral time     ...   0.000 sec (  0.000 min) =  0.0%

-------------------------------------------------------------------------------
                                 ORCA SCF
-------------------------------------------------------------------------------

------------
SCF SETTINGS
------------
Hamiltonian:
 Density Functional     Method          .... DFT(GTOs)
 Exchange Functional    Exchange        .... B88
   X-Alpha parameter    XAlpha          ....  0.666667
   Becke's b parameter  XBeta           ....  0.004200
 Correlation Functional Correlation     .... LYP
 LDA part of GGA corr.  LDAOpt          .... VWN-5
 Gradients option       PostSCFGGA      .... off
 Hybrid DFT is turned on
   Fraction HF Exchange ScalHFX         ....  0.200000
   Scaling of DF-GGA-X  ScalDFX         ....  0.720000
   Scaling of DF-GGA-C  ScalDFC         ....  0.810000
   Scaling of DF-LDA-C  ScalLDAC        ....  1.000000
   Perturbative correction              ....  0.000000
   Density functional embedding theory  .... OFF
   NL short-range parameter             ....  4.800000
 RI-approximation to the Coulomb term is turned on
   Number of auxiliary basis functions  .... 3592
   RIJ-COSX (HFX calculated with COS-X)).... on


General Settings:
 Integral files         IntName         .... O-IDTBR
 Hartree-Fock type      HFTyp           .... RHF
 Total Charge           Charge          ....    0
 Multiplicity           Mult            ....    1
 Number of Electrons    NEL             ....  514
 Basis Dimension        Dim             .... 2272
 Nuclear Repulsion      ENuc            ....  10018.5319708885 Eh

Convergence Acceleration:
 DIIS                   CNVDIIS         .... on
   Start iteration      DIISMaxIt       ....    12
   Startup error        DIISStart       ....  0.200000
   # of expansion vecs  DIISMaxEq       ....     5
   Bias factor          DIISBfac        ....   1.050
   Max. coefficient     DIISMaxC        ....  10.000
 Newton-Raphson         CNVNR           .... off
 SOSCF                  CNVSOSCF        .... on
   Start iteration      SOSCFMaxIt      ....   150
   Startup grad/error   SOSCFStart      ....  0.003300
 Level Shifting         CNVShift        .... on
   Level shift para.    LevelShift      ....    0.2500
   Turn off err/grad.   ShiftErr        ....    0.0010
 Zerner damping         CNVZerner       .... off
 Static damping         CNVDamp         .... on
   Fraction old density DampFac         ....    0.7000
   Max. Damping (<1)    DampMax         ....    0.9800
   Min. Damping (>=0)   DampMin         ....    0.0000
   Turn off err/grad.   DampErr         ....    0.1000
 Fernandez-Rico         CNVRico         .... off

SCF Procedure:
 Maximum # iterations   MaxIter         ....   125
 SCF integral mode      SCFMode         .... Direct
   Integral package                     .... LIBINT
 Reset frequency        DirectResetFreq ....    20
 Integral Threshold     Thresh          ....  2.500e-11 Eh
 Primitive CutOff       TCut            ....  2.500e-12 Eh

Convergence Tolerance:
 Convergence Check Mode ConvCheckMode   .... Total+1el-Energy
 Convergence forced     ConvForced      .... 1
 Energy Change          TolE            ....  1.000e-08 Eh
 1-El. energy change                    ....  1.000e-05 Eh
 Orbital Gradient       TolG            ....  1.000e-05
 Orbital Rotation angle TolX            ....  1.000e-05
 DIIS Error             TolErr          ....  5.000e-07


Diagonalization of the overlap matrix:
Smallest eigenvalue                        ... 2.289e-06
Time for diagonalization                   ...    2.382 sec
Threshold for overlap eigenvalues          ... 1.000e-08
Number of eigenvalues below threshold      ... 0
Time for construction of square roots      ...    0.941 sec
Total time needed                          ...    3.350 sec

-------------------
DFT GRID GENERATION
-------------------

General Integration Accuracy     IntAcc      ...  4.670
Radial Grid Type                 RadialGrid  ... Gauss-Chebyshev
Angular Grid (max. acc.)         AngularGrid ... Lebedev-302
Angular grid pruning method      GridPruning ... 3 (G Style)
Weight generation scheme         WeightScheme... Becke
Basis function cutoff            BFCut       ...    1.0000e-11
Integration weight cutoff        WCut        ...    1.0000e-14
Grids for H and He will be reduced by one unit

# of grid points (after initial pruning)     ... 538400 (   1.9 sec)
# of grid points (after weights+screening)   ... 459491 (  23.4 sec)
nearest neighbour list constructed           ...    0.0 sec
Grid point re-assignment to atoms done       ...    0.1 sec
Grid point division into batches done        ...    1.6 sec
Reduced shell lists constructed in   13.9 sec

Total number of grid points                  ...   459491
Total number of batches                      ...     7228
Average number of points per batch           ...       63
Average number of grid points per atom       ...     4418
Average number of shells per batch           ...   157.87 (17.94%)
Average number of basis functions per batch  ...   391.60 (17.24%)
Average number of large shells per batch     ...    96.93 (61.40%)
Average number of large basis fcns per batch ...   244.28 (62.38%)
Maximum spatial batch extension              ...  20.99, 23.71, 23.09 au
Average spatial batch extension              ...   2.10,  2.13,  2.28 au

Time for grid setup =   39.282 sec

------------------------------
INITIAL GUESS: MODEL POTENTIAL
------------------------------
Loading Hartree-Fock densities                     ... done
Calculating cut-offs                               ... done
Setting up the integral package                    ... done
Initializing the effective Hamiltonian             ... done
Starting the Coulomb interaction                   ... done (  24.5 sec)
Reading the grid                                   ... done
Mapping shells                                     ... done
Starting the XC term evaluation                    ... done (  22.4 sec)
  promolecular density results
     # of electrons  =    513.978743171
     EX              =   -515.314487951
     EC              =    -18.532944390
     EX+EC           =   -533.847432341
Transforming the Hamiltonian                       ... done (   0.9 sec)
Diagonalizing the Hamiltonian                      ... done (   2.4 sec)
Back transforming the eigenvectors                 ... done (   0.4 sec)
Now organizing SCF variables                       ... done
                      ------------------
                      INITIAL GUESS DONE (  90.6 sec)
                      ------------------
--------------------
COSX GRID GENERATION
--------------------

General Integration Accuracy     IntAcc      ...  3.340
Radial Grid Type                 RadialGrid  ... Gauss-Chebyshev
Angular Grid (max. acc.)         AngularGrid ... Lebedev-50
Angular grid pruning method      GridPruning ... 3 (G Style)
Weight generation scheme         WeightScheme... Becke
Basis function cutoff            BFCut       ...    1.0000e-11
Integration weight cutoff        WCut        ...    1.0000e-14
Grids for H and He will be reduced by one unit

# of grid points (after initial pruning)     ...  50844 (   0.1 sec)
# of grid points (after weights+screening)   ...  45356 (   2.2 sec)
nearest neighbour list constructed           ...    0.0 sec
Grid point re-assignment to atoms done       ...    0.0 sec
Grid point division into batches done        ...    0.0 sec
Reduced shell lists constructed in    1.6 sec

Total number of grid points                  ...    45356
Total number of batches                      ...      763
Average number of points per batch           ...       59
Average number of grid points per atom       ...      436
Average number of shells per batch           ...   190.81 (21.68%)
Average number of basis functions per batch  ...   479.65 (21.11%)
Average number of large shells per batch     ...   118.87 (62.29%)
Average number of large basis fcns per batch ...   305.40 (63.67%)
Maximum spatial batch extension              ...  16.79, 18.46, 28.97 au
Average spatial batch extension              ...   4.20,  4.16,  5.08 au

Overlap Fitting                  UseSFitting ... on
Constructing numerical overlap ... done (      1.7 sec)
Inverting numerical overlap    ... done (      0.3 sec)
Obtaining analytic overlap     ... done (      0.0 sec)
Final contraction and storage  ... done (      0.4 sec)


General Integration Accuracy     IntAcc      ...  3.670
Radial Grid Type                 RadialGrid  ... Gauss-Chebyshev
Angular Grid (max. acc.)         AngularGrid ... Lebedev-50
Angular grid pruning method      GridPruning ... 3 (G Style)
Weight generation scheme         WeightScheme... Becke
Basis function cutoff            BFCut       ...    1.0000e-11
Integration weight cutoff        WCut        ...    1.0000e-14
Grids for H and He will be reduced by one unit

# of grid points (after initial pruning)     ...  63984 (   0.1 sec)
# of grid points (after weights+screening)   ...  56837 (   2.8 sec)
nearest neighbour list constructed           ...    0.0 sec
Grid point re-assignment to atoms done       ...    0.0 sec
Grid point division into batches done        ...    0.0 sec
Reduced shell lists constructed in    2.0 sec

Total number of grid points                  ...    56837
Total number of batches                      ...      938
Average number of points per batch           ...       60
Average number of grid points per atom       ...      547
Average number of shells per batch           ...   186.20 (21.16%)
Average number of basis functions per batch  ...   467.14 (20.56%)
Average number of large shells per batch     ...   115.29 (61.92%)
Average number of large basis fcns per batch ...   295.11 (63.17%)
Maximum spatial batch extension              ...  18.48, 17.55, 33.99 au
Average spatial batch extension              ...   3.93,  3.86,  4.70 au

Overlap Fitting                  UseSFitting ... on
Constructing numerical overlap ... done (      2.0 sec)
Inverting numerical overlap    ... done (      0.3 sec)
Obtaining analytic overlap     ... done (      0.0 sec)
Final contraction and storage  ... done (      0.4 sec)


General Integration Accuracy     IntAcc      ...  4.010
Radial Grid Type                 RadialGrid  ... Gauss-Chebyshev
Angular Grid (max. acc.)         AngularGrid ... Lebedev-110
Angular grid pruning method      GridPruning ... 3 (G Style)
Weight generation scheme         WeightScheme... Becke
Basis function cutoff            BFCut       ...    1.0000e-11
Integration weight cutoff        WCut        ...    1.0000e-14
Grids for H and He will be reduced by one unit

# of grid points (after initial pruning)     ... 121892 (   0.2 sec)
# of grid points (after weights+screening)   ... 107265 (   5.3 sec)
nearest neighbour list constructed           ...    0.0 sec
Grid point re-assignment to atoms done       ...    0.0 sec
Grid point division into batches done        ...    0.1 sec
Reduced shell lists constructed in    3.4 sec

Total number of grid points                  ...   107265
Total number of batches                      ...     1730
Average number of points per batch           ...       62
Average number of grid points per atom       ...     1031
Average number of shells per batch           ...   177.29 (20.15%)
Average number of basis functions per batch  ...   444.10 (19.55%)
Average number of large shells per batch     ...   110.17 (62.14%)
Average number of large basis fcns per batch ...   281.16 (63.31%)
Maximum spatial batch extension              ...  20.96, 20.30, 32.78 au
Average spatial batch extension              ...   3.34,  3.34,  3.84 au

Overlap Fitting                  UseSFitting ... on
Constructing numerical overlap ... done (      3.4 sec)
Inverting numerical overlap    ... done (      0.3 sec)
Obtaining analytic overlap     ... done (      0.0 sec)
Final contraction and storage  ... done (      0.4 sec)

Time for X-Grid setup             =   27.059 sec
--------------
SCF ITERATIONS
--------------
ITER       Energy         Delta-E        Max-DP      RMS-DP      [F,P]     Damp
               ***  Starting incremental Fock matrix formation  ***
  0  -5514.9376187962   0.000000000000 0.31730646  0.00073959  0.3027634 0.7000
  1  -5515.8768969057  -0.939278109485 0.25292961  0.00059607  0.1104422 0.7000
                               ***Turning on DIIS***
  2  -5516.2048288806  -0.327931974853 0.21231012  0.00104585  0.0366188 0.0000
  3  -5516.7051640310  -0.500335150469 0.21120252  0.00048716  0.0623050 0.0000
  4  -5516.8548796774  -0.149715646327 0.04131759  0.00019719  0.0214732 0.0000
  5  -5516.8641435349  -0.009263857555 0.03309525  0.00009616  0.0149091 0.0000
  6  -5516.8654020226  -0.001258487675 0.00792447  0.00003559  0.0035154 0.0000
                      *** Initiating the SOSCF procedure ***
                           *** Shutting down DIIS ***
                      *** Re-Reading the Fockian *** 
                      *** Removing any level shift *** 
ITER      Energy       Delta-E        Grad      Rot      Max-DP    RMS-DP
  7  -5516.86554375  -0.0001417239  0.000562  0.000562  0.004202  0.000014
               *** Restarting incremental Fock matrix formation ***
  8  -5516.86557815  -0.0000344023  0.000357  0.004871  0.016592  0.000081
  9  -5516.86558775  -0.0000096043  0.000170  0.001205  0.007498  0.000038
 10  -5516.86558930  -0.0000015498  0.000160  0.000980  0.007057  0.000034
 11  -5516.86559252  -0.0000032160  0.000085  0.000985  0.003338  0.000017
 12  -5516.86559216   0.0000003578  0.000103  0.000872  0.002881  0.000014
 13  -5516.86559341  -0.0000012505  0.000039  0.000182  0.001141  0.000006
 14  -5516.86559318   0.0000002307  0.000047  0.000246  0.001006  0.000005
 15  -5516.86559365  -0.0000004706  0.000011  0.000074  0.000972  0.000002
 16  -5516.86559362   0.0000000273  0.000020  0.000051  0.000530  0.000002
 17  -5516.86559370  -0.0000000731  0.000003  0.000020  0.000956  0.000002
 18  -5516.86559361   0.0000000898  0.000004  0.000012  0.000614  0.000001
                  ***Gradient check signals convergence***
              ***Rediagonalizing the Fockian in SOSCF/NRSCF***

               *****************************************************
               *                     SUCCESS                       *
               *           SCF CONVERGED AFTER  19 CYCLES          *
               *****************************************************

Setting up the final grid:

General Integration Accuracy     IntAcc      ...  5.010
Radial Grid Type                 RadialGrid  ... Gauss-Chebyshev
Angular Grid (max. acc.)         AngularGrid ... Lebedev-434
Angular grid pruning method      GridPruning ... 3 (G Style)
Weight generation scheme         WeightScheme... Becke
Basis function cutoff            BFCut       ...    1.0000e-11
Integration weight cutoff        WCut        ...    1.0000e-14
Grids for H and He will be reduced by one unit

# of grid points (after initial pruning)     ... 960328 (   1.5 sec)
# of grid points (after weights+screening)   ... 816974 (  41.8 sec)
nearest neighbour list constructed           ...    0.0 sec
Grid point re-assignment to atoms done       ...    0.1 sec
Grid point division into batches done        ...    5.3 sec
Reduced shell lists constructed in   25.0 sec

Total number of grid points                  ...   816974
Total number of batches                      ...    12819
Average number of points per batch           ...       63
Average number of grid points per atom       ...     7856
Average number of shells per batch           ...   152.47 (17.33%)
Average number of basis functions per batch  ...   376.63 (16.58%)
Average number of large shells per batch     ...    93.30 (61.19%)
Average number of large basis fcns per batch ...   234.14 (62.17%)
Maximum spatial batch extension              ...  22.19, 21.50, 25.83 au
Average spatial batch extension              ...   1.71,  1.72,  1.84 au

Final grid set up in   68.5 sec
Final integration                            ... done (  51.8 sec)
Change in XC energy                          ...    -0.000258642
Integrated number of electrons               ...   513.999826957
Previous integrated no of electrons          ...   513.998952368
Old exchange energy                            =   -104.044087559 Eh
New exchange energy                            =   -104.046804747 Eh
Exchange energy change after final integration =     -0.002717188 Eh
Total energy after final integration           =  -5516.868569484 Eh
Final COS-X integration done in                =  1419.424 sec

----------------
TOTAL SCF ENERGY
----------------

Total Energy       :        -5516.86856948 Eh         -150121.62581 eV

Components:
Nuclear Repulsion  :        10018.53197089 Eh          272618.11457 eV
Electronic Energy  :       -15535.40054037 Eh         -422739.74038 eV
One Electron Energy:       -27528.07600031 Eh         -749077.03031 eV
Two Electron Energy:        11992.67545993 Eh          326337.28993 eV

Virial components:
Potential Energy   :       -11019.91866444 Eh         -299867.23181 eV
Kinetic Energy     :         5503.05009496 Eh          149745.60600 eV
Virial Ratio       :            2.00251106


DFT components:
N(Alpha)           :      256.999913478473 electrons
N(Beta)            :      256.999913478473 electrons
N(Total)           :      513.999826956946 electrons
E(X)               :     -413.355764395464 Eh       
E(C)               :      -21.743067293733 Eh       
E(XC)              :     -435.098831689197 Eh       
DFET-embed. en.    :        0.000000000000 Eh       

---------------
SCF CONVERGENCE
---------------

  Last Energy change         ...   -4.6513e-08  Tolerance :   1.0000e-08
  Last MAX-Density change    ...    4.5519e-15  Tolerance :   1.0000e-07
  Last RMS-Density change    ...    1.4142e-17  Tolerance :   5.0000e-09
  Last Orbital Gradient      ...    8.6010e-07  Tolerance :   1.0000e-05
  Last Orbital Rotation      ...    5.0395e-06  Tolerance :   1.0000e-05

             **** THE GBW FILE WAS UPDATED (O-IDTBR.gbw) ****
             **** DENSITY FILE WAS UPDATED (O-IDTBR.scfp) ****
             **** ENERGY FILE WAS UPDATED (O-IDTBR.en.tmp) ****
             **** THE GBW FILE WAS UPDATED (O-IDTBR.gbw) ****
             **** DENSITY FILE WAS UPDATED (O-IDTBR.scfp) ****
----------------
ORBITAL ENERGIES
----------------

  NO   OCC          E(Eh)            E(eV) 
   0   2.0000     -88.961574     -2420.7675 
   1   2.0000     -88.957991     -2420.6700 
   2   2.0000     -88.899101     -2419.0675 
   3   2.0000     -88.894558     -2418.9439 
   4   2.0000     -88.894142     -2418.9326 
   5   2.0000     -88.887045     -2418.7395 
   6   2.0000     -88.821254     -2416.9492 
   7   2.0000     -88.816993     -2416.8332 
   8   2.0000     -19.122783      -520.3574 
   9   2.0000     -19.112871      -520.0877 
  10   2.0000     -14.387842      -391.5131 
  11   2.0000     -14.380558      -391.3149 
  12   2.0000     -14.361295      -390.7907 
  13   2.0000     -14.361179      -390.7875 
  14   2.0000     -14.358563      -390.7164 
  15   2.0000     -14.356740      -390.6668 
  16   2.0000     -10.301930      -280.3298 
  17   2.0000     -10.290586      -280.0211 
  18   2.0000     -10.289063      -279.9796 
  19   2.0000     -10.276807      -279.6461 
  20   2.0000     -10.244486      -278.7666 
  21   2.0000     -10.243899      -278.7507 
  22   2.0000     -10.238444      -278.6022 
  23   2.0000     -10.238001      -278.5902 
  24   2.0000     -10.230495      -278.3859 
  25   2.0000     -10.223902      -278.2065 
  26   2.0000     -10.223103      -278.1848 
  27   2.0000     -10.222894      -278.1791 
  28   2.0000     -10.221826      -278.1500 
  29   2.0000     -10.220314      -278.1089 
  30   2.0000     -10.214398      -277.9479 
  31   2.0000     -10.214057      -277.9386 
  32   2.0000     -10.213977      -277.9365 
  33   2.0000     -10.212841      -277.9055 
  34   2.0000     -10.209207      -277.8067 
  35   2.0000     -10.208348      -277.7833 
  36   2.0000     -10.208119      -277.7770 
  37   2.0000     -10.205072      -277.6941 
  38   2.0000     -10.204886      -277.6891 
  39   2.0000     -10.204799      -277.6867 
  40   2.0000     -10.204745      -277.6852 
  41   2.0000     -10.201430      -277.5950 
  42   2.0000     -10.201289      -277.5912 
  43   2.0000     -10.200664      -277.5742 
  44   2.0000     -10.197159      -277.4788 
  45   2.0000     -10.195192      -277.4253 
  46   2.0000     -10.194832      -277.4155 
  47   2.0000     -10.194193      -277.3981 
  48   2.0000     -10.192731      -277.3583 
  49   2.0000     -10.190958      -277.3101 
  50   2.0000     -10.190505      -277.2977 
  51   2.0000     -10.188974      -277.2561 
  52   2.0000     -10.187699      -277.2214 
  53   2.0000     -10.187207      -277.2080 
  54   2.0000     -10.182747      -277.0866 
  55   2.0000     -10.181769      -277.0600 
  56   2.0000     -10.181644      -277.0566 
  57   2.0000     -10.180604      -277.0283 
  58   2.0000     -10.167020      -276.6587 
  59   2.0000     -10.165947      -276.6295 
  60   2.0000     -10.165525      -276.6180 
  61   2.0000     -10.162615      -276.5388 
  62   2.0000     -10.161657      -276.5128 
  63   2.0000     -10.160929      -276.4929 
  64   2.0000      -8.032558      -218.5770 
  65   2.0000      -8.028827      -218.4755 
  66   2.0000      -7.975697      -217.0297 
  67   2.0000      -7.971158      -216.9062 
  68   2.0000      -7.970281      -216.8824 
  69   2.0000      -7.963006      -216.6844 
  70   2.0000      -7.900000      -214.9699 
  71   2.0000      -7.895718      -214.8534 
  72   2.0000      -5.997104      -163.1895 
  73   2.0000      -5.993277      -163.0854 
  74   2.0000      -5.989761      -162.9897 
  75   2.0000      -5.989665      -162.9871 
  76   2.0000      -5.986092      -162.8899 
  77   2.0000      -5.985993      -162.8871 
  78   2.0000      -5.938048      -161.5825 
  79   2.0000      -5.934456      -161.4848 
  80   2.0000      -5.934120      -161.4756 
  81   2.0000      -5.932787      -161.4393 
  82   2.0000      -5.932442      -161.4300 
  83   2.0000      -5.930190      -161.3687 
  84   2.0000      -5.928817      -161.3313 
  85   2.0000      -5.927058      -161.2834 
  86   2.0000      -5.926642      -161.2721 
  87   2.0000      -5.926156      -161.2589 
  88   2.0000      -5.921895      -161.1430 
  89   2.0000      -5.918385      -161.0474 
  90   2.0000      -5.862444      -159.5252 
  91   2.0000      -5.859848      -159.4546 
  92   2.0000      -5.858037      -159.4053 
  93   2.0000      -5.855712      -159.3420 
  94   2.0000      -5.854900      -159.3199 
  95   2.0000      -5.850623      -159.2035 
  96   2.0000      -1.079221       -29.3671 
  97   2.0000      -1.069265       -29.0962 
  98   2.0000      -1.045759       -28.4565 
  99   2.0000      -1.041321       -28.3358 
 100   2.0000      -1.000351       -27.2209 
 101   2.0000      -0.992988       -27.0206 
 102   2.0000      -0.930879       -25.3305 
 103   2.0000      -0.922468       -25.1016 
 104   2.0000      -0.912875       -24.8406 
 105   2.0000      -0.908705       -24.7271 
 106   2.0000      -0.895674       -24.3725 
 107   2.0000      -0.889954       -24.2169 
 108   2.0000      -0.874275       -23.7902 
 109   2.0000      -0.862310       -23.4646 
 110   2.0000      -0.856314       -23.3015 
 111   2.0000      -0.851982       -23.1836 
 112   2.0000      -0.831708       -22.6319 
 113   2.0000      -0.817872       -22.2554 
 114   2.0000      -0.813753       -22.1433 
 115   2.0000      -0.803180       -21.8556 
 116   2.0000      -0.789814       -21.4919 
 117   2.0000      -0.788423       -21.4541 
 118   2.0000      -0.783289       -21.3144 
 119   2.0000      -0.782334       -21.2884 
 120   2.0000      -0.771526       -20.9943 
 121   2.0000      -0.768308       -20.9067 
 122   2.0000      -0.767237       -20.8776 
 123   2.0000      -0.765878       -20.8406 
 124   2.0000      -0.765360       -20.8265 
 125   2.0000      -0.757845       -20.6220 
 126   2.0000      -0.754543       -20.5322 
 127   2.0000      -0.751883       -20.4598 
 128   2.0000      -0.734051       -19.9745 
 129   2.0000      -0.724674       -19.7194 
 130   2.0000      -0.697854       -18.9896 
 131   2.0000      -0.696867       -18.9627 
 132   2.0000      -0.686149       -18.6711 
 133   2.0000      -0.681178       -18.5358 
 134   2.0000      -0.672226       -18.2922 
 135   2.0000      -0.666470       -18.1356 
 136   2.0000      -0.662756       -18.0345 
 137   2.0000      -0.652314       -17.7504 
 138   2.0000      -0.646189       -17.5837 
 139   2.0000      -0.642632       -17.4869 
 140   2.0000      -0.638660       -17.3788 
 141   2.0000      -0.638183       -17.3658 
 142   2.0000      -0.630753       -17.1637 
 143   2.0000      -0.629191       -17.1212 
 144   2.0000      -0.626622       -17.0513 
 145   2.0000      -0.623547       -16.9676 
 146   2.0000      -0.613758       -16.7012 
 147   2.0000      -0.598489       -16.2857 
 148   2.0000      -0.589770       -16.0485 
 149   2.0000      -0.585340       -15.9279 
 150   2.0000      -0.573535       -15.6067 
 151   2.0000      -0.565447       -15.3866 
 152   2.0000      -0.560953       -15.2643 
 153   2.0000      -0.556360       -15.1393 
 154   2.0000      -0.548936       -14.9373 
 155   2.0000      -0.540116       -14.6973 
 156   2.0000      -0.535978       -14.5847 
 157   2.0000      -0.531101       -14.4520 
 158   2.0000      -0.522997       -14.2315 
 159   2.0000      -0.521238       -14.1836 
 160   2.0000      -0.515720       -14.0334 
 161   2.0000      -0.509071       -13.8525 
 162   2.0000      -0.502245       -13.6668 
 163   2.0000      -0.501597       -13.6491 
 164   2.0000      -0.496252       -13.5037 
 165   2.0000      -0.491527       -13.3751 
 166   2.0000      -0.485272       -13.2049 
 167   2.0000      -0.484934       -13.1957 
 168   2.0000      -0.483439       -13.1551 
 169   2.0000      -0.480788       -13.0829 
 170   2.0000      -0.478839       -13.0299 
 171   2.0000      -0.476411       -12.9638 
 172   2.0000      -0.475912       -12.9502 
 173   2.0000      -0.474213       -12.9040 
 174   2.0000      -0.470621       -12.8063 
 175   2.0000      -0.468625       -12.7519 
 176   2.0000      -0.465751       -12.6737 
 177   2.0000      -0.464206       -12.6317 
 178   2.0000      -0.459516       -12.5041 
 179   2.0000      -0.458590       -12.4789 
 180   2.0000      -0.454366       -12.3639 
 181   2.0000      -0.453684       -12.3454 
 182   2.0000      -0.446746       -12.1566 
 183   2.0000      -0.443415       -12.0659 
 184   2.0000      -0.438124       -11.9220 
 185   2.0000      -0.436513       -11.8781 
 186   2.0000      -0.431953       -11.7540 
 187   2.0000      -0.428939       -11.6720 
 188   2.0000      -0.426864       -11.6156 
 189   2.0000      -0.418819       -11.3966 
 190   2.0000      -0.417289       -11.3550 
 191   2.0000      -0.413405       -11.2493 
 192   2.0000      -0.412048       -11.2124 
 193   2.0000      -0.411384       -11.1943 
 194   2.0000      -0.409869       -11.1531 
 195   2.0000      -0.408285       -11.1100 
 196   2.0000      -0.405999       -11.0478 
 197   2.0000      -0.405167       -11.0251 
 198   2.0000      -0.402439       -10.9509 
 199   2.0000      -0.401046       -10.9130 
 200   2.0000      -0.397467       -10.8156 
 201   2.0000      -0.395432       -10.7602 
 202   2.0000      -0.394178       -10.7261 
 203   2.0000      -0.393646       -10.7116 
 204   2.0000      -0.391531       -10.6541 
 205   2.0000      -0.389350       -10.5948 
 206   2.0000      -0.387048       -10.5321 
 207   2.0000      -0.386628       -10.5207 
 208   2.0000      -0.384348       -10.4586 
 209   2.0000      -0.381274       -10.3750 
 210   2.0000      -0.380617       -10.3571 
 211   2.0000      -0.379080       -10.3153 
 212   2.0000      -0.376996       -10.2586 
 213   2.0000      -0.376250       -10.2383 
 214   2.0000      -0.375036       -10.2053 
 215   2.0000      -0.373687       -10.1685 
 216   2.0000      -0.372569       -10.1381 
 217   2.0000      -0.371577       -10.1111 
 218   2.0000      -0.368773       -10.0348 
 219   2.0000      -0.367719       -10.0061 
 220   2.0000      -0.365026        -9.9329 
 221   2.0000      -0.364378        -9.9152 
 222   2.0000      -0.358757        -9.7623 
 223   2.0000      -0.357899        -9.7389 
 224   2.0000      -0.356907        -9.7119 
 225   2.0000      -0.354325        -9.6417 
 226   2.0000      -0.352491        -9.5918 
 227   2.0000      -0.344716        -9.3802 
 228   2.0000      -0.341335        -9.2882 
 229   2.0000      -0.337906        -9.1949 
 230   2.0000      -0.335446        -9.1279 
 231   2.0000      -0.333317        -9.0700 
 232   2.0000      -0.331663        -9.0250 
 233   2.0000      -0.329923        -8.9777 
 234   2.0000      -0.329481        -8.9656 
 235   2.0000      -0.325589        -8.8597 
 236   2.0000      -0.323830        -8.8119 
 237   2.0000      -0.314636        -8.5617 
 238   2.0000      -0.301702        -8.2097 
 239   2.0000      -0.300746        -8.1837 
 240   2.0000      -0.292718        -7.9653 
 241   2.0000      -0.288757        -7.8575 
 242   2.0000      -0.288445        -7.8490 
 243   2.0000      -0.285473        -7.7681 
 244   2.0000      -0.283199        -7.7062 
 245   2.0000      -0.279441        -7.6040 
 246   2.0000      -0.271301        -7.3825 
 247   2.0000      -0.268946        -7.3184 
 248   2.0000      -0.265190        -7.2162 
 249   2.0000      -0.264010        -7.1841 
 250   2.0000      -0.258302        -7.0288 
 251   2.0000      -0.246766        -6.7148 
 252   2.0000      -0.230512        -6.2725 
 253   2.0000      -0.228879        -6.2281 
 254   2.0000      -0.222992        -6.0679 
 255   2.0000      -0.211113        -5.7447 
 256   2.0000      -0.190895        -5.1945 
 257   0.0000      -0.126346        -3.4381 
 258   0.0000      -0.117647        -3.2013 
 259   0.0000      -0.083257        -2.2656 
 260   0.0000      -0.078728        -2.1423 
 261   0.0000      -0.068724        -1.8701 
[...]
   251a -> 260a  :     0.015841 (c=  0.12586207)
   252a -> 260a  :     0.015799 (c= -0.12569210)
   252a -> 261a  :     0.087118 (c=  0.29515728)
   255a -> 261a  :     0.019391 (c=  0.13925049)
   255a -> 269a  :     0.013059 (c=  0.11427543)
   256a -> 262a  :     0.016675 (c= -0.12913328)
   256a -> 263a  :     0.200132 (c= -0.44736163)
   256a -> 264a  :     0.045503 (c=  0.21331500)
   256a -> 265a  :     0.075714 (c=  0.27516113)
   256a -> 267a  :     0.025170 (c=  0.15865022)
   256a -> 269a  :     0.010806 (c= -0.10395240)

STATE 45:  E=   0.149161 au      4.059 eV    32737.1 cm**-1
   240a -> 257a  :     0.162171 (c= -0.40270482)
   241a -> 257a  :     0.012625 (c=  0.11236006)
   242a -> 257a  :     0.089646 (c=  0.29940967)
   244a -> 257a  :     0.023073 (c=  0.15189956)
   244a -> 258a  :     0.046704 (c= -0.21611128)
   245a -> 258a  :     0.441521 (c= -0.66447061)
   247a -> 257a  :     0.010364 (c= -0.10180600)
   252a -> 260a  :     0.011238 (c= -0.10600716)
   255a -> 267a  :     0.010821 (c= -0.10402617)
   256a -> 265a  :     0.032133 (c= -0.17925680)
   256a -> 267a  :     0.018432 (c= -0.13576314)
   256a -> 269a  :     0.014669 (c= -0.12111677)

STATE 46:  E=   0.149406 au      4.066 eV    32790.9 cm**-1
   240a -> 257a  :     0.034287 (c= -0.18516766)
   241a -> 257a  :     0.036945 (c= -0.19221018)
   242a -> 257a  :     0.207145 (c= -0.45513167)
   242a -> 258a  :     0.031484 (c= -0.17743732)
   244a -> 257a  :     0.021651 (c=  0.14714404)
   245a -> 258a  :     0.013802 (c= -0.11748114)
   251a -> 259a  :     0.019141 (c=  0.13835179)
   252a -> 260a  :     0.024050 (c=  0.15507988)
   252a -> 261a  :     0.029947 (c= -0.17305109)
   253a -> 261a  :     0.010595 (c=  0.10293006)
   255a -> 265a  :     0.011550 (c= -0.10747165)
   255a -> 267a  :     0.029824 (c=  0.17269511)
   256a -> 262a  :     0.013404 (c=  0.11577730)
   256a -> 264a  :     0.010703 (c=  0.10345731)
   256a -> 265a  :     0.289190 (c= -0.53776394)
   256a -> 267a  :     0.105919 (c=  0.32545223)

STATE 47:  E=   0.149877 au      4.078 eV    32894.2 cm**-1
   253a -> 259a  :     0.087783 (c=  0.29628175)
   253a -> 260a  :     0.069343 (c=  0.26333055)
   253a -> 261a  :     0.400508 (c=  0.63285737)
   253a -> 262a  :     0.172986 (c=  0.41591589)
   253a -> 263a  :     0.206233 (c= -0.45412917)
   253a -> 264a  :     0.013250 (c=  0.11510711)

STATE 48:  E=   0.152669 au      4.154 eV    33507.1 cm**-1
   242a -> 257a  :     0.065948 (c=  0.25680366)
   244a -> 257a  :     0.036107 (c=  0.19001920)
   244a -> 258a  :     0.027438 (c=  0.16564496)
   245a -> 258a  :     0.058757 (c=  0.24239756)
   251a -> 259a  :     0.147432 (c=  0.38396886)
   251a -> 260a  :     0.028655 (c=  0.16927778)
   252a -> 260a  :     0.026735 (c= -0.16350874)
   252a -> 261a  :     0.368477 (c= -0.60702338)
   255a -> 261a  :     0.011348 (c=  0.10652707)
   256a -> 263a  :     0.014668 (c= -0.12111075)
   256a -> 265a  :     0.044229 (c= -0.21030688)
   256a -> 267a  :     0.036435 (c= -0.19087919)

STATE 49:  E=   0.154127 au      4.194 eV    33827.1 cm**-1
   240a -> 257a  :     0.056579 (c=  0.23786303)
   242a -> 257a  :     0.041347 (c= -0.20334082)
   245a -> 258a  :     0.165972 (c= -0.40739619)
   250a -> 260a  :     0.011570 (c= -0.10756183)
   251a -> 259a  :     0.368604 (c=  0.60712784)
   251a -> 261a  :     0.021572 (c=  0.14687302)
   252a -> 259a  :     0.013939 (c=  0.11806214)
   255a -> 262a  :     0.048163 (c= -0.21946172)
   256a -> 263a  :     0.012947 (c=  0.11378528)
   256a -> 264a  :     0.012587 (c= -0.11219068)
   256a -> 265a  :     0.134889 (c=  0.36727191)

STATE 50:  E=   0.154400 au      4.201 eV    33886.8 cm**-1
   240a -> 257a  :     0.125301 (c=  0.35397856)
   242a -> 257a  :     0.046169 (c= -0.21487015)
   244a -> 257a  :     0.018310 (c=  0.13531328)
   244a -> 258a  :     0.037350 (c=  0.19326222)
   245a -> 258a  :     0.130444 (c= -0.36117033)
   251a -> 259a  :     0.138373 (c= -0.37198529)
   252a -> 261a  :     0.143440 (c= -0.37873509)
   255a -> 262a  :     0.231550 (c=  0.48119593)
   256a -> 263a  :     0.025839 (c= -0.16074516)
   256a -> 265a  :     0.026937 (c=  0.16412500)


-----------------------------
TD-DFT/TDA-EXCITATION SPECTRA
-----------------------------

Center of mass = (-20.1894, -7.4737,  7.6241)
Calculating the Dipole integrals                  ... done
Transforming integrals                            ... done
Calculating the Linear Momentum integrals         ... done
Transforming integrals                            ... done
Calculating angular momentum integrals            ... done
Transforming integrals                            ... done

-----------------------------------------------------------------------------
         ABSORPTION SPECTRUM VIA TRANSITION ELECTRIC DIPOLE MOMENTS
-----------------------------------------------------------------------------
State   Energy    Wavelength  fosc         T2        TX        TY        TZ  
        (cm-1)      (nm)                 (au**2)    (au)      (au)      (au) 
-----------------------------------------------------------------------------
   1   13330.5    750.2   3.170693708  78.30376   8.03624   2.02419  -3.10247
   2   14982.4    667.5   0.001954113   0.04294  -0.08138  -0.15823   0.10619
   3   17585.2    568.7   0.000028739   0.00054  -0.01761   0.01258   0.00834
   4   18340.3    545.2   0.021967913   0.39433   0.41056   0.28440  -0.38064
   5   18930.7    528.2   0.000071720   0.00125  -0.03520  -0.00285   0.00051
   6   19059.4    524.7   0.172148730   2.97351  -1.55272  -0.42683   0.61676
   7   20673.0    483.7   0.112550953   1.79235  -1.20721  -0.30484   0.49199
   8   21258.8    470.4   0.000228892   0.00354   0.05369   0.01531  -0.02067
   9   21885.6    456.9   1.099751988  16.54291  -3.71952  -0.51738   1.56216
  10   22371.1    447.0   0.204246014   3.00567  -1.63731  -0.35520   0.44577
  11   22742.6    439.7   0.000309593   0.00448  -0.06107  -0.02674   0.00609
  12   23377.9    427.8   0.010792588   0.15198   0.28853   0.23069   0.12456
  13   24381.0    410.2   0.000299322   0.00404   0.04165   0.04671  -0.01119
  14   25380.6    394.0   0.172871075   2.24232   1.34392   0.31562  -0.58016
  15   25597.1    390.7   0.000200052   0.00257   0.05007   0.00573   0.00574
  16   26276.1    380.6   0.000968713   0.01214  -0.01408  -0.05159   0.09632
  17   26321.1    379.9   0.014275092   0.17855  -0.28997   0.05397   0.30257
  18   26330.1    379.8   0.007612877   0.09519  -0.24924   0.10570   0.14796
  19   26726.8    374.2   0.017504814   0.21562   0.35486  -0.24979  -0.16522
  20   27125.3    368.7   0.006747690   0.08189   0.02010  -0.28014  -0.05488
  21   27469.3    364.0   0.108612036   1.30169  -1.03082   0.16808   0.45919
  22   27649.1    361.7   0.007746746   0.09224  -0.06376   0.28550   0.08164
  23   28317.7    353.1   0.010534310   0.12247   0.25933  -0.19744  -0.12741
  24   28505.0    350.8   0.010294119   0.11889   0.32417   0.04621  -0.10802
  25   29018.9    344.6   0.005448493   0.06181  -0.23609  -0.01732   0.07597
  26   29084.8    343.8   0.001744386   0.01974  -0.11772  -0.07670  -0.00186
  27   29416.8    339.9   0.000340098   0.00381  -0.03373   0.04851   0.01775
  28   29681.3    336.9   0.008826867   0.09790  -0.26167  -0.12423   0.11831
  29   29733.3    336.3   0.000421110   0.00466   0.06158   0.00698  -0.02867
  30   29835.8    335.2   0.027182449   0.29993   0.48719   0.09012  -0.23336
  31   29855.7    334.9   0.022141843   0.24415  -0.39781  -0.26017   0.13495
  32   29984.8    333.5   0.000633661   0.00696   0.07862   0.01197  -0.02514
  33   30511.1    327.7   0.028683245   0.30949  -0.23438   0.46027   0.20665
  34   30617.2    326.6   0.000970462   0.01043  -0.08583   0.03681   0.04139
  35   30637.0    326.4   0.001410483   0.01516  -0.08125   0.06563   0.06518
  36   30763.0    325.1   0.003277225   0.03507  -0.03155  -0.18343  -0.02070
  37   31163.4    320.9   0.002719902   0.02873   0.00159  -0.16560  -0.03615
  38   31276.8    319.7   0.004777020   0.05028  -0.20803   0.02925   0.07841
  39   31550.4    317.0   0.037907079   0.39554  -0.33644   0.46889   0.24998
  40   31751.6    314.9   0.000262606   0.00272  -0.02340  -0.04188  -0.02053
  41   31822.4    314.2   0.001864312   0.01929   0.01718  -0.12501  -0.05800
  42   31956.7    312.9   0.000380374   0.00392   0.03059  -0.04618  -0.02916
  43   32133.5    311.2   0.000085557   0.00088  -0.00697  -0.01491  -0.02461
  44   32392.2    308.7   0.014490007   0.14727  -0.01193   0.37928   0.05717
  45   32737.1    305.5   0.022323791   0.22449  -0.26806   0.34097   0.19073
  46   32790.9    305.0   0.006239750   0.06265  -0.04792  -0.24482  -0.02035
  47   32894.2    304.0   0.000400518   0.00401  -0.00314   0.06107  -0.01639
  48   33507.1    298.4   0.025009247   0.24572  -0.39877   0.24022   0.17028
  49   33827.1    295.6   0.004552551   0.04431   0.16023  -0.10733  -0.08435
  50   33886.8    295.1   0.012732890   0.12370  -0.25513  -0.23311   0.06535

-----------------------------------------------------------------------------
         ABSORPTION SPECTRUM VIA TRANSITION VELOCITY DIPOLE MOMENTS
-----------------------------------------------------------------------------
State   Energy    Wavelength   fosc        P2         PX        PY        PZ  
        (cm-1)      (nm)                 (au**2)     (au)      (au)      (au) 
-----------------------------------------------------------------------------
   1   13330.5    750.2   0.618780402   0.05638  -0.21936  -0.03037   0.08564
   2   14982.4    667.5   0.001308223   0.00013   0.00613  -0.00693  -0.00695
   3   17585.2    568.7   0.000212897   0.00003   0.00006   0.00390   0.00322
   4   18340.3    545.2   0.017193260   0.00216  -0.02607   0.03027   0.02365
   5   18930.7    528.2   0.000325118   0.00004  -0.00517  -0.00223  -0.00322
   6   19059.4    524.7   0.028440026   0.00370   0.05671   0.01287  -0.01797
   7   20673.0    483.7   0.125965177   0.01780   0.12070   0.02684  -0.05008
   8   21258.8    470.4   0.000170099   0.00002  -0.00414  -0.00004   0.00275
   9   21885.6    456.9   0.382294164   0.05718   0.21194   0.07276  -0.08349
  10   22371.1    447.0   0.091603195   0.01401   0.11134   0.02679  -0.02987
  11   22742.6    439.7   0.000361912   0.00006   0.00697   0.00273   0.00048
  12   23377.9    427.8   0.013559020   0.00217  -0.02672  -0.03785  -0.00446
  13   24381.0    410.2   0.010940818   0.00182   0.00453   0.04245   0.00068
  14   25380.6    394.0   0.131695516   0.02284  -0.13677  -0.02108   0.06077
  15   25597.1    390.7   0.000984425   0.00017   0.00065   0.00113   0.01306
  16   26276.1    380.6   0.000645243   0.00012   0.00236  -0.00685  -0.00796
  17   26321.1    379.9   0.008696115   0.00156   0.02261  -0.02189  -0.02396
  18   26330.1    379.8   0.004871122   0.00088   0.01171  -0.02100  -0.01727
  19   26726.8    374.2   0.010728660   0.00196  -0.01564  -0.04133   0.00263
  20   27125.3    368.7   0.019369566   0.00359   0.01795  -0.05559  -0.01336
  21   27469.3    364.0   0.031849470   0.00598   0.06217   0.04372  -0.01425
  22   27649.1    361.7   0.013092521   0.00247  -0.00091   0.04942   0.00559
  23   28317.7    353.1   0.014565726   0.00282  -0.03242  -0.03970   0.01386
  24   28505.0    350.8   0.014607434   0.00285  -0.04473   0.02215   0.01883
  25   29018.9    344.6   0.002087312   0.00041   0.01010   0.01753   0.00217
  26   29084.8    343.8   0.000963188   0.00019   0.01311   0.00258  -0.00358
  27   29416.8    339.9   0.000106693   0.00002   0.00241   0.00297  -0.00262
  28   29681.3    336.9   0.002508810   0.00051   0.02168   0.00205   0.00589
  29   29733.3    336.3   0.000222709   0.00005  -0.00517  -0.00263   0.00342
  30   29835.8    335.2   0.012927460   0.00264  -0.04362  -0.01892   0.01938
  31   29855.7    334.9   0.005121398   0.00105   0.02537   0.00398  -0.01964
  32   29984.8    333.5   0.000461073   0.00009   0.00181   0.00100   0.00950
  33   30511.1    327.7   0.012259081   0.00256   0.02373   0.04435  -0.00519
  34   30617.2    326.6   0.002367018   0.00050  -0.01864  -0.01060   0.00594
  35   30637.0    326.4   0.001128989   0.00024  -0.01364  -0.00468   0.00535
  36   30763.0    325.1   0.002116650   0.00045  -0.01260  -0.01645   0.00393
  37   31163.4    320.9   0.001557160   0.00033  -0.01537  -0.00810   0.00547
  38   31276.8    319.7   0.042005770   0.00898   0.08066   0.04225  -0.02622
  39   31550.4    317.0   0.000878395   0.00019   0.00803   0.01024  -0.00449
  40   31751.6    314.9   0.002365801   0.00051  -0.02201  -0.00292   0.00451
  41   31822.4    314.2   0.001681995   0.00037   0.01288   0.00151  -0.01406
  42   31956.7    312.9   0.000071373   0.00002  -0.00244  -0.00311   0.00003
  43   32133.5    311.2   0.000063751   0.00001   0.00145  -0.00272  -0.00212
  44   32392.2    308.7   0.012589954   0.00279  -0.01624   0.04875   0.01210
  45   32737.1    305.5   0.009082133   0.00203   0.00285   0.04468   0.00526
  46   32790.9    305.0   0.007731386   0.00173   0.02418  -0.03073  -0.01428
  47   32894.2    304.0   0.000305022   0.00007  -0.00505   0.00624   0.00204
  48   33507.1    298.4   0.012757608   0.00292   0.01965   0.05031  -0.00216
  49   33827.1    295.6   0.007103125   0.00164   0.01127  -0.03665  -0.01311
  50   33886.8    295.1   0.003988811   0.00092   0.02614  -0.01025  -0.01164

-------------------------------------------------------------------
                             CD SPECTRUM
-------------------------------------------------------------------
State  Energy     Wavelength     R         MX        MY        MZ   
       (cm-1)       (nm)     (1e40*cgs)   (au)      (au)      (au)  
-------------------------------------------------------------------
   1   13330.5    750.2     -6.47488   0.03026  -0.23314  -0.06929
   2   14982.4    667.5     -3.42268  -0.03040   0.00897  -0.07831
   3   17585.2    568.7      2.54162  -0.16186   0.18996   0.01809
   4   18340.3    545.2     -8.04032   0.02209  -0.01753   0.05553
   5   18930.7    528.2     -2.56201   0.14225   0.13132  -0.10581
   6   19059.4    524.7      0.61938  -0.05800   0.07776  -0.09008
   7   20673.0    483.7      5.96068   0.16251   0.02300   0.43871
   8   21258.8    470.4     -0.94229  -0.05431   0.06137   0.00110
   9   21885.6    456.9     47.43092  -0.14183   0.22986  -0.19717
  10   22371.1    447.0    -10.46583   0.07319   0.04578   0.25549
  11   22742.6    439.7      2.00971  -0.04254  -0.04663   0.06865
  12   23377.9    427.8    -18.42602  -0.07439   0.01669  -0.17237
  13   24381.0    410.2      0.13390  -0.00029  -0.00713  -0.05621
  14   25380.6    394.0      9.20558  -0.08262  -0.04198  -0.24788
  15   25597.1    390.7     -3.48240  -0.18776   0.27901   0.07246
  16   26276.1    380.6     -0.20870   0.16798   0.08931   0.06781
  17   26321.1    379.9      5.38699  -0.21808   0.00706  -0.17250
  18   26330.1    379.8    -20.39588  -0.03788   0.13394  -0.45187
  19   26726.8    374.2      2.50189   0.21726  -0.06689   0.53564
  20   27125.3    368.7     -0.20863  -0.01565   0.01138  -0.05574
  21   27469.3    364.0     31.32964  -0.18189   0.17946  -0.32928
  22   27649.1    361.7      1.38004  -0.05342   0.02605  -0.09695
  23   28317.7    353.1     10.73266  -0.07383  -0.06541  -0.22759
  24   28505.0    350.8     -1.88884  -0.06790   0.00415  -0.16491
  25   29018.9    344.6      0.25612  -0.01944  -0.01366  -0.05638
  26   29084.8    343.8     -2.97296   0.01741   0.05347   0.08396
  27   29416.8    339.9      0.57665  -0.07763   0.03840  -0.18355
  28   29681.3    336.9      9.74255   0.04664  -0.30010  -0.03729
  29   29733.3    336.3     -0.03054   0.00485  -0.03736   0.00358
  30   29835.8    335.2     -1.22576   0.03198  -0.13941   0.02406
  31   29855.7    334.9    -12.36010  -0.04842   0.16989  -0.00948
  32   29984.8    333.5      1.78267   0.01252   0.17468  -0.02805
  33   30511.1    327.7      1.84638  -0.06363   0.02892  -0.11764
  34   30617.2    326.6     -4.16584   0.11237  -0.06734   0.07942
  35   30637.0    326.4     11.14586  -0.07788   0.17955   0.08485
  36   30763.0    325.1     -2.07517   0.00033   0.02166   0.02015
  37   31163.4    320.9     -0.89712  -0.05124   0.03785  -0.12299
  38   31276.8    319.7      1.05353   0.00283   0.00592   0.03381
  39   31550.4    317.0     19.12854   0.09267   0.01343   0.26185
  40   31751.6    314.9     -4.16038   0.10917   0.00948   0.28603
  41   31822.4    314.2     -5.60171  -0.10044   0.14108  -0.12897
  42   31956.7    312.9      0.29286   0.02948   0.02268  -0.02630
  43   32133.5    311.2      1.97326   0.13389  -0.18160  -0.09801
  44   32392.2    308.7     -7.72943   0.15993  -0.08734   0.32605
  45   32737.1    305.5     -0.75430  -0.14320   0.06566  -0.32703
  46   32790.9    305.0     -3.00303   0.19823  -0.04917   0.43776
  47   32894.2    304.0      3.07601   0.10323   0.06683  -0.16883
  48   33507.1    298.4      6.95595  -0.04976   0.03277  -0.07611
  49   33827.1    295.6      0.37284  -0.07248   0.02434  -0.17802
  50   33886.8    295.1      1.69963  -0.00597  -0.00892   0.00004

Total run time:   291393.215 sec

           *** ORCA-CIS/TD-DFT FINISHED WITHOUT ERROR ***

-----------------------
CIS/TD-DFT TOTAL ENERGY
-----------------------

    E(SCF)  =  -5516.868569484 Eh
    DE(CIS) =      0.060738345 Eh (Root  1)
    ----------------------------- ---------
    E(tot)  =  -5516.807831139 Eh


-------------------------   --------------------
FINAL SINGLE POINT ENERGY     -5516.807831139387
-------------------------   --------------------


                            ***************************************
                            *     ORCA property calculations      *
                            ***************************************

                                    ---------------------
                                    Active property flags
                                    ---------------------
   (+) Dipole Moment


------------------------------------------------------------------------------
                       ORCA ELECTRIC PROPERTIES CALCULATION
------------------------------------------------------------------------------

Dipole Moment Calculation                       ... on
Quadrupole Moment Calculation                   ... off
Polarizability Calculation                      ... off
GBWName                                         ... O-IDTBR.gbw
Electron density file                           ... O-IDTBR.scfp
The origin for moment calculation is the CENTER OF MASS  = (-20.189380, -7.473745  7.624149)

-------------
DIPOLE MOMENT
-------------
                                X             Y             Z
Electronic contribution:      0.39580     -35.44415     -10.65169
Nuclear contribution   :     -0.73347      36.06713      10.78484
                        -----------------------------------------
Total Dipole Moment    :     -0.33767       0.62298       0.13315
                        -----------------------------------------
Magnitude (a.u.)       :      0.72101
Magnitude (Debye)      :      1.83266



--------------------
Rotational spectrum 
--------------------
 
Rotational constants in cm-1:     0.004213     0.000194     0.000188 
Rotational constants in MHz :   126.288321     5.811883     5.622025 

 Dipole components along the rotational axes: 
x,y,z [a.u.] :     0.224125    -0.676009    -0.112408 
x,y,z [Debye]:     0.569679    -1.718279    -0.285718 

 

Timings for individual modules:

Sum of individual times         ...   305963.452 sec (=5099.391 min)
GTO integral calculation        ...        5.903 sec (=   0.098 min)   0.0 %
SCF iterations                  ...    14563.973 sec (= 242.733 min)   4.8 %
CIS module                      ...   291393.576 sec (=4856.560 min)  95.2 %
                             ****ORCA TERMINATED NORMALLY****
TOTAL RUN TIME: 3 days 12 hours 59 minutes 24 seconds 844 msec
