
                                 *****************
                                 * O   R   C   A *
                                 *****************

           --- An Ab Initio, DFT and Semiempirical electronic structure package ---

                  #######################################################
                  #                        -***-                        #
                  #          Department of theory and spectroscopy      #
                  #               Directorship: Frank Neese             #
                  #        Max Planck Institute fuer Kohlenforschung    #
                  #                Kaiser Wilhelm Platz 1               #
                  #                 D-45470 Muelheim/Ruhr               #
                  #                      Germany                        #
                  #                                                     #
                  #                  All rights reserved                #
                  #                        -***-                        #
                  #######################################################


                         Program Version 4.2.0 -  RELEASE  -


 With contributions from (in alphabetic order):
   Daniel Aravena         : Magnetic Suceptibility
   Michael Atanasov       : Ab Initio Ligand Field Theory (pilot matlab implementation)
   Alexander A. Auer      : GIAO ZORA, VPT2
   Ute Becker             : Parallelization
   Giovanni Bistoni       : ED, misc. LED, open-shell LED, HFLED
   Martin Brehm           : Molecular dynamics
   Dmytro Bykov           : SCF Hessian
   Vijay G. Chilkuri      : MRCI spin determinant printing, contributions to CSF-ICE
   Dipayan Datta          : RHF DLPNO-CCSD density
   Achintya Kumar Dutta   : EOM-CC, STEOM-CC
   Dmitry Ganyushin       : Spin-Orbit,Spin-Spin,Magnetic field MRCI
   Miquel Garcia          : C-PCM Hessian, Gaussian charge scheme
   Yang Guo               : DLPNO-NEVPT2, CIM, IAO-localization
   Andreas Hansen         : Spin unrestricted coupled pair/coupled cluster methods
   Benjamin Helmich-Paris : CASSCF linear response (MC-RPA)
   Lee Huntington         : MR-EOM, pCC
   Robert Izsak           : Overlap fitted RIJCOSX, COSX-SCS-MP3, EOM
   Christian Kollmar      : KDIIS, OOCD, Brueckner-CCSD(T), CCSD density
   Simone Kossmann        : Meta GGA functionals, TD-DFT gradient, OOMP2, MP2 Hessian
   Martin Krupicka        : AUTO-CI
   Lucas Lang             : DCDCAS
   Dagmar Lenk            : GEPOL surface, SMD
   Dimitrios Liakos       : Extrapolation schemes; Compound Job, initial MDCI parallelization
   Dimitrios Manganas     : Further ROCIS development; embedding schemes
   Dimitrios Pantazis     : SARC Basis sets
   Taras Petrenko         : DFT Hessian,TD-DFT gradient, ASA, ECA, R-Raman, ABS, FL, XAS/XES, NRVS
   Peter Pinski           : DLPNO-MP2, DLPNO-MP2 Gradient
   Christoph Reimann      : Effective Core Potentials
   Marius Retegan         : Local ZFS, SOC
   Christoph Riplinger    : Optimizer, TS searches, QM/MM, DLPNO-CCSD(T), (RO)-DLPNO pert. Triples
   Tobias Risthaus        : Range-separated hybrids, TD-DFT gradient, RPA, STAB
   Michael Roemelt        : Original ROCIS implementation
   Masaaki Saitow         : Open-shell DLPNO-CCSD energy and density
   Barbara Sandhoefer     : DKH picture change effects
   Avijit Sen             : IP-ROCIS
   Kantharuban Sivalingam : CASSCF convergence, NEVPT2, FIC-MRCI
   Bernardo de Souza      : ESD, SOC TD-DFT
   Georgi Stoychev        : AutoAux, RI-MP2 NMR
   Willem Van den Heuvel  : Paramagnetic NMR
   Boris Wezisla          : Elementary symmetry handling
   Frank Wennmohs         : Technical directorship


 We gratefully acknowledge several colleagues who have allowed us to
 interface, adapt or use parts of their codes:
   Stefan Grimme, W. Hujo, H. Kruse,             : VdW corrections, initial TS optimization,
                  C. Bannwarth                     DFT functionals, gCP, sTDA/sTD-DF
   Ed Valeev, F. Pavosevic, A. Kumar             : LibInt (2-el integral package), F12 methods
   Garnet Chan, S. Sharma, J. Yang, R. Olivares  : DMRG
   Ulf Ekstrom                                   : XCFun DFT Library
   Mihaly Kallay                                 : mrcc  (arbitrary order and MRCC methods)
   Andreas Klamt, Michael Diedenhofen            : otool_cosmo (COSMO solvation model)
   Jiri Pittner, Ondrej Demel                    : Mk-CCSD
   Frank Weinhold                                : gennbo (NPA and NBO analysis)
   Christopher J. Cramer and Donald G. Truhlar   : smd solvation model
   Lars Goerigk                                  : TD-DFT with DH, B97 family of functionals
   V. Asgeirsson, H. Jonsson                     : NEB implementation
   FAccTs GmbH                                   : IRC, NEB, NEB-TS, Multilevel, MM, QM/MM, CI optimization
   S Lehtola, MJT Oliveira, MAL Marques          : LibXC Library


 Your calculation uses the libint2 library for the computation of 2-el integrals
 For citations please refer to: http://libint.valeyev.net

 Your ORCA version has been built with support for libXC version: 4.2.3
 For citations please refer to: https://tddft.org/programs/libxc/

 This ORCA versions uses:
   CBLAS   interface :  Fast vector & matrix operations
   LAPACKE interface :  Fast linear algebra routines
   SCALAPACK package :  Parallel linear algebra routines


----- Orbital basis set information -----
Your calculation utilizes the basis: def2-TZVP
   F. Weigend and R. Ahlrichs, Phys. Chem. Chem. Phys. 7, 3297 (2005).

----- AuxJ basis set information -----
Your calculation utilizes the auxiliary basis: def2/J
   F. Weigend, Phys. Chem. Chem. Phys. 8, 1057 (2006).

================================================================================
                                        WARNINGS
                       Please study these warnings very carefully!
================================================================================

INFO   : Checking CIS options ...

WARNING: CIS/ROCIS methods need fully converged wavefunctions
  ===> : Setting SCFConvForced true
         You can overwrite this default with %scf ConvForced false 


INFO   : the flag for use of LIBINT has been found!

================================================================================
                                       INPUT FILE
================================================================================
NAME = p-IO1.inp
|  1> # ORCA input file
|  2> # p-IO1.out
|  3> ! B3LYP def2-TZVP def2/J RIJCOSX Grid4 TightSCF
|  4> %maxcore 10000
|  5> %tddft
|  6>   maxdim 5
|  7>   nroots 50
|  8>   end
|  9> * xyz 0 1
| 10>    C        4.78422        -6.62801        -2.55477
| 11>    O        5.77520        -6.23462        -3.13930
| 12>    C        3.77386        -7.54170        -3.13400
| 13>    C        3.74757        -8.08155        -4.40422
| 14>    C        2.68533        -8.90980        -4.72787
| 15>    C        1.68665        -9.17903        -3.79285
| 16>    C        1.71674        -8.63814        -2.51564
| 17>    C        2.77680        -7.80867        -2.18434
| 18>    C        3.10469        -7.09065        -0.95124
| 19>    C        2.37905        -7.17937         0.21015
| 20>    C        2.67118        -6.55207         1.43990
| 21>    N        2.82324        -6.09833         2.48459
| 22>    C        1.20776        -7.95401         0.35070
| 23>    N        0.24986        -8.55794         0.53960
| 24>    C        4.31736        -6.33066        -1.18945
| 25>    F        2.61645        -9.45467        -5.94984
| 26>    F        0.66855        -9.97914        -4.13239
| 27>    C       17.07309        11.94312         7.62220
| 28>    O       16.00397        12.49362         7.74787
| 29>    C       18.41840        12.51131         7.87487
| 30>    C       18.75657        13.79905         8.23938
| 31>    C       20.10326        14.09494         8.38185
| 32>    C       21.07423        13.11802         8.16230
| 33>    C       20.73464        11.82039         7.80778
| 34>    C       19.39067        11.51816         7.66458
| 35>    C       18.71455        10.26091         7.33597
| 36>    C       19.27381         9.01467         7.46659
| 37>    C       18.53285         7.81688         7.42983
| 38>    N       17.97316         6.81474         7.44223
| 39>    C       20.63911         8.78686         7.73063
| 40>    N       21.74608         8.54350         7.91298
| 41>    C       17.32097        10.56657         7.12782
| 42>    F       20.47663        15.33268         8.72953
| 43>    F       22.36741        13.43639         8.29156
| 44>    C        4.85196        -5.45657        -0.26701
| 45>    C        5.99067        -4.64536        -0.30181
| 46>    C        7.00537        -4.47414        -1.23778
| 47>    C        7.95534        -3.53599        -0.85955
| 48>    C        7.69608        -2.95262         0.39535
| 49>    S        6.25799        -3.60348         1.09009
| 50>    C        8.47235        -1.95517         1.01436
| 51>    S        9.90991        -1.34264         0.22020
| 52>    C       10.15913        -0.25310         1.52048
| 53>    C        9.18559        -0.35904         2.50810
| 54>    C        8.23369        -1.32771         2.23122
| 55>    C       11.09438         0.77561         1.84166
| 56>    C       10.69668         1.32564         3.08359
| 57>    C        9.47142         0.60924         3.62787
| 58>    C       12.19966         1.25765         1.14318
| 59>    C       12.87982         2.31589         1.69600
| 60>    C       12.45150         2.89834         2.91440
| 61>    C       11.36393         2.39900         3.62583
| 62>    C       14.08936         3.04927         1.13928
| 63>    C       14.23140         4.16251         2.14458
| 64>    C       13.31630         4.00680         3.17247
| 65>    C       15.13435         5.19786         2.35746
| 66>    C       14.91502         5.84251         3.55976
| 67>    S       13.53740         5.16564         4.41671
| 68>    C       15.65673         6.89323         4.17298
| 69>    S       14.84595         7.94894         5.28252
| 70>    C       16.32542         8.79478         5.65028
| 71>    C       17.36654         8.26456         4.90268
| 72>    C       17.01327         7.20400         4.07148
| 73>    C       16.29217         9.88910         6.53081
| 74>    O        9.04661        -3.13233        -1.53326
| 75>    C        9.27997        -3.69718        -2.81430
| 76>    C       10.53871        -3.05280        -3.39617
| 77>    C       11.76268        -3.43649        -2.56948
| 78>    C       10.70727        -3.47183        -4.85338
| 79>    C        8.37593         1.63003         3.86485
| 80>    C        9.75102        -0.21310         4.87442
| 81>    C       15.39402         2.27816         1.26562
| 82>    C       13.80281         3.48778        -0.27837
| 83>    C       18.05048         6.45528         3.29645
| 84>    C       18.72983         5.36341         4.14699
| 85>    C        8.31309         2.31209         5.07407
| 86>    C        7.35024         3.27970         5.28492
| 87>    C        6.42610         3.59640         4.29632
| 88>    C        6.49905         2.91802         3.08762
| 89>    C        7.46400         1.95100         2.87013
| 90>    C       11.04009        -0.49909         5.29553
| 91>    C       11.25358        -1.29347         6.40939
| 92>    C       10.19049        -1.82831         7.12138
| 93>    C        8.89918        -1.54646         6.68741
| 94>    C        8.68088        -0.75350         5.57932
| 95>    C       16.52211         2.74535         0.60036
| 96>    C       17.75378         2.15596         0.80599
| 97>    C       17.89753         1.09023         1.68702
| 98>    C       16.76601         0.62141         2.33974
| 99>    C       15.52927         1.20852         2.13762
|100>    C       13.23410         4.72560        -0.54133
|101>    C       12.93544         5.09873        -1.83908
|102>    C       13.18810         4.24471        -2.90419
|103>    C       13.74826         3.00197        -2.63364
|104>    C       14.05106         2.62554        -1.33926
|105>    C       10.41154        -2.68376         8.33077
|106>    C        5.36884         4.62826         4.54293
|107>    C       19.24544         0.49114         1.94474
|108>    C       12.84468         4.63990        -4.30766
|109>    C       17.73810         4.29032         4.58390
|110>    C       19.86349         4.73182         3.34349
|111>    H        4.52289        -7.86807        -5.12257
|112>    H        0.91818        -8.87879        -1.83389
|113>    H       18.00436        14.55290         8.40840
|114>    H       21.52038        11.10022         7.64727
|115>    H        4.29285        -5.35293         0.65471
|116>    H        7.01827        -5.02753        -2.15760
|117>    H        7.39262        -1.58159         2.85075
|118>    H       12.49262         0.81714         0.20280
|119>    H       11.05945         2.84958         4.55772
|120>    H       15.88618         5.49003         1.64983
|121>    H       18.36369         8.66830         4.92834
|122>    H       15.31195        10.32114         6.70992
|123>    H        8.41688        -3.50462        -3.46416
|124>    H        9.41409        -4.78261        -2.72317
|125>    H       10.40654        -1.96729        -3.34288
|126>    H       11.93332        -4.50986        -2.62069
|127>    H       11.61635        -3.15425        -1.53034
|128>    H       12.64700        -2.92859        -2.94559
|129>    H       10.80577        -4.55254        -4.92806
|130>    H       11.60006        -3.01604        -5.27306
|131>    H        9.85111        -3.16298        -5.44837
|132>    H       18.81459         7.16652         2.97382
|133>    H       17.63024         5.98982         2.40908
|134>    H       19.14539         5.83410         5.04448
|135>    H        9.01536         2.07531         5.86037
|136>    H        7.31467         3.79808         6.23246
|137>    H        5.79322         3.14902         2.30251
|138>    H        7.50353         1.44257         1.91769
|139>    H       11.88700        -0.10008         4.75670
|140>    H       12.26639        -1.49962         6.72514
|141>    H        8.05652        -1.95630         7.22543
|142>    H        7.67076        -0.54079         5.26079
|143>    H       16.43165         3.57604        -0.08512
|144>    H       18.61997         2.53261         0.28007
|145>    H       16.85222        -0.20879         3.02585
|146>    H       14.66661         0.83341         2.66852
|147>    H       13.02552         5.40470         0.27285
|148>    H       12.49881         6.06950        -2.02562
|149>    H       13.95177         2.32127        -3.44807
|150>    H       14.49757         1.65961        -1.15076
|151>    H       11.46747        -2.90313         8.46634
|152>    H        9.86711        -3.62214         8.23841
|153>    H       10.04691        -2.17558         9.22320
|154>    H        4.53718         4.18510         5.09170
|155>    H        4.98369         5.02327         3.60607
|156>    H        5.76173         5.44932         5.13871
|157>    H       19.77825         1.08665         2.68681
|158>    H       19.84407         0.47622         1.03660
|159>    H       19.15517        -0.52266         2.32626
|160>    H       11.85529         4.26234        -4.56827
|161>    H       13.55881         4.22252        -5.01407
|162>    H       12.83143         5.72181        -4.41513
|163>    H       17.26788         3.82260         3.72013
|164>    H       16.96627         4.71318         5.22094
|165>    H       18.25414         3.52016         5.15184
|166>    H       19.46541         4.23122         2.46264
|167>    H       20.38837         3.99653         3.94836
|168>    H       20.58158         5.48321         3.02230
|169> *
|170> 
|171>                          ****END OF INPUT****
================================================================================

                       ****************************
                       * Single Point Calculation *
                       ****************************

---------------------------------
CARTESIAN COORDINATES (ANGSTROEM)
---------------------------------
  C      4.784220   -6.628010   -2.554770
  O      5.775200   -6.234620   -3.139300
  C      3.773860   -7.541700   -3.134000
  C      3.747570   -8.081550   -4.404220
  C      2.685330   -8.909800   -4.727870
  C      1.686650   -9.179030   -3.792850
  C      1.716740   -8.638140   -2.515640
  C      2.776800   -7.808670   -2.184340
  C      3.104690   -7.090650   -0.951240
  C      2.379050   -7.179370    0.210150
  C      2.671180   -6.552070    1.439900
  N      2.823240   -6.098330    2.484590
  C      1.207760   -7.954010    0.350700
  N      0.249860   -8.557940    0.539600
  C      4.317360   -6.330660   -1.189450
  F      2.616450   -9.454670   -5.949840
  F      0.668550   -9.979140   -4.132390
  C     17.073090   11.943120    7.622200
  O     16.003970   12.493620    7.747870
  C     18.418400   12.511310    7.874870
  C     18.756570   13.799050    8.239380
  C     20.103260   14.094940    8.381850
  C     21.074230   13.118020    8.162300
  C     20.734640   11.820390    7.807780
  C     19.390670   11.518160    7.664580
  C     18.714550   10.260910    7.335970
  C     19.273810    9.014670    7.466590
  C     18.532850    7.816880    7.429830
  N     17.973160    6.814740    7.442230
  C     20.639110    8.786860    7.730630
  N     21.746080    8.543500    7.912980
  C     17.320970   10.566570    7.127820
  F     20.476630   15.332680    8.729530
  F     22.367410   13.436390    8.291560
  C      4.851960   -5.456570   -0.267010
  C      5.990670   -4.645360   -0.301810
  C      7.005370   -4.474140   -1.237780
  C      7.955340   -3.535990   -0.859550
  C      7.696080   -2.952620    0.395350
  S      6.257990   -3.603480    1.090090
  C      8.472350   -1.955170    1.014360
  S      9.909910   -1.342640    0.220200
  C     10.159130   -0.253100    1.520480
  C      9.185590   -0.359040    2.508100
  C      8.233690   -1.327710    2.231220
  C     11.094380    0.775610    1.841660
  C     10.696680    1.325640    3.083590
  C      9.471420    0.609240    3.627870
  C     12.199660    1.257650    1.143180
  C     12.879820    2.315890    1.696000
  C     12.451500    2.898340    2.914400
  C     11.363930    2.399000    3.625830
  C     14.089360    3.049270    1.139280
  C     14.231400    4.162510    2.144580
  C     13.316300    4.006800    3.172470
  C     15.134350    5.197860    2.357460
  C     14.915020    5.842510    3.559760
  S     13.537400    5.165640    4.416710
  C     15.656730    6.893230    4.172980
  S     14.845950    7.948940    5.282520
  C     16.325420    8.794780    5.650280
  C     17.366540    8.264560    4.902680
  C     17.013270    7.204000    4.071480
  C     16.292170    9.889100    6.530810
  O      9.046610   -3.132330   -1.533260
  C      9.279970   -3.697180   -2.814300
  C     10.538710   -3.052800   -3.396170
  C     11.762680   -3.436490   -2.569480
  C     10.707270   -3.471830   -4.853380
  C      8.375930    1.630030    3.864850
  C      9.751020   -0.213100    4.874420
  C     15.394020    2.278160    1.265620
  C     13.802810    3.487780   -0.278370
  C     18.050480    6.455280    3.296450
  C     18.729830    5.363410    4.146990
  C      8.313090    2.312090    5.074070
  C      7.350240    3.279700    5.284920
  C      6.426100    3.596400    4.296320
  C      6.499050    2.918020    3.087620
  C      7.464000    1.951000    2.870130
  C     11.040090   -0.499090    5.295530
  C     11.253580   -1.293470    6.409390
  C     10.190490   -1.828310    7.121380
  C      8.899180   -1.546460    6.687410
  C      8.680880   -0.753500    5.579320
  C     16.522110    2.745350    0.600360
  C     17.753780    2.155960    0.805990
  C     17.897530    1.090230    1.687020
  C     16.766010    0.621410    2.339740
  C     15.529270    1.208520    2.137620
  C     13.234100    4.725600   -0.541330
  C     12.935440    5.098730   -1.839080
  C     13.188100    4.244710   -2.904190
  C     13.748260    3.001970   -2.633640
  C     14.051060    2.625540   -1.339260
  C     10.411540   -2.683760    8.330770
  C      5.368840    4.628260    4.542930
  C     19.245440    0.491140    1.944740
  C     12.844680    4.639900   -4.307660
  C     17.738100    4.290320    4.583900
  C     19.863490    4.731820    3.343490
  H      4.522890   -7.868070   -5.122570
  H      0.918180   -8.878790   -1.833890
  H     18.004360   14.552900    8.408400
  H     21.520380   11.100220    7.647270
  H      4.292850   -5.352930    0.654710
  H      7.018270   -5.027530   -2.157600
  H      7.392620   -1.581590    2.850750
  H     12.492620    0.817140    0.202800
  H     11.059450    2.849580    4.557720
  H     15.886180    5.490030    1.649830
  H     18.363690    8.668300    4.928340
  H     15.311950   10.321140    6.709920
  H      8.416880   -3.504620   -3.464160
  H      9.414090   -4.782610   -2.723170
  H     10.406540   -1.967290   -3.342880
  H     11.933320   -4.509860   -2.620690
  H     11.616350   -3.154250   -1.530340
  H     12.647000   -2.928590   -2.945590
  H     10.805770   -4.552540   -4.928060
  H     11.600060   -3.016040   -5.273060
  H      9.851110   -3.162980   -5.448370
  H     18.814590    7.166520    2.973820
  H     17.630240    5.989820    2.409080
  H     19.145390    5.834100    5.044480
  H      9.015360    2.075310    5.860370
  H      7.314670    3.798080    6.232460
  H      5.793220    3.149020    2.302510
  H      7.503530    1.442570    1.917690
  H     11.887000   -0.100080    4.756700
  H     12.266390   -1.499620    6.725140
  H      8.056520   -1.956300    7.225430
  H      7.670760   -0.540790    5.260790
  H     16.431650    3.576040   -0.085120
  H     18.619970    2.532610    0.280070
  H     16.852220   -0.208790    3.025850
  H     14.666610    0.833410    2.668520
  H     13.025520    5.404700    0.272850
  H     12.498810    6.069500   -2.025620
  H     13.951770    2.321270   -3.448070
  H     14.497570    1.659610   -1.150760
  H     11.467470   -2.903130    8.466340
  H      9.867110   -3.622140    8.238410
  H     10.046910   -2.175580    9.223200
  H      4.537180    4.185100    5.091700
  H      4.983690    5.023270    3.606070
  H      5.761730    5.449320    5.138710
  H     19.778250    1.086650    2.686810
  H     19.844070    0.476220    1.036600
  H     19.155170   -0.522660    2.326260
  H     11.855290    4.262340   -4.568270
  H     13.558810    4.222520   -5.014070
  H     12.831430    5.721810   -4.415130
  H     17.267880    3.822600    3.720130
  H     16.966270    4.713180    5.220940
  H     18.254140    3.520160    5.151840
  H     19.465410    4.231220    2.462640
  H     20.388370    3.996530    3.948360
  H     20.581580    5.483210    3.022300

----------------------------
CARTESIAN COORDINATES (A.U.)
----------------------------
  NO LB      ZA    FRAG     MASS         X           Y           Z
   0 C     6.0000    0    12.011    9.040866  -12.525124   -4.827816
   1 O     8.0000    0    15.999   10.913546  -11.781724   -5.932417
   2 C     6.0000    0    12.011    7.131562  -14.251748   -5.922402
   3 C     6.0000    0    12.011    7.081881  -15.271916   -8.322770
   4 C     6.0000    0    12.011    5.074538  -16.837082   -8.934379
   5 C     6.0000    0    12.011    3.187307  -17.345853   -7.167448
   6 C     6.0000    0    12.011    3.244168  -16.323719   -4.753871
   7 C     6.0000    0    12.011    5.247392  -14.756248   -4.127804
   8 C     6.0000    0    12.011    5.867014  -13.399387   -1.797583
   9 C     6.0000    0    12.011    4.495753  -13.567043    0.397126
  10 C     6.0000    0    12.011    5.047799  -12.381618    2.721017
  11 N     7.0000    0    14.007    5.335150  -11.524174    4.695195
  12 C     6.0000    0    12.011    2.282336  -15.030901    0.662727
  13 N     7.0000    0    14.007    0.472167  -16.172163    1.019696
  14 C     6.0000    0    12.011    8.158628  -11.963214   -2.247735
  15 F     9.0000    0    18.998    4.944374  -17.866737  -11.243568
  16 F     9.0000    0    18.998    1.263376  -18.857842   -7.809085
  17 C     6.0000    0    12.011   32.263464   22.569226   14.403871
  18 O     8.0000    0    15.999   30.243120   23.609520   14.641352
  19 C     6.0000    0    12.011   34.805732   23.642949   14.881348
  20 C     6.0000    0    12.011   35.444781   26.076425   15.570172
  21 C     6.0000    0    12.011   37.989656   26.635576   15.839401
  22 C     6.0000    0    12.011   39.824523   24.789465   15.424512
  23 C     6.0000    0    12.011   39.182791   22.337300   14.754566
  24 C     6.0000    0    12.011   36.643056   21.766168   14.483957
  25 C     6.0000    0    12.011   35.365374   19.390310   13.862974
  26 C     6.0000    0    12.011   36.422222   17.035257   14.109810
  27 C     6.0000    0    12.011   35.022011   14.771762   14.040344
  28 N     7.0000    0    14.007   33.964350   12.877992   14.063777
  29 C     6.0000    0    12.011   39.002266   16.604759   14.608774
  30 N     7.0000    0    14.007   41.094136   16.144875   14.953365
  31 C     6.0000    0    12.011   32.731890   19.967923   13.469628
  32 F     9.0000    0    18.998   38.695223   28.974566   16.496421
  33 F     9.0000    0    18.998   42.268279   25.391097   15.668778
  34 C     6.0000    0    12.011    9.168876  -10.311423   -0.504576
  35 C     6.0000    0    12.011   11.320726   -8.778458   -0.570338
  36 C     6.0000    0    12.011   13.238231   -8.454899   -2.339065
  37 C     6.0000    0    12.011   15.033414   -6.682053   -1.624314
  38 C     6.0000    0    12.011   14.543484   -5.579643    0.747103
  39 S    16.0000    0    32.060   11.825887   -6.809590    2.059972
  40 C     6.0000    0    12.011   16.010421   -3.694736    1.916863
  41 S    16.0000    0    32.060   18.727016   -2.537222    0.416118
  42 C     6.0000    0    12.011   19.197973   -0.478290    2.873291
  43 C     6.0000    0    12.011   17.358249   -0.678487    4.739622
  44 C     6.0000    0    12.011   15.559419   -2.509008    4.216395
  45 C     6.0000    0    12.011   20.965340    1.465690    3.480233
  46 C     6.0000    0    12.011   20.213796    2.505097    5.827141
  47 C     6.0000    0    12.011   17.898390    1.151297    6.855681
  48 C     6.0000    0    12.011   23.054016    2.376614    2.160297
  49 C     6.0000    0    12.011   24.339332    4.376398    3.204976
  50 C     6.0000    0    12.011   23.529925    5.477069    5.507418
  51 C     6.0000    0    12.011   21.474716    4.533453    6.851826
  52 C     6.0000    0    12.011   26.625032    5.762285    2.152927
  53 C     6.0000    0    12.011   26.893449    7.866004    4.052669
  54 C     6.0000    0    12.011   25.164160    7.571755    5.995099
  55 C     6.0000    0    12.011   28.599777    9.822532    4.454954
  56 C     6.0000    0    12.011   28.185303   11.040744    6.726972
  57 S    16.0000    0    32.060   25.581979    9.761645    8.346372
  58 C     6.0000    0    12.011   29.586932   13.026317    7.885789
  59 S    16.0000    0    32.060   28.054780   15.021320    9.982516
  60 C     6.0000    0    12.011   30.850573   16.619726   10.677482
  61 C     6.0000    0    12.011   32.818004   15.617755    9.264723
  62 C     6.0000    0    12.011   32.150421   13.613587    7.693982
  63 C     6.0000    0    12.011   30.787739   18.687691   12.341442
  64 O     8.0000    0    15.999   17.095615   -5.919246   -2.897441
  65 C     6.0000    0    12.011   17.536602   -6.986658   -5.318256
  66 C     6.0000    0    12.011   19.915276   -5.768956   -6.417831
  67 C     6.0000    0    12.011   22.228244   -6.494025   -4.855614
  68 C     6.0000    0    12.011   20.233808   -6.560808   -9.171559
  69 C     6.0000    0    12.011   15.828214    3.080310    7.303508
  70 C     6.0000    0    12.011   18.426757   -0.402701    9.211319
  71 C     6.0000    0    12.011   29.090482    4.305098    2.391675
  72 C     6.0000    0    12.011   26.083531    6.590949   -0.526043
  73 C     6.0000    0    12.011   34.110464   12.198711    6.229388
  74 C     6.0000    0    12.011   35.394249   10.135376    7.836675
  75 C     6.0000    0    12.011   15.709463    4.369217    9.588603
  76 C     6.0000    0    12.011   13.889941    6.197735    9.987051
  77 C     6.0000    0    12.011   12.143569    6.796211    8.118868
  78 C     6.0000    0    12.011   12.281425    5.514259    5.834756
  79 C     6.0000    0    12.011   14.104916    3.686856    5.423760
  80 C     6.0000    0    12.011   20.862747   -0.943143   10.007101
  81 C     6.0000    0    12.011   21.266184   -2.444304   12.111992
  82 C     6.0000    0    12.011   19.257235   -3.455005   13.457458
  83 C     6.0000    0    12.011   16.817013   -2.922386   12.637373
  84 C     6.0000    0    12.011   16.404486   -1.423909   10.543387
  85 C     6.0000    0    12.011   31.222263    5.187960    1.134516
  86 C     6.0000    0    12.011   33.549782    4.074174    1.523100
  87 C     6.0000    0    12.011   33.821430    2.060236    3.188006
  88 C     6.0000    0    12.011   31.683167    1.174295    4.421468
  89 C     6.0000    0    12.011   29.346067    2.283772    4.039516
  90 C     6.0000    0    12.011   25.008825    8.930090   -1.022965
  91 C     6.0000    0    12.011   24.444439    9.635203   -3.475358
  92 C     6.0000    0    12.011   24.921897    8.021339   -5.488124
  93 C     6.0000    0    12.011   25.980446    5.672901   -4.976858
  94 C     6.0000    0    12.011   26.552655    4.961552   -2.530835
  95 C     6.0000    0    12.011   19.674959   -5.071571   15.742874
  96 C     6.0000    0    12.011   10.145637    8.746144    8.584894
  97 C     6.0000    0    12.011   36.368611    0.928120    3.675026
  98 C     6.0000    0    12.011   24.272927    8.768140   -8.140298
  99 C     6.0000    0    12.011   33.520151    8.107530    8.662316
 100 C     6.0000    0    12.011   37.536556    8.941844    6.318280
 101 H     1.0000    0     1.008    8.547023  -14.868498   -9.680254
 102 H     1.0000    0     1.008    1.735109  -16.778482   -3.465550
 103 H     1.0000    0     1.008   34.023310   27.500995   15.889573
 104 H     1.0000    0     1.008   40.667624   20.976376   14.451246
 105 H     1.0000    0     1.008    8.112311  -10.115572    1.237223
 106 H     1.0000    0     1.008   13.262608   -9.500655   -4.077273
 107 H     1.0000    0     1.008   13.970027   -2.988772    5.387137
 108 H     1.0000    0     1.008   23.607630    1.544171    0.383236
 109 H     1.0000    0     1.008   20.899332    5.384926    8.612843
 110 H     1.0000    0     1.008   30.020530   10.374653    3.117727
 111 H     1.0000    0     1.008   34.702345   16.380713    9.313213
 112 H     1.0000    0     1.008   28.935392   19.504128   12.679911
 113 H     1.0000    0     1.008   15.905598   -6.622772   -6.546314
 114 H     1.0000    0     1.008   17.790052   -9.037823   -5.146046
 115 H     1.0000    0     1.008   19.665511   -3.717639   -6.317128
 116 H     1.0000    0     1.008   22.550707   -8.522400   -4.952386
 117 H     1.0000    0     1.008   21.951720   -5.960669   -2.891923
 118 H     1.0000    0     1.008   23.899366   -5.534233   -5.566358
 119 H     1.0000    0     1.008   20.419946   -8.603054   -9.312684
 120 H     1.0000    0     1.008   21.920937   -5.699490   -9.964639
 121 H     1.0000    0     1.008   18.615900   -5.977166  -10.295927
 122 H     1.0000    0     1.008   35.554422   13.542760    5.619705
 123 H     1.0000    0     1.008   33.316325   11.319119    4.552501
 124 H     1.0000    0     1.008   36.179544   11.024851    9.532686
 125 H     1.0000    0     1.008   17.036561    3.921768   11.074494
 126 H     1.0000    0     1.008   13.822723    7.177331   11.777643
 127 H     1.0000    0     1.008   10.947599    5.950785    4.351113
 128 H     1.0000    0     1.008   14.179617    2.726062    3.623909
 129 H     1.0000    0     1.008   22.463175   -0.189124    8.988860
 130 H     1.0000    0     1.008   23.180118   -2.833871   12.708673
 131 H     1.0000    0     1.008   15.224616   -3.696871   13.654084
 132 H     1.0000    0     1.008   14.495636   -1.021945    9.941452
 133 H     1.0000    0     1.008   31.051318    6.757736   -0.160853
 134 H     1.0000    0     1.008   35.186644    4.785939    0.529256
 135 H     1.0000    0     1.008   31.846081   -0.394556    5.718028
 136 H     1.0000    0     1.008   27.715876    1.574917    5.042772
 137 H     1.0000    0     1.008   24.614666   10.213403    0.515612
 138 H     1.0000    0     1.008   23.619328   11.469693   -3.827867
 139 H     1.0000    0     1.008   26.365024    4.386565   -6.515908
 140 H     1.0000    0     1.008   27.396437    3.136208   -2.174621
 141 H     1.0000    0     1.008   21.670378   -5.486121   15.999064
 142 H     1.0000    0     1.008   18.646136   -6.844853   15.568339
 143 H     1.0000    0     1.008   18.985908   -4.111250   17.429322
 144 H     1.0000    0     1.008    8.574028    7.908693    9.621919
 145 H     1.0000    0     1.008    9.417809    9.492605    6.814485
 146 H     1.0000    0     1.008   10.888092   10.297722    9.710755
 147 H     1.0000    0     1.008   37.375476    2.053471    5.077335
 148 H     1.0000    0     1.008   37.499858    0.899925    1.958890
 149 H     1.0000    0     1.008   36.198025   -0.987684    4.395994
 150 H     1.0000    0     1.008   22.403251    8.054655   -8.632779
 151 H     1.0000    0     1.008   25.622438    7.979406   -9.475219
 152 H     1.0000    0     1.008   24.247889   10.812654   -8.343387
 153 H     1.0000    0     1.008   32.631564    7.223667    7.030027
 154 H     1.0000    0     1.008   32.061604    8.906619    9.866147
 155 H     1.0000    0     1.008   34.495325    6.652138    9.735567
 156 H     1.0000    0     1.008   36.784294    7.995847    4.653715
 157 H     1.0000    0     1.008   38.528436    7.552347    7.461319
 158 H     1.0000    0     1.008   38.893550   10.361765    5.711319

--------------------------------
INTERNAL COORDINATES (ANGSTROEM)
--------------------------------
 C      0   0   0     0.000000000000     0.00000000     0.00000000
 O      1   0   0     1.215924493297     0.00000000     0.00000000
 C      1   2   0     1.480258132422   124.60208630     0.00000000
 C      3   1   2     1.380430380352   127.91212463   358.70103225
 C      4   3   1     1.385316282515   117.60634284   180.55222850
 C      5   4   3     1.394313069472   120.52979154     0.00000000
 C      6   5   4     1.387347391355   121.77216882   359.85215281
 C      7   6   5     1.386184466260   118.02831514     0.12630605
 C      8   7   6     1.464103883780   131.76007718   179.99635569
 C      9   8   7     1.372316064214   124.23903143     3.50051604
 C     10   9   8     1.411074161552   126.82258002   177.54577597
 N     11  10   9     1.149077641981   174.42344241   185.63361570
 C     10   9   8     1.411290790801   123.96021062   358.59681239
 N     13  10   9     1.148036177522   176.04629534   181.50491838
 C      9   8   7     1.450826431073   107.80645100   182.06969219
 F      5   4   3     1.339715810237   119.71455816   179.88328027
 F      6   5   4     1.338652693457   119.34436959   179.77528999
 C     12  11  10    23.557316902336   125.50263402   190.56803604
 O     18  12  11     1.209074345646    80.58899239   108.30403055
 C     18  12  11     1.482073210439   151.62691964   282.61266592
 C     20  18  12     1.380398781729   128.68461564   183.45542145
 C     21  20  18     1.386153869201   117.66353303   181.74305280
 C     22  21  20     1.394760778700   120.70674637     0.00000000
 C     23  22  21     1.387389424567   121.66367825   359.41293966
 C     24  23  22     1.384956524155   117.90788755     0.53397817
 C     25  24  23     1.464855060748   131.17738576   181.58327434
 C     26  25  24     1.372205330699   124.75156606    19.63842564
 C     27  26  25     1.408926507416   123.72999756   165.55770857
 N     28  27  26     1.147907328882   176.68164577   211.97476687
 C     27  26  25     1.409133992103   124.02449663   349.44091438
 N     30  27  26     1.147980049043   176.67446563   209.00389438
 C     26  25  24     1.441811247875   107.25077953   188.26033380
 F     22  21  20     1.338763178049   119.66958271   179.76665547
 F     23  22  21     1.338051612196   119.40292331   179.20282241
 C     15   9   8     1.378668213059   123.11849892   174.85100462
 C     35  15   9     1.398546805867   131.82238211   179.93764093
 C     36  35  15     1.391032788722   133.00563303   356.80651744
 C     37  36  35     1.387669397335   113.52751089   179.57144137
 C     38  37  36     1.407945423125   113.39065076     0.08628345
 S     39  38  37     1.724640616273   110.86830678     0.35664007
 C     39  38  37     1.407364556716   125.74059356   181.41757827
 S     41  39  38     1.752843934896   120.05001804   359.52393424
 C     42  41  39     1.714624185762    89.86682511   178.38605748
 C     43  42  41     1.390825898378   112.85228248   359.96069413
 C     44  43  42     1.386036692624   113.08575488     0.46703303
 C     43  42  41     1.426917453464   136.39147959   182.29285897
 C     46  43  42     1.415305061038   107.06836547   178.22956564
 C     44  43  42     1.507696852885   110.22881984   179.24287835
 C     46  43  42     1.393513814212   131.02779164   359.63296720
 C     49  46  43     1.374081320592   117.21668259   177.07265589
 C     50  49  46     1.416758477970   120.86123680   358.95685753
 C     47  46  43     1.375263054728   120.86136919   183.73476870
 C     50  49  46     1.520121835380   128.17533653   181.37421210
 C     53  50  49     1.506687342882   100.78451415   174.34837748
 C     54  53  50     1.384995114143   110.47706546     4.65320802
 C     54  53  50     1.390174888063   135.53557422   176.10053800
 C     56  54  53     1.381739686555   112.18585110   188.87952737
 S     55  54  53     1.714621979679   112.17122038   174.59542806
 C     57  56  54     1.424845609496   129.48690636   176.24901190
 S     59  57  56     1.732907044276   118.76754172   154.29923672
 C     60  59  57     1.743423128245    91.92492184   176.17411027
 C     61  60  59     1.387072407194   109.74291753     1.14867401
 C     62  61  60     1.393011359071   114.97881842   359.19066295
 C     32  26  25     1.368873982878   133.19384548   163.19653555
 O     38  37  36     1.344506144501   128.46492030   180.51322509
 C     65  38  37     1.419357563724   117.78910335     1.32737690
 C     66  65  38     1.529125458849   108.12432193   178.05943588
 C     67  66  65     1.526019964843   110.37399464    65.79315640
 C     67  66  65     1.525601389158   109.79596588   188.58267063
 C     48  44  43     1.516004645310   114.30169067   119.66308107
 C     48  44  43     1.519311073513   107.25617870   244.02586727
 C     53  50  49     1.520759725696   114.05200305   284.87891476
 C     53  50  49     1.511334987718   109.42970800    52.29808228
 C     63  62  61     1.495679686096   120.96058029   185.36373943
 C     74  63  62     1.541789483360   111.97556297    83.19290411
 C     70  48  44     1.389736564101   119.94405816   161.16168756
 C     76  70  48     1.381233853154   120.54129296   177.61226661
 C     77  76  70     1.389843008976   120.96819072   359.84674729
 C     78  77  76     1.387975798384   118.23637299   359.74409849
 C     79  78  77     1.383314166413   121.01405887     0.05876925
 C     71  48  44     1.385938446360   122.15104605    97.93454540
 C     81  71  48     1.384666625618   120.41160883   182.39832234
 C     82  81  71     1.386774651412   121.06886499     0.50340542
 C     83  82  81     1.391132955364   118.24761332     0.00000000
 C     84  83  82     1.379965180611   120.91439080   359.87399518
 C     72  53  50     1.390476325509   119.07131393   169.52282892
 C     86  72  53     1.380824122725   120.59718864   172.99789977
 C     87  86  72     1.390200833081   120.91891933   359.56837525
 C     88  87  86     1.387866384491   118.21010406     0.93869617
 C     89  88  87     1.383862881249   121.10546274   359.04589434
 C     73  53  50     1.387363462868   120.95629335    90.18294246
 C     91  73  53     1.382960178385   120.47148818   182.14626566
 C     92  91  73     1.388397114697   120.97226021     0.41960679
 C     93  92  91     1.389740708082   118.29765431     0.08122321
 C     94  93  92     1.381595805328   120.95515752   359.78219553
 C     83  82  81     1.497758984984   121.44658768   180.26600038
 C     78  77  76     1.497781779599   120.61232966   178.81150807
 C     88  87  86     1.497394335037   120.58812292   182.39228536
 C     93  92  91     1.497945417363   120.98182298   179.02037143
 C     75  74  63     1.525103566680   111.70351710    63.41772313
 C     75  74  63     1.526336520463   109.26288569   185.40569477
 H      4   3   1     1.078295662284   121.45878158     0.46744377
 H      7   6   5     1.077215650926   118.65033055   179.92651087
 H     21  20  18     1.078275227852   121.51284654     1.71887109
 H     24  23  22     1.077866242444   118.98224423   179.92003653
 H     35  15   9     1.083011080322   115.46260049   358.77612466
 H     37  36  35     1.073534226050   121.45518623   359.90411988
 H     45  44  43     1.075021497552   125.96168401   180.01589841
 H     49  46  43     1.078975980317   120.72925626   357.74563903
 H     52  47  46     1.078957542677   121.97529637   178.28322526
 H     56  54  53     1.073010659174   123.84216453    11.43642904
 H     62  61  60     1.076091327769   122.63281984   176.60061104
 H     64  32  26     1.086080200584   114.17424256   168.85437036
 H     66  65  38     1.097415929035   109.59260100    57.70675588
 H     66  65  38     1.097474890920   109.80027362   298.50851307
 H     67  66  65     1.094824503334   107.45287495   307.47868156
 H     68  67  66     1.088054975909   110.38519975    63.65358727
 H     68  67  66     1.086684786909   110.16471739   303.46819955
 H     68  67  66     1.086942042843   110.34118550   183.55663267
 H     69  67  66     1.087756156728   110.39367786   299.63010840
 H     69  67  66     1.086715146945   110.14819795   179.94205833
 H     69  67  66     1.087387404838   110.95524134    59.84830439
 H     74  63  62     1.092619122384   108.18710368   323.78946978
 H     74  63  62     1.086591085045   111.67916664   205.12568571
 H     75  74  63     1.095320724628   108.35266489   304.17635319
 H     76  70  48     1.080516363273   119.75201050   356.85798586
 H     77  76  70     1.080654940719   119.52723031   179.83494061
 H     79  78  77     1.080719529295   119.59329559   180.18649361
 H     80  79  78     1.080372916821   119.54529202   180.43417096
 H     81  71  48     1.080186695484   120.09596939     2.57059748
 H     82  81  71     1.080731225190   119.27146458   180.38244269
 H     84  83  82     1.080513869231   119.45431230   179.76303490
 H     85  84  83     1.080300569008   119.85591828   180.36305571
 H     86  72  53     1.080792171558   119.58955420   352.86363369
 H     87  86  72     1.081083801100   119.57227206   180.00388399
 H     89  88  87     1.080468017204   119.54796520   179.72936087
 H     90  89  88     1.080159524191   119.64449460   180.85637973
 H     91  73  53     1.080542224441   119.80494493     2.33315794
 H     92  91  73     1.080665221704   119.44602247   180.40701540
 H     94  93  92     1.080770574636   119.49875329   179.91506166
 H     95  94  93     1.080705415458   119.83396893   180.75576165
 H     96  83  82     1.086963930726   111.06047139   353.06204609
 H     96  83  82     1.088802745634   110.48447311   232.22190946
 H     96  83  82     1.089785875390   110.21359745   113.31245814
 H     97  78  77     1.090503394814   109.95148152   278.33079477
 H     97  78  77     1.087235062992   111.00673299   158.73152649
 H     97  78  77     1.087867585738   110.80565314    37.46176081
 H     98  88  87     1.090498299448   109.78265775    82.26078795
 H     98  88  87     1.087795358926   110.92696877   323.14941276
 H     98  88  87     1.086966707540   111.02718488   201.76029009
 H     99  93  92     1.090578606887   109.91019790   266.02505067
 H     99  93  92     1.087751262652   110.89880556   146.78526811
 H     99  93  92     1.087315322940   110.97186988    25.47789388
 H    100  75  74     1.089021331150   110.83914287    58.38330817
 H    100  75  74     1.086440099637   110.85995798   297.20166672
 H    100  75  74     1.087198027408   109.84258982   178.10121498
 H    101  75  74     1.088560870553   110.16080156   296.51066380
 H    101  75  74     1.087206565194   110.21550840   176.93257469
 H    101  75  74     1.087843369378   111.09376940    56.98377764

---------------------------
INTERNAL COORDINATES (A.U.)
---------------------------
 C      0   0   0     0.000000000000     0.00000000     0.00000000
 O      1   0   0     2.297764291859     0.00000000     0.00000000
 C      1   2   0     2.797282477786   124.60208630     0.00000000
 C      3   1   2     2.608635365811   127.91212463   358.70103225
 C      4   3   1     2.617868382814   117.60634284   180.55222850
 C      5   4   3     2.634869846249   120.52979154     0.00000000
 C      6   5   4     2.621706622271   121.77216882   359.85215281
 C      7   6   5     2.619509012327   118.02831514     0.12630605
 C      8   7   6     2.766755371955   131.76007718   179.99635569
 C      9   8   7     2.593301530545   124.23903143     3.50051604
 C     10   9   8     2.666543719986   126.82258002   177.54577597
 N     11  10   9     2.171442049956   174.42344241   185.63361570
 C     10   9   8     2.666953089939   123.96021062   358.59681239
 N     13  10   9     2.169473967351   176.04629534   181.50491838
 C      9   8   7     2.741664622582   107.80645100   182.06969219
 F      5   4   3     2.531695978633   119.71455816   179.88328027
 F      6   5   4     2.529686979070   119.34436959   179.77528999
 C     12  11  10    44.516877395410   125.50263402   190.56803604
 O     18  12  11     2.284819388822    80.58899239   108.30403055
 C     18  12  11     2.800712478151   151.62691964   282.61266592
 C     20  18  12     2.608575653067   128.68461564   183.45542145
 C     21  20  18     2.619451192265   117.66353303   181.74305280
 C     22  21  20     2.635715894078   120.70674637     0.00000000
 C     23  22  21     2.621786053530   121.66367825   359.41293966
 C     24  23  22     2.617188538041   117.90788755     0.53397817
 C     25  24  23     2.768174890703   131.17738576   181.58327434
 C     26  25  24     2.593092274529   124.75156606    19.63842564
 C     27  26  25     2.662485241839   123.72999756   165.55770857
 N     28  27  26     2.169230478707   176.68164577   211.97476687
 C     27  26  25     2.662877331074   124.02449663   349.44091438
 N     30  27  26     2.169367899896   176.67446563   209.00389438
 C     26  25  24     2.724628395292   107.25077953   188.26033380
 F     22  21  20     2.529895764691   119.66958271   179.76665547
 F     23  22  21     2.528551100102   119.40292331   179.20282241
 C     15   9   8     2.605305352225   123.11849892   174.85100462
 C     35  15   9     2.642870448558   131.82238211   179.93764093
 C     36  35  15     2.628671013990   133.00563303   356.80651744
 C     37  36  35     2.622315125387   113.52751089   179.57144137
 C     38  37  36     2.660631261215   113.39065076     0.08628345
 S     39  38  37     3.259098444194   110.86830678     0.35664007
 C     39  38  37     2.659533582780   125.74059356   181.41757827
 S     41  39  38     3.312394992457   120.05001804   359.52393424
 C     42  41  39     3.240170133688    89.86682511   178.38605748
 C     43  42  41     2.628280047900   112.85228248   359.96069413
 C     44  43  42     2.619229760625   113.08575488     0.46703303
 C     43  42  41     2.696483202759   136.39147959   182.29285897
 C     46  43  42     2.674538961315   107.06836547   178.22956564
 C     44  43  42     2.849134144928   110.22881984   179.24287835
 C     46  43  42     2.633359472697   131.02779164   359.63296720
 C     49  46  43     2.596637381656   117.21668259   177.07265589
 C     50  49  46     2.677285521274   120.86123680   358.95685753
 C     47  46  43     2.598870535536   120.86136919   183.73476870
 C     50  49  46     2.872613959063   128.17533653   181.37421210
 C     53  50  49     2.847226447492   100.78451415   174.34837748
 C     54  53  50     2.617261462549   110.47706546     4.65320802
 C     54  53  50     2.627049816693   135.53557422   176.10053800
 C     56  54  53     2.611109595958   112.18585110   188.87952737
 S     55  54  53     3.240165964796   112.17122038   174.59542806
 C     57  56  54     2.692567985068   129.48690636   176.24901190
 S     59  57  56     3.274719729224   118.76754172   154.29923672
 C     60  59  57     3.294592247928    91.92492184   176.17411027
 C     61  60  59     2.621186977516   109.74291753     1.14867401
 C     62  61  60     2.632409970085   114.97881842   359.19066295
 C     32  26  25     2.586796939489   133.19384548   163.19653555
 O     38  37  36     2.540748398481   128.46492030   180.51322509
 C     65  38  37     2.682197081548   117.78910335     1.32737690
 C     66  65  38     2.889628341631   108.12432193   178.05943588
 C     67  66  65     2.883759808450   110.37399464    65.79315640
 C     67  66  65     2.882968815038   109.79596588   188.58267063
 C     48  44  43     2.864833597387   114.30169067   119.66308107
 C     48  44  43     2.871081841174   107.25617870   244.02586727
 C     53  50  49     2.873819397063   114.05200305   284.87891476
 C     53  50  49     2.856009223400   109.42970800    52.29808228
 C     63  62  61     2.826424990791   120.96058029   185.36373943
 C     74  63  62     2.913559879711   111.97556297    83.19290411
 C     70  48  44     2.626221504448   119.94405816   161.16168756
 C     76  70  48     2.610153709363   120.54129296   177.61226661
 C     77  76  70     2.626422656110   120.96819072   359.84674729
 C     78  77  76     2.622894139457   118.23637299   359.74409849
 C     79  78  77     2.614084931695   121.01405887     0.05876925
 C     71  48  44     2.619044102094   122.15104605    97.93454540
 C     81  71  48     2.616640709199   120.41160883   182.39832234
 C     82  81  71     2.620624300634   121.06886499     0.50340542
 C     83  82  81     2.628860301511   118.24761332     0.00000000
 C     84  83  82     2.607756265703   120.91439080   359.87399518
 C     72  53  50     2.627619450912   119.07131393   169.52282892
 C     86  72  53     2.609379431063   120.59718864   172.99789977
 C     87  86  72     2.627098845673   120.91891933   359.56837525
 C     88  87  86     2.622687377163   118.21010406     0.93869617
 C     89  88  87     2.615121852461   121.10546274   359.04589434
 C     73  53  50     2.621736993028   120.95629335    90.18294246
 C     91  73  53     2.613415991267   120.47148818   182.14626566
 C     92  91  73     2.623690311904   120.97226021     0.41960679
 C     93  92  91     2.626229335437   118.29765431     0.08122321
 C     94  93  92     2.610837699844   120.95515752   359.78219553
 C     83  82  81     2.830354296239   121.44658768   180.26600038
 C     78  77  76     2.830397371820   120.61232966   178.81150807
 C     88  87  86     2.829665207704   120.58812292   182.39228536
 C     93  92  91     2.830706602379   120.98182298   179.02037143
 C     75  74  63     2.882028066892   111.70351710    63.41772313
 C     75  74  63     2.884358011878   109.26288569   185.40569477
 H      4   3   1     2.037683493112   121.45878158     0.46744377
 H      7   6   5     2.035642567424   118.65033055   179.92651087
 H     21  20  18     2.037644877632   121.51284654     1.71887109
 H     24  23  22     2.036872007218   118.98224423   179.92003653
 H     35  15   9     2.046594341811   115.46260049   358.77612466
 H     37  36  35     2.028685682625   121.45518623   359.90411988
 H     45  44  43     2.031496218452   125.96168401   180.01589841
 H     49  46  43     2.038969107877   120.72925626   357.74563903
 H     52  47  46     2.038934265789   121.97529637   178.28322526
 H     56  54  53     2.027696284616   123.84216453    11.43642904
 H     62  61  60     2.033517904571   122.63281984   176.60061104
 H     64  32  26     2.052394138578   114.17424256   168.85437036
 H     66  65  38     2.073815560879   109.59260100    57.70675588
 H     66  65  38     2.073926982694   109.80027362   298.50851307
 H     67  66  65     2.068918476007   107.45287495   307.47868156
 H     68  67  66     2.056125923118   110.38519975    63.65358727
 H     68  67  66     2.053536641157   110.16471739   303.46819955
 H     68  67  66     2.054022784418   110.34118550   183.55663267
 H     69  67  66     2.055561236703   110.39367786   299.63010840
 H     69  67  66     2.053594013310   110.14819795   179.94205833
 H     69  67  66     2.054864396619   110.95524134    59.84830439
 H     74  63  62     2.064750909992   108.18710368   323.78946978
 H     74  63  62     2.053359570296   111.67916664   205.12568571
 H     75  74  63     2.069856198355   108.35266489   304.17635319
 H     76  70  48     2.041880009806   119.75201050   356.85798586
 H     77  76  70     2.042141883227   119.52723031   179.83494061
 H     79  78  77     2.042263937948   119.59329559   180.18649361
 H     80  79  78     2.041608935297   119.54529202   180.43417096
 H     81  71  48     2.041257027970   120.09596939     2.57059748
 H     82  81  71     2.042286039986   119.27146458   180.38244269
 H     84  83  82     2.041875296750   119.45431230   179.76303490
 H     85  84  83     2.041472217745   119.85591828   180.36305571
 H     86  72  53     2.042401211930   119.58955420   352.86363369
 H     87  86  72     2.042952311897   119.57227206   180.00388399
 H     89  88  87     2.041788648976   119.54796520   179.72936087
 H     90  89  88     2.041205681667   119.64449460   180.85637973
 H     91  73  53     2.041928880332   119.80494493     2.33315794
 H     92  91  73     2.042161311473   119.44602247   180.40701540
 H     94  93  92     2.042360399664   119.49875329   179.91506166
 H     95  94  93     2.042237266661   119.83396893   180.75576165
 H     96  83  82     2.054064146523   111.06047139   353.06204609
 H     96  83  82     2.057539003110   110.48447311   232.22190946
 H     96  83  82     2.059396849103   110.21359745   113.31245814
 H     97  78  77     2.060752764309   109.95148152   278.33079477
 H     97  78  77     2.054576512252   111.00673299   158.73152649
 H     97  78  77     2.055771807015   110.80565314    37.46176081
 H     98  88  87     2.060743135464   109.78265775    82.26078795
 H     98  88  87     2.055635318120   110.92696877   323.14941276
 H     98  88  87     2.054069393940   111.02718488   201.76029009
 H     99  93  92     2.060894894530   109.91019790   266.02505067
 H     99  93  92     2.055551988238   110.89880556   146.78526811
 H     99  93  92     2.054728181573   110.97186988    25.47789388
 H    100  75  74     2.057952069872   110.83914287    58.38330817
 H    100  75  74     2.053074249225   110.85995798   297.20166672
 H    100  75  74     2.054506525141   109.84258982   178.10121498
 H    101  75  74     2.057081925449   110.16080156   296.51066380
 H    101  75  74     2.054522659217   110.21550840   176.93257469
 H    101  75  74     2.055726044727   111.09376940    56.98377764

---------------------
BASIS SET INFORMATION
---------------------
There are 6 groups of distinct atoms

 Group   1 Type C   : 11s6p2d1f contracted to 5s3p2d1f pattern {62111/411/11/1}
 Group   2 Type O   : 11s6p2d1f contracted to 5s3p2d1f pattern {62111/411/11/1}
 Group   3 Type N   : 11s6p2d1f contracted to 5s3p2d1f pattern {62111/411/11/1}
 Group   4 Type F   : 11s6p2d1f contracted to 5s3p2d1f pattern {62111/411/11/1}
 Group   5 Type S   : 14s9p3d1f contracted to 5s5p2d1f pattern {73211/51111/21/1}
 Group   6 Type H   : 5s1p contracted to 3s1p pattern {311/1}

Atom   0C    basis set group =>   1
Atom   1O    basis set group =>   2
Atom   2C    basis set group =>   1
Atom   3C    basis set group =>   1
Atom   4C    basis set group =>   1
Atom   5C    basis set group =>   1
Atom   6C    basis set group =>   1
Atom   7C    basis set group =>   1
Atom   8C    basis set group =>   1
Atom   9C    basis set group =>   1
Atom  10C    basis set group =>   1
Atom  11N    basis set group =>   3
Atom  12C    basis set group =>   1
Atom  13N    basis set group =>   3
Atom  14C    basis set group =>   1
Atom  15F    basis set group =>   4
Atom  16F    basis set group =>   4
Atom  17C    basis set group =>   1
Atom  18O    basis set group =>   2
Atom  19C    basis set group =>   1
Atom  20C    basis set group =>   1
Atom  21C    basis set group =>   1
Atom  22C    basis set group =>   1
Atom  23C    basis set group =>   1
Atom  24C    basis set group =>   1
Atom  25C    basis set group =>   1
Atom  26C    basis set group =>   1
Atom  27C    basis set group =>   1
Atom  28N    basis set group =>   3
Atom  29C    basis set group =>   1
Atom  30N    basis set group =>   3
Atom  31C    basis set group =>   1
Atom  32F    basis set group =>   4
Atom  33F    basis set group =>   4
Atom  34C    basis set group =>   1
Atom  35C    basis set group =>   1
Atom  36C    basis set group =>   1
Atom  37C    basis set group =>   1
Atom  38C    basis set group =>   1
Atom  39S    basis set group =>   5
Atom  40C    basis set group =>   1
Atom  41S    basis set group =>   5
Atom  42C    basis set group =>   1
Atom  43C    basis set group =>   1
Atom  44C    basis set group =>   1
Atom  45C    basis set group =>   1
Atom  46C    basis set group =>   1
Atom  47C    basis set group =>   1
Atom  48C    basis set group =>   1
Atom  49C    basis set group =>   1
Atom  50C    basis set group =>   1
Atom  51C    basis set group =>   1
Atom  52C    basis set group =>   1
Atom  53C    basis set group =>   1
Atom  54C    basis set group =>   1
Atom  55C    basis set group =>   1
Atom  56C    basis set group =>   1
Atom  57S    basis set group =>   5
Atom  58C    basis set group =>   1
Atom  59S    basis set group =>   5
Atom  60C    basis set group =>   1
Atom  61C    basis set group =>   1
Atom  62C    basis set group =>   1
Atom  63C    basis set group =>   1
Atom  64O    basis set group =>   2
Atom  65C    basis set group =>   1
Atom  66C    basis set group =>   1
Atom  67C    basis set group =>   1
Atom  68C    basis set group =>   1
Atom  69C    basis set group =>   1
Atom  70C    basis set group =>   1
Atom  71C    basis set group =>   1
Atom  72C    basis set group =>   1
Atom  73C    basis set group =>   1
Atom  74C    basis set group =>   1
Atom  75C    basis set group =>   1
Atom  76C    basis set group =>   1
Atom  77C    basis set group =>   1
Atom  78C    basis set group =>   1
Atom  79C    basis set group =>   1
Atom  80C    basis set group =>   1
Atom  81C    basis set group =>   1
Atom  82C    basis set group =>   1
Atom  83C    basis set group =>   1
Atom  84C    basis set group =>   1
Atom  85C    basis set group =>   1
Atom  86C    basis set group =>   1
Atom  87C    basis set group =>   1
Atom  88C    basis set group =>   1
Atom  89C    basis set group =>   1
Atom  90C    basis set group =>   1
Atom  91C    basis set group =>   1
Atom  92C    basis set group =>   1
Atom  93C    basis set group =>   1
Atom  94C    basis set group =>   1
Atom  95C    basis set group =>   1
Atom  96C    basis set group =>   1
Atom  97C    basis set group =>   1
Atom  98C    basis set group =>   1
Atom  99C    basis set group =>   1
Atom 100C    basis set group =>   1
Atom 101H    basis set group =>   6
Atom 102H    basis set group =>   6
Atom 103H    basis set group =>   6
Atom 104H    basis set group =>   6
Atom 105H    basis set group =>   6
Atom 106H    basis set group =>   6
Atom 107H    basis set group =>   6
Atom 108H    basis set group =>   6
Atom 109H    basis set group =>   6
Atom 110H    basis set group =>   6
Atom 111H    basis set group =>   6
Atom 112H    basis set group =>   6
Atom 113H    basis set group =>   6
Atom 114H    basis set group =>   6
Atom 115H    basis set group =>   6
Atom 116H    basis set group =>   6
Atom 117H    basis set group =>   6
Atom 118H    basis set group =>   6
Atom 119H    basis set group =>   6
Atom 120H    basis set group =>   6
Atom 121H    basis set group =>   6
Atom 122H    basis set group =>   6
Atom 123H    basis set group =>   6
Atom 124H    basis set group =>   6
Atom 125H    basis set group =>   6
Atom 126H    basis set group =>   6
Atom 127H    basis set group =>   6
Atom 128H    basis set group =>   6
Atom 129H    basis set group =>   6
Atom 130H    basis set group =>   6
Atom 131H    basis set group =>   6
Atom 132H    basis set group =>   6
Atom 133H    basis set group =>   6
Atom 134H    basis set group =>   6
Atom 135H    basis set group =>   6
Atom 136H    basis set group =>   6
Atom 137H    basis set group =>   6
Atom 138H    basis set group =>   6
Atom 139H    basis set group =>   6
Atom 140H    basis set group =>   6
Atom 141H    basis set group =>   6
Atom 142H    basis set group =>   6
Atom 143H    basis set group =>   6
Atom 144H    basis set group =>   6
Atom 145H    basis set group =>   6
Atom 146H    basis set group =>   6
Atom 147H    basis set group =>   6
Atom 148H    basis set group =>   6
Atom 149H    basis set group =>   6
Atom 150H    basis set group =>   6
Atom 151H    basis set group =>   6
Atom 152H    basis set group =>   6
Atom 153H    basis set group =>   6
Atom 154H    basis set group =>   6
Atom 155H    basis set group =>   6
Atom 156H    basis set group =>   6
Atom 157H    basis set group =>   6
Atom 158H    basis set group =>   6
---------------------------------
AUXILIARY/J BASIS SET INFORMATION
---------------------------------
There are 6 groups of distinct atoms

 Group   1 Type C   : 12s5p4d2f1g contracted to 6s4p3d1f1g pattern {711111/2111/211/2/1}
 Group   2 Type O   : 12s5p4d2f1g contracted to 6s4p3d1f1g pattern {711111/2111/211/2/1}
 Group   3 Type N   : 12s5p4d2f1g contracted to 6s4p3d1f1g pattern {711111/2111/211/2/1}
 Group   4 Type F   : 12s5p4d2f1g contracted to 6s4p3d1f1g pattern {711111/2111/211/2/1}
 Group   5 Type S   : 14s5p5d2f1g contracted to 8s4p3d1f1g pattern {71111111/2111/311/2/1}
 Group   6 Type H   : 5s2p1d contracted to 3s1p1d pattern {311/2/1}

Atom   0C    basis set group =>   1
Atom   1O    basis set group =>   2
Atom   2C    basis set group =>   1
Atom   3C    basis set group =>   1
Atom   4C    basis set group =>   1
Atom   5C    basis set group =>   1
Atom   6C    basis set group =>   1
Atom   7C    basis set group =>   1
Atom   8C    basis set group =>   1
Atom   9C    basis set group =>   1
Atom  10C    basis set group =>   1
Atom  11N    basis set group =>   3
Atom  12C    basis set group =>   1
Atom  13N    basis set group =>   3
Atom  14C    basis set group =>   1
Atom  15F    basis set group =>   4
Atom  16F    basis set group =>   4
Atom  17C    basis set group =>   1
Atom  18O    basis set group =>   2
Atom  19C    basis set group =>   1
Atom  20C    basis set group =>   1
Atom  21C    basis set group =>   1
Atom  22C    basis set group =>   1
Atom  23C    basis set group =>   1
Atom  24C    basis set group =>   1
Atom  25C    basis set group =>   1
Atom  26C    basis set group =>   1
Atom  27C    basis set group =>   1
Atom  28N    basis set group =>   3
Atom  29C    basis set group =>   1
Atom  30N    basis set group =>   3
Atom  31C    basis set group =>   1
Atom  32F    basis set group =>   4
Atom  33F    basis set group =>   4
Atom  34C    basis set group =>   1
Atom  35C    basis set group =>   1
Atom  36C    basis set group =>   1
Atom  37C    basis set group =>   1
Atom  38C    basis set group =>   1
Atom  39S    basis set group =>   5
Atom  40C    basis set group =>   1
Atom  41S    basis set group =>   5
Atom  42C    basis set group =>   1
Atom  43C    basis set group =>   1
Atom  44C    basis set group =>   1
Atom  45C    basis set group =>   1
Atom  46C    basis set group =>   1
Atom  47C    basis set group =>   1
Atom  48C    basis set group =>   1
Atom  49C    basis set group =>   1
Atom  50C    basis set group =>   1
Atom  51C    basis set group =>   1
Atom  52C    basis set group =>   1
Atom  53C    basis set group =>   1
Atom  54C    basis set group =>   1
Atom  55C    basis set group =>   1
Atom  56C    basis set group =>   1
Atom  57S    basis set group =>   5
Atom  58C    basis set group =>   1
Atom  59S    basis set group =>   5
Atom  60C    basis set group =>   1
Atom  61C    basis set group =>   1
Atom  62C    basis set group =>   1
Atom  63C    basis set group =>   1
Atom  64O    basis set group =>   2
Atom  65C    basis set group =>   1
Atom  66C    basis set group =>   1
Atom  67C    basis set group =>   1
Atom  68C    basis set group =>   1
Atom  69C    basis set group =>   1
Atom  70C    basis set group =>   1
Atom  71C    basis set group =>   1
Atom  72C    basis set group =>   1
Atom  73C    basis set group =>   1
Atom  74C    basis set group =>   1
Atom  75C    basis set group =>   1
Atom  76C    basis set group =>   1
Atom  77C    basis set group =>   1
Atom  78C    basis set group =>   1
Atom  79C    basis set group =>   1
Atom  80C    basis set group =>   1
Atom  81C    basis set group =>   1
Atom  82C    basis set group =>   1
Atom  83C    basis set group =>   1
Atom  84C    basis set group =>   1
Atom  85C    basis set group =>   1
Atom  86C    basis set group =>   1
Atom  87C    basis set group =>   1
Atom  88C    basis set group =>   1
Atom  89C    basis set group =>   1
Atom  90C    basis set group =>   1
Atom  91C    basis set group =>   1
Atom  92C    basis set group =>   1
Atom  93C    basis set group =>   1
Atom  94C    basis set group =>   1
Atom  95C    basis set group =>   1
Atom  96C    basis set group =>   1
Atom  97C    basis set group =>   1
Atom  98C    basis set group =>   1
Atom  99C    basis set group =>   1
Atom 100C    basis set group =>   1
Atom 101H    basis set group =>   6
Atom 102H    basis set group =>   6
Atom 103H    basis set group =>   6
Atom 104H    basis set group =>   6
Atom 105H    basis set group =>   6
Atom 106H    basis set group =>   6
Atom 107H    basis set group =>   6
Atom 108H    basis set group =>   6
Atom 109H    basis set group =>   6
Atom 110H    basis set group =>   6
Atom 111H    basis set group =>   6
Atom 112H    basis set group =>   6
Atom 113H    basis set group =>   6
Atom 114H    basis set group =>   6
Atom 115H    basis set group =>   6
Atom 116H    basis set group =>   6
Atom 117H    basis set group =>   6
Atom 118H    basis set group =>   6
Atom 119H    basis set group =>   6
Atom 120H    basis set group =>   6
Atom 121H    basis set group =>   6
Atom 122H    basis set group =>   6
Atom 123H    basis set group =>   6
Atom 124H    basis set group =>   6
Atom 125H    basis set group =>   6
Atom 126H    basis set group =>   6
Atom 127H    basis set group =>   6
Atom 128H    basis set group =>   6
Atom 129H    basis set group =>   6
Atom 130H    basis set group =>   6
Atom 131H    basis set group =>   6
Atom 132H    basis set group =>   6
Atom 133H    basis set group =>   6
Atom 134H    basis set group =>   6
Atom 135H    basis set group =>   6
Atom 136H    basis set group =>   6
Atom 137H    basis set group =>   6
Atom 138H    basis set group =>   6
Atom 139H    basis set group =>   6
Atom 140H    basis set group =>   6
Atom 141H    basis set group =>   6
Atom 142H    basis set group =>   6
Atom 143H    basis set group =>   6
Atom 144H    basis set group =>   6
Atom 145H    basis set group =>   6
Atom 146H    basis set group =>   6
Atom 147H    basis set group =>   6
Atom 148H    basis set group =>   6
Atom 149H    basis set group =>   6
Atom 150H    basis set group =>   6
Atom 151H    basis set group =>   6
Atom 152H    basis set group =>   6
Atom 153H    basis set group =>   6
Atom 154H    basis set group =>   6
Atom 155H    basis set group =>   6
Atom 156H    basis set group =>   6
Atom 157H    basis set group =>   6
Atom 158H    basis set group =>   6
------------------------------------------------------------------------------
                           ORCA GTO INTEGRAL CALCULATION
                           -- RI-GTO INTEGRALS CHOSEN --
------------------------------------------------------------------------------

                         BASIS SET STATISTICS AND STARTUP INFO

Gaussian basis set:
 # of primitive gaussian shells          ... 2396
 # of primitive gaussian functions       ... 5178
 # of contracted shells                  ... 1351
 # of contracted basis functions         ... 3503
 Highest angular momentum                ...    3
 Maximum contraction depth               ...    7
Auxiliary gaussian basis set:
 # of primitive gaussian shells          ... 2900
 # of primitive gaussian functions       ... 8026
 # of contracted shells                  ... 1813
 # of contracted aux-basis functions     ... 5595
 Highest angular momentum                ...    4
 Maximum contraction depth               ...    7
Ratio of auxiliary to basis functions    ...  1.60
Integral package used                  ... LIBINT
 One Electron integrals                  ... done
 Ordering auxiliary basis shells         ... done
 Integral threshhold             Thresh  ...  2.500e-11
 Primitive cut-off               TCut    ...  2.500e-12
 Pre-screening matrix                    ... done
 Shell pair data                         ... 
 Ordering of the shell pairs             ... done (   0.058 sec) 249023 of 913276 pairs
 Determination of significant pairs      ... done (   0.002 sec)
 Creation of shell pair data             ... done (   0.028 sec)
 Storage of shell pair data              ... done (   0.036 sec)
 Shell pair data done in (   0.124 sec)
 Computing two index integrals           ... done
 Cholesky decomposition of the V-matrix  ... done


Timings:
 Total evaluation time                   ...  13.675 sec (  0.228 min)
 One electron matrix time                ...   5.047 sec (  0.084 min) = 36.9%
 Schwartz matrix evaluation time         ...   6.644 sec (  0.111 min) = 48.6%
 Two index repulsion integral time       ...   0.731 sec (  0.012 min) =  5.3%
 Cholesky decomposition of V             ...   1.109 sec (  0.018 min) =  8.1%
 Three index repulsion integral time     ...   0.000 sec (  0.000 min) =  0.0%

-------------------------------------------------------------------------------
                                 ORCA SCF
-------------------------------------------------------------------------------

------------
SCF SETTINGS
------------
Hamiltonian:
 Density Functional     Method          .... DFT(GTOs)
 Exchange Functional    Exchange        .... B88
   X-Alpha parameter    XAlpha          ....  0.666667
   Becke's b parameter  XBeta           ....  0.004200
 Correlation Functional Correlation     .... LYP
 LDA part of GGA corr.  LDAOpt          .... VWN-5
 Gradients option       PostSCFGGA      .... off
 Hybrid DFT is turned on
   Fraction HF Exchange ScalHFX         ....  0.200000
   Scaling of DF-GGA-X  ScalDFX         ....  0.720000
   Scaling of DF-GGA-C  ScalDFC         ....  0.810000
   Scaling of DF-LDA-C  ScalLDAC        ....  1.000000
   Perturbative correction              ....  0.000000
   Density functional embedding theory  .... OFF
   NL short-range parameter             ....  4.800000
 RI-approximation to the Coulomb term is turned on
   Number of auxiliary basis functions  .... 5595
   RIJ-COSX (HFX calculated with COS-X)).... on


General Settings:
 Integral files         IntName         .... p-IO1
 Hartree-Fock type      HFTyp           .... RHF
 Total Charge           Charge          ....    0
 Multiplicity           Mult            ....    1
 Number of Electrons    NEL             ....  726
 Basis Dimension        Dim             .... 3503
 Nuclear Repulsion      ENuc            ....  18188.3606599039 Eh

Convergence Acceleration:
 DIIS                   CNVDIIS         .... on
   Start iteration      DIISMaxIt       ....    12
   Startup error        DIISStart       ....  0.200000
   # of expansion vecs  DIISMaxEq       ....     5
   Bias factor          DIISBfac        ....   1.050
   Max. coefficient     DIISMaxC        ....  10.000
 Newton-Raphson         CNVNR           .... off
 SOSCF                  CNVSOSCF        .... on
   Start iteration      SOSCFMaxIt      ....   150
   Startup grad/error   SOSCFStart      ....  0.003300
 Level Shifting         CNVShift        .... on
   Level shift para.    LevelShift      ....    0.2500
   Turn off err/grad.   ShiftErr        ....    0.0010
 Zerner damping         CNVZerner       .... off
 Static damping         CNVDamp         .... on
   Fraction old density DampFac         ....    0.7000
   Max. Damping (<1)    DampMax         ....    0.9800
   Min. Damping (>=0)   DampMin         ....    0.0000
   Turn off err/grad.   DampErr         ....    0.1000
 Fernandez-Rico         CNVRico         .... off

SCF Procedure:
 Maximum # iterations   MaxIter         ....   125
 SCF integral mode      SCFMode         .... Direct
   Integral package                     .... LIBINT
 Reset frequency        DirectResetFreq ....    20
 Integral Threshold     Thresh          ....  2.500e-11 Eh
 Primitive CutOff       TCut            ....  2.500e-12 Eh

Convergence Tolerance:
 Convergence Check Mode ConvCheckMode   .... Total+1el-Energy
 Convergence forced     ConvForced      .... 1
 Energy Change          TolE            ....  1.000e-08 Eh
 1-El. energy change                    ....  1.000e-05 Eh
 Orbital Gradient       TolG            ....  1.000e-05
 Orbital Rotation angle TolX            ....  1.000e-05
 DIIS Error             TolErr          ....  5.000e-07


Diagonalization of the overlap matrix:
Smallest eigenvalue                        ... 1.780e-06
Time for diagonalization                   ...    8.224 sec
Threshold for overlap eigenvalues          ... 1.000e-08
Number of eigenvalues below threshold      ... 0
Time for construction of square roots      ...    2.505 sec
Total time needed                          ...   10.759 sec

-------------------
DFT GRID GENERATION
-------------------

General Integration Accuracy     IntAcc      ...  4.670
Radial Grid Type                 RadialGrid  ... Gauss-Chebyshev
Angular Grid (max. acc.)         AngularGrid ... Lebedev-302
Angular grid pruning method      GridPruning ... 3 (G Style)
Weight generation scheme         WeightScheme... Becke
Basis function cutoff            BFCut       ...    1.0000e-11
Integration weight cutoff        WCut        ...    1.0000e-14
Grids for H and He will be reduced by one unit

# of grid points (after initial pruning)     ... 827040 (   2.9 sec)
# of grid points (after weights+screening)   ... 692978 (  70.3 sec)
nearest neighbour list constructed           ...    0.0 sec
Grid point re-assignment to atoms done       ...    0.1 sec
Grid point division into batches done        ...    2.3 sec
Reduced shell lists constructed in   27.4 sec

Total number of grid points                  ...   692978
Total number of batches                      ...    10914
Average number of points per batch           ...       63
Average number of grid points per atom       ...     4358
Average number of shells per batch           ...   188.84 (13.98%)
Average number of basis functions per batch  ...   457.36 (13.06%)
Average number of large shells per batch     ...   107.17 (56.75%)
Average number of large basis fcns per batch ...   266.84 (58.34%)
Maximum spatial batch extension              ...  22.37, 28.58, 21.29 au
Average spatial batch extension              ...   2.05,  2.06,  2.09 au

Time for grid setup =  100.619 sec

------------------------------
INITIAL GUESS: MODEL POTENTIAL
------------------------------
Loading Hartree-Fock densities                     ... done
Calculating cut-offs                               ... done
Setting up the integral package                    ... done
Initializing the effective Hamiltonian             ... done
Starting the Coulomb interaction                   ... done (  66.4 sec)
Reading the grid                                   ... done
Mapping shells                                     ... done
Starting the XC term evaluation                    ... done (  36.5 sec)
  promolecular density results
     # of electrons  =    725.973479038
     EX              =   -651.090898847
     EC              =    -25.380691349
     EX+EC           =   -676.471590196
Transforming the Hamiltonian                       ... done (   2.4 sec)
Diagonalizing the Hamiltonian                      ... done (   8.3 sec)
Back transforming the eigenvectors                 ... done (   1.1 sec)
Now organizing SCF variables                       ... done
                      ------------------
                      INITIAL GUESS DONE ( 217.0 sec)
                      ------------------
--------------------
COSX GRID GENERATION
--------------------

General Integration Accuracy     IntAcc      ...  3.340
Radial Grid Type                 RadialGrid  ... Gauss-Chebyshev
Angular Grid (max. acc.)         AngularGrid ... Lebedev-50
Angular grid pruning method      GridPruning ... 3 (G Style)
Weight generation scheme         WeightScheme... Becke
Basis function cutoff            BFCut       ...    1.0000e-11
Integration weight cutoff        WCut        ...    1.0000e-14
Grids for H and He will be reduced by one unit

# of grid points (after initial pruning)     ...  77588 (   0.1 sec)
# of grid points (after weights+screening)   ...  68223 (   6.5 sec)
nearest neighbour list constructed           ...    0.0 sec
Grid point re-assignment to atoms done       ...    0.0 sec
Grid point division into batches done        ...    0.0 sec
Reduced shell lists constructed in    3.8 sec

Total number of grid points                  ...    68223
Total number of batches                      ...     1154
Average number of points per batch           ...       59
Average number of grid points per atom       ...      429
Average number of shells per batch           ...   231.91 (17.17%)
Average number of basis functions per batch  ...   567.34 (16.20%)
Average number of large shells per batch     ...   131.79 (56.83%)
Average number of large basis fcns per batch ...   333.45 (58.77%)
Maximum spatial batch extension              ...  20.68, 27.79, 27.34 au
Average spatial batch extension              ...   4.20,  4.31,  4.40 au

Overlap Fitting                  UseSFitting ... on
Constructing numerical overlap ... done (      3.3 sec)
Inverting numerical overlap    ... done (      0.8 sec)
Obtaining analytic overlap     ... done (      0.0 sec)
Final contraction and storage  ... done (      1.3 sec)


General Integration Accuracy     IntAcc      ...  3.670
Radial Grid Type                 RadialGrid  ... Gauss-Chebyshev
Angular Grid (max. acc.)         AngularGrid ... Lebedev-50
Angular grid pruning method      GridPruning ... 3 (G Style)
Weight generation scheme         WeightScheme... Becke
Basis function cutoff            BFCut       ...    1.0000e-11
Integration weight cutoff        WCut        ...    1.0000e-14
Grids for H and He will be reduced by one unit

# of grid points (after initial pruning)     ...  97322 (   0.2 sec)
# of grid points (after weights+screening)   ...  85175 (   8.3 sec)
nearest neighbour list constructed           ...    0.0 sec
Grid point re-assignment to atoms done       ...    0.0 sec
Grid point division into batches done        ...    0.0 sec
Reduced shell lists constructed in    4.3 sec

Total number of grid points                  ...    85175
Total number of batches                      ...     1412
Average number of points per batch           ...       60
[...]

STATE 44:  E=   0.132515 au      3.606 eV    29083.8 cm**-1
   343a -> 364a  :     0.014835 (c= -0.12179801)
   345a -> 363a  :     0.077238 (c=  0.27791811)
   346a -> 363a  :     0.081086 (c= -0.28475519)
   347a -> 363a  :     0.021627 (c= -0.14706048)
   351a -> 363a  :     0.037106 (c= -0.19262794)
   351a -> 364a  :     0.048398 (c=  0.21999652)
   352a -> 363a  :     0.012096 (c=  0.10998324)
   352a -> 364a  :     0.359315 (c=  0.59942892)
   353a -> 364a  :     0.089818 (c=  0.29969658)
   355a -> 364a  :     0.020184 (c= -0.14206869)
   359a -> 365a  :     0.015122 (c= -0.12297107)
   361a -> 367a  :     0.033798 (c=  0.18384241)
   362a -> 369a  :     0.082553 (c= -0.28731961)

STATE 45:  E=   0.133204 au      3.625 eV    29234.9 cm**-1
   350a -> 363a  :     0.089909 (c= -0.29984749)
   350a -> 364a  :     0.896092 (c= -0.94662148)

STATE 46:  E=   0.134139 au      3.650 eV    29440.0 cm**-1
   343a -> 363a  :     0.047742 (c= -0.21849861)
   346a -> 364a  :     0.018926 (c= -0.13757079)
   347a -> 364a  :     0.010806 (c= -0.10395429)
   351a -> 364a  :     0.047365 (c=  0.21763440)
   353a -> 364a  :     0.012861 (c=  0.11340641)
   358a -> 365a  :     0.024403 (c=  0.15621416)
   358a -> 366a  :     0.737643 (c= -0.85886138)
   359a -> 365a  :     0.010599 (c= -0.10295158)

STATE 47:  E=   0.134522 au      3.661 eV    29524.2 cm**-1
   343a -> 363a  :     0.145388 (c= -0.38129724)
   344a -> 363a  :     0.010912 (c= -0.10445836)
   345a -> 364a  :     0.028091 (c=  0.16760502)
   346a -> 364a  :     0.057321 (c= -0.23941774)
   347a -> 363a  :     0.018812 (c= -0.13715690)
   347a -> 364a  :     0.032560 (c= -0.18044356)
   349a -> 364a  :     0.043995 (c= -0.20975084)
   351a -> 364a  :     0.204727 (c=  0.45246783)
   352a -> 364a  :     0.048781 (c= -0.22086450)
   353a -> 363a  :     0.013023 (c= -0.11411685)
   353a -> 364a  :     0.054617 (c=  0.23370204)
   358a -> 366a  :     0.178787 (c=  0.42283195)
   359a -> 366a  :     0.028326 (c= -0.16830333)
   361a -> 367a  :     0.011400 (c= -0.10676954)

STATE 48:  E=   0.135335 au      3.683 eV    29702.6 cm**-1
   342a -> 363a  :     0.041971 (c= -0.20486780)
   343a -> 363a  :     0.139071 (c= -0.37292278)
   344a -> 363a  :     0.016232 (c=  0.12740556)
   345a -> 363a  :     0.027936 (c=  0.16714187)
   346a -> 363a  :     0.016403 (c= -0.12807403)
   346a -> 364a  :     0.043138 (c= -0.20769706)
   347a -> 364a  :     0.103481 (c= -0.32168442)
   348a -> 364a  :     0.012441 (c=  0.11153969)
   349a -> 363a  :     0.013605 (c= -0.11664188)
   351a -> 364a  :     0.064191 (c= -0.25335915)
   353a -> 364a  :     0.010318 (c= -0.10157824)
   356a -> 365a  :     0.037855 (c=  0.19456340)
   357a -> 365a  :     0.106569 (c= -0.32644882)
   359a -> 365a  :     0.019929 (c=  0.14117092)
   361a -> 367a  :     0.014967 (c=  0.12233884)
   362a -> 369a  :     0.046401 (c=  0.21540977)
   362a -> 370a  :     0.153538 (c= -0.39183873)

STATE 49:  E=   0.136088 au      3.703 eV    29868.0 cm**-1
   343a -> 363a  :     0.205055 (c= -0.45282962)
   344a -> 363a  :     0.019862 (c=  0.14093101)
   345a -> 364a  :     0.029730 (c=  0.17242307)
   346a -> 363a  :     0.015701 (c=  0.12530357)
   346a -> 364a  :     0.025765 (c= -0.16051596)
   347a -> 363a  :     0.068159 (c=  0.26107236)
   351a -> 364a  :     0.099188 (c= -0.31494052)
   352a -> 364a  :     0.019509 (c=  0.13967573)
   353a -> 364a  :     0.010348 (c= -0.10172564)
   356a -> 365a  :     0.014432 (c= -0.12013123)
   357a -> 365a  :     0.037703 (c=  0.19417288)
   361a -> 367a  :     0.023818 (c=  0.15433189)
   362a -> 369a  :     0.088453 (c= -0.29741088)
   362a -> 370a  :     0.182759 (c=  0.42750358)
   362a -> 373a  :     0.018177 (c=  0.13482232)

STATE 50:  E=   0.137157 au      3.732 eV    30102.5 cm**-1
   349a -> 363a  :     0.033201 (c=  0.18221128)
   349a -> 364a  :     0.051862 (c= -0.22773179)
   353a -> 365a  :     0.010175 (c= -0.10086962)
   356a -> 365a  :     0.022477 (c= -0.14992288)
   357a -> 365a  :     0.617177 (c= -0.78560609)
   359a -> 366a  :     0.016491 (c=  0.12841855)
   362a -> 369a  :     0.029650 (c= -0.17219089)
   362a -> 370a  :     0.070325 (c=  0.26518827)


-----------------------------
TD-DFT/TDA-EXCITATION SPECTRA
-----------------------------

Center of mass = ( 22.1050,  3.2322,  4.4831)
Calculating the Dipole integrals                  ... done
Transforming integrals                            ... done
Calculating the Linear Momentum integrals         ... done
Transforming integrals                            ... done
Calculating angular momentum integrals            ... done
Transforming integrals                            ... done

-----------------------------------------------------------------------------
         ABSORPTION SPECTRUM VIA TRANSITION ELECTRIC DIPOLE MOMENTS
-----------------------------------------------------------------------------
State   Energy    Wavelength  fosc         T2        TX        TY        TZ  
        (cm-1)      (nm)                 (au**2)    (au)      (au)      (au) 
-----------------------------------------------------------------------------
   1   12917.5    774.1   2.099515051  53.50757  -4.50068  -5.12726  -2.63870
   2   14957.2    668.6   0.987103457  21.72643  -3.09695  -3.26813  -1.20610
   3   17559.8    569.5   0.266118997   4.98922   1.15864   1.78181   0.68696
   4   17744.1    563.6   0.182098640   3.37853   0.84991   1.18463   1.11930
   5   19025.8    525.6   0.084302108   1.45872  -0.55363  -0.70908  -0.80586
   6   20045.2    498.9   0.507845782   8.34059  -2.11235  -1.89573  -0.53365
   7   21666.3    461.5   0.007076084   0.10752   0.29601   0.14084   0.00763
   8   22141.5    451.6   0.168486987   2.50515  -1.12856  -0.94109  -0.58810
   9   22402.5    446.4   0.010527998   0.15471  -0.29280  -0.25509   0.06254
  10   22820.0    438.2   0.142890969   2.06142  -0.64446  -1.09581  -0.66730
  11   23240.9    430.3   0.001260784   0.01786  -0.10317   0.03504   0.07738
  12   23368.6    427.9   0.081998323   1.15518   0.56220   0.78273   0.47586
  13   23808.9    420.0   0.009130479   0.12625  -0.02849  -0.10292   0.33889
  14   23962.8    417.3   0.008629558   0.11856  -0.08361   0.03092   0.33258
  15   24136.7    414.3   0.001614302   0.02202  -0.12095  -0.01215  -0.08511
  16   24331.5    411.0   0.004240403   0.05737  -0.04388  -0.16971  -0.16324
  17   25481.1    392.4   0.008291210   0.10712   0.17043   0.26863   0.07691
  18   25612.7    390.4   0.028245994   0.36306  -0.03948   0.59271  -0.10095
  19   25783.7    387.8   0.007016773   0.08959   0.06731   0.13129   0.26043
  20   25956.6    385.3   0.011792654   0.14957  -0.05764  -0.11092  -0.36598
  21   26077.5    383.5   0.015385231   0.19423  -0.17448  -0.24156  -0.32471
  22   26162.3    382.2   0.007722729   0.09718   0.06762  -0.05701  -0.29892
  23   26484.5    377.6   0.023343019   0.29016  -0.02550  -0.11188  -0.52630
  24   27007.3    370.3   0.003184360   0.03882  -0.03599   0.18865  -0.04396
  25   27107.5    368.9   0.021894316   0.26590  -0.26496  -0.35636  -0.26212
  26   27181.3    367.9   0.010169748   0.12317  -0.35065  -0.00869   0.01192
  27   27288.7    366.5   0.002635311   0.03179  -0.10929  -0.00168   0.14087
  28   27556.4    362.9   0.002516938   0.03007  -0.12720   0.10861   0.04574
  29   27642.9    361.8   0.006830536   0.08135   0.05567   0.06051   0.27311
  30   27692.3    361.1   0.003012796   0.03582   0.10051  -0.05068   0.15214
  31   27723.5    360.7   0.012877548   0.15292  -0.16062   0.35565  -0.02509
  32   27858.0    359.0   0.001846160   0.02182   0.12492  -0.03944   0.06824
  33   27922.4    358.1   0.002542122   0.02997  -0.09942  -0.07655   0.11928
  34   27954.6    357.7   0.000437247   0.00515  -0.00085  -0.06796   0.02303
  35   28312.2    353.2   0.006000990   0.06978  -0.10730  -0.19115  -0.14740
  36   28333.7    352.9   0.000386460   0.00449  -0.01338  -0.05651  -0.03344
  37   28416.9    351.9   0.006307778   0.07308  -0.18639  -0.11723  -0.15681
  38   28465.3    351.3   0.002845400   0.03291   0.09736  -0.09292  -0.12164
  39   28538.8    350.4   0.052754439   0.60855  -0.31991  -0.64758  -0.29470
  40   28660.9    348.9   0.010918358   0.12541  -0.29575  -0.19479  -0.00137
  41   28704.0    348.4   0.106628489   1.22295   0.39483   0.83385   0.60971
  42   28810.0    347.1   0.009669594   0.11049   0.04240   0.28303  -0.16908
  43   28965.9    345.2   0.003554086   0.04039   0.16088   0.12042   0.00311
  44   29083.8    343.8   0.010346612   0.11712   0.17515   0.29386   0.00943
  45   29234.9    342.1   0.000048454   0.00055  -0.02262  -0.00209  -0.00546
  46   29440.0    339.7   0.001123294   0.01256  -0.09355   0.06006   0.01422
  47   29524.2    338.7   0.001750148   0.01952  -0.10504   0.09210   0.00009
  48   29702.6    336.7   0.006291140   0.06973   0.14745  -0.00299  -0.21904
  49   29868.0    334.8   0.009452144   0.10418  -0.19050  -0.14096   0.21914
  50   30102.5    332.2   0.008765155   0.09586   0.00416   0.22228   0.21548

-----------------------------------------------------------------------------
         ABSORPTION SPECTRUM VIA TRANSITION VELOCITY DIPOLE MOMENTS
-----------------------------------------------------------------------------
State   Energy    Wavelength   fosc        P2         PX        PY        PZ  
        (cm-1)      (nm)                 (au**2)     (au)      (au)      (au) 
-----------------------------------------------------------------------------
   1   12917.5    774.1   0.454748606   0.04015   0.12753   0.14357   0.05720
   2   14957.2    668.6   0.259172355   0.02649   0.09735   0.10050   0.08317
   3   17559.8    569.5   0.119354011   0.01432  -0.11011  -0.03766  -0.02797
   4   17744.1    563.6   0.077305250   0.00937  -0.06470  -0.07173   0.00666
   5   19025.8    525.6   0.060914060   0.00792   0.01983   0.08393   0.02200
   6   20045.2    498.9   0.187609981   0.02570   0.09710   0.10843   0.06721
   7   21666.3    461.5   0.004577640   0.00068  -0.00288  -0.02154  -0.01434
   8   22141.5    451.6   0.074228811   0.01123   0.05167   0.09175   0.01204
   9   22402.5    446.4   0.006662208   0.00102   0.02499   0.01498   0.01308
  10   22820.0    438.2   0.079360233   0.01238   0.07543   0.07498   0.03264
  11   23240.9    430.3   0.000287037   0.00005   0.00281  -0.00610   0.00069
  12   23368.6    427.9   0.037410963   0.00597  -0.06076  -0.04532  -0.01514
  13   23808.9    420.0   0.016778385   0.00273   0.04108  -0.02599  -0.01916
  14   23962.8    417.3   0.006099471   0.00100  -0.00429  -0.03099  -0.00449
  15   24136.7    414.3   0.001650260   0.00027  -0.00089   0.01647  -0.00051
  16   24331.5    411.0   0.003864279   0.00064   0.01237   0.02163   0.00466
  17   25481.1    392.4   0.002611996   0.00045  -0.01916   0.00135   0.00927
  18   25612.7    390.4   0.019153774   0.00335  -0.04264   0.03470  -0.01817
  19   25783.7    387.8   0.000180010   0.00003   0.00319   0.00464  -0.00003
  20   25956.6    385.3   0.007411130   0.00131   0.00231   0.03492  -0.00948
  21   26077.5    383.5   0.015222425   0.00271  -0.00783   0.01933   0.04773
  22   26162.3    382.2   0.000447609   0.00008   0.00288  -0.00349  -0.00772
  23   26484.5    377.6   0.007566335   0.00137   0.00656   0.00077  -0.03641
  24   27007.3    370.3   0.011083925   0.00205  -0.04206   0.00475   0.01596
  25   27107.5    368.9   0.015441789   0.00286  -0.00236   0.03292   0.04209
  26   27181.3    367.9   0.015639210   0.00291  -0.03237   0.02775   0.03297
  27   27288.7    366.5   0.012624296   0.00235  -0.04659  -0.01099   0.00797
  28   27556.4    362.9   0.005537008   0.00104  -0.00392   0.02008   0.02499
  29   27642.9    361.8   0.001449067   0.00027  -0.01174  -0.00981   0.00630
  30   27692.3    361.1   0.004238470   0.00080  -0.00226  -0.02799  -0.00371
  31   27723.5    360.7   0.008177213   0.00155  -0.00493   0.03784   0.00965
  32   27858.0    359.0   0.002209592   0.00042   0.00739  -0.01572  -0.01090
  33   27922.4    358.1   0.000710916   0.00014  -0.00244   0.00566   0.00988
  34   27954.6    357.7   0.000286063   0.00005  -0.00144  -0.00713   0.00130
  35   28312.2    353.2   0.007125048   0.00138  -0.00706   0.02356   0.02781
  36   28333.7    352.9   0.003889081   0.00075  -0.00869   0.01755   0.01922
  37   28416.9    351.9   0.001213063   0.00024  -0.01015  -0.00629   0.00964
  38   28465.3    351.3   0.000982603   0.00019   0.01027   0.00146  -0.00914
  39   28538.8    350.4   0.008730740   0.00170   0.01255   0.02835   0.02724
  40   28660.9    348.9   0.012954934   0.00254   0.00406   0.03822   0.03256
  41   28704.0    348.4   0.052354939   0.01027  -0.06131  -0.07670  -0.02508
  42   28810.0    347.1   0.004157727   0.00082  -0.00026   0.00138  -0.02858
  43   28965.9    345.2   0.007299003   0.00144   0.00130  -0.02003  -0.03228
  44   29083.8    343.8   0.015650242   0.00311  -0.00232  -0.02233  -0.05106
  45   29234.9    342.1   0.000152366   0.00003   0.00070   0.00285   0.00467
  46   29440.0    339.7   0.000540890   0.00011   0.00603   0.00780  -0.00342
  47   29524.2    338.7   0.000260321   0.00005   0.00088   0.00691   0.00201
  48   29702.6    336.7   0.004753935   0.00097   0.00402  -0.01026  -0.02905
  49   29868.0    334.8   0.000820136   0.00017  -0.00278   0.00445   0.01183
  50   30102.5    332.2   0.002629404   0.00054  -0.01616  -0.01639   0.00333

-------------------------------------------------------------------
                             CD SPECTRUM
-------------------------------------------------------------------
State  Energy     Wavelength     R         MX        MY        MZ   
       (cm-1)       (nm)     (1e40*cgs)   (au)      (au)      (au)  
-------------------------------------------------------------------
   1   12917.5    774.1    232.11375   0.09574  -0.30064   0.23429
   2   14957.2    668.6      5.30362   0.19187  -0.29633   0.30095
   3   17559.8    569.5    -31.79588   0.14476   0.06138  -0.50154
   4   17744.1    563.6     51.56708   0.29353  -0.31959   0.21308
   5   19025.8    525.6     70.31512  -0.04492  -0.20249   0.02395
   6   20045.2    498.9    -121.06942   0.17910  -0.02170  -0.15063
   7   21666.3    461.5      0.86676  -0.00346   0.02103  -0.01299
   8   22141.5    451.6     74.08817  -0.02230   0.02881  -0.27053
   9   22402.5    446.4      4.12753  -0.04458   0.03291   0.06553
  10   22820.0    438.2     11.04854  -0.14893  -0.17595   0.39766
  11   23240.9    430.3     -1.05709   0.03235   0.01176   0.00883
  12   23368.6    427.9    -24.72702   0.11543  -0.15176   0.00303
  13   23808.9    420.0      3.14743  -0.03147   0.11397   0.05166
  14   23962.8    417.3     10.12980   0.03662   0.04647   0.06949
  15   24136.7    414.3      0.24684   0.02610  -0.03581  -0.03813
  16   24331.5    411.0      6.46532  -0.04649  -0.01036  -0.06074
  17   25481.1    392.4     -3.70325  -0.00977   0.02057  -0.15235
  18   25612.7    390.4     29.61714   0.12162   0.02345  -0.53223
  19   25783.7    387.8    -14.53857  -0.03705   0.04327  -0.13065
  20   25956.6    385.3     17.53389  -0.35900   0.16067  -0.09378
  21   26077.5    383.5    -10.01059   0.18099  -0.19294   0.11167
  22   26162.3    382.2      3.51195  -0.00572   0.03223  -0.03236
  23   26484.5    377.6     66.98818  -0.17894   0.27081  -0.31887
  24   27007.3    370.3     13.74892  -0.08218   0.11021  -0.12314
  25   27107.5    368.9     -0.35590   0.20576  -0.19932   0.06588
  26   27181.3    367.9    -10.98104   0.05980   0.00006  -0.19473
  27   27288.7    366.5     -9.23513  -0.16053   0.27016  -0.26037
  28   27556.4    362.9    -16.24820   0.10439  -0.19967   0.01097
  29   27642.9    361.8     -2.79819   0.03769   0.02939  -0.03593
  30   27692.3    361.1     -0.71706   0.05937   0.09519  -0.01751
  31   27723.5    360.7    -15.85834  -0.04447  -0.12096  -0.08934
  32   27858.0    359.0     -4.40282  -0.13533  -0.05354   0.07994
  33   27922.4    358.1     -1.36446   0.00011   0.02124  -0.01054
  34   27954.6    357.7     -1.05700  -0.13473   0.04199   0.02157
  35   28312.2    353.2      2.42524   0.07193  -0.04726  -0.02597
  36   28333.7    352.9      2.14419   0.08762  -0.10635   0.00865
  37   28416.9    351.9      1.56267  -0.04892   0.13598  -0.06465
  38   28465.3    351.3      4.65729   0.07199  -0.06905   0.02915
  39   28538.8    350.4    -14.62947  -0.11300   0.11167  -0.01743
  40   28660.9    348.9     14.44487  -0.10721   0.00543   0.00824
  41   28704.0    348.4     19.03529   0.12934   0.02490  -0.05159
  42   28810.0    347.1     21.90934   0.00168   0.04327  -0.20200
  43   28965.9    345.2      6.02498   0.09303  -0.01910   0.03653
  44   29083.8    343.8      7.79861   0.03740   0.03804  -0.12570
  45   29234.9    342.1      0.15047  -0.00705   0.01280  -0.03414
  46   29440.0    339.7     -6.36219   0.08204  -0.11013   0.05589
  47   29524.2    338.7    -13.67491   0.12954  -0.16729   0.08272
  48   29702.6    336.7      6.02193   0.14232  -0.16407   0.03972
  49   29868.0    334.8     12.89393   0.16710  -0.16219   0.16574
  50   30102.5    332.2     -7.55865   0.16253  -0.06966  -0.00568

Total run time:   252359.587 sec

           *** ORCA-CIS/TD-DFT FINISHED WITHOUT ERROR ***

-----------------------
CIS/TD-DFT TOTAL ENERGY
-----------------------

    E(SCF)  =  -5747.716193123 Eh
    DE(CIS) =      0.058856580 Eh (Root  1)
    ----------------------------- ---------
    E(tot)  =  -5747.657336543 Eh


-------------------------   --------------------
FINAL SINGLE POINT ENERGY     -5747.657336543079
-------------------------   --------------------


                            ***************************************
                            *     ORCA property calculations      *
                            ***************************************

                                    ---------------------
                                    Active property flags
                                    ---------------------
   (+) Dipole Moment


------------------------------------------------------------------------------
                       ORCA ELECTRIC PROPERTIES CALCULATION
------------------------------------------------------------------------------

Dipole Moment Calculation                       ... on
Quadrupole Moment Calculation                   ... off
Polarizability Calculation                      ... off
GBWName                                         ... p-IO1.gbw
Electron density file                           ... p-IO1.scfp
The origin for moment calculation is the CENTER OF MASS  = (22.104967,  3.232230  4.483146)

-------------
DIPOLE MOMENT
-------------
                                X             Y             Z
Electronic contribution:    -52.21062      14.36880      28.45710
Nuclear contribution   :     54.32624     -12.89663     -31.26850
                        -----------------------------------------
Total Dipole Moment    :      2.11562       1.47216      -2.81140
                        -----------------------------------------
Magnitude (a.u.)       :      3.81406
Magnitude (Debye)      :      9.69458



--------------------
Rotational spectrum 
--------------------
 
Rotational constants in cm-1:     0.001127     0.000146     0.000139 
Rotational constants in MHz :    33.782506     4.383156     4.172298 

 Dipole components along the rotational axes: 
x,y,z [a.u.] :     1.369082     3.295156    -1.347088 
x,y,z [Debye]:     3.479931     8.375621    -3.424027 

 

Timings for individual modules:

Sum of individual times         ...   284069.111 sec (=4734.485 min)
GTO integral calculation        ...       14.626 sec (=   0.244 min)   0.0 %
SCF iterations                  ...    31694.656 sec (= 528.244 min)  11.2 %
CIS module                      ...   252359.829 sec (=4205.997 min)  88.8 %
                             ****ORCA TERMINATED NORMALLY****
TOTAL RUN TIME: 3 days 6 hours 54 minutes 31 seconds 677 msec
