
                                 *****************
                                 * O   R   C   A *
                                 *****************

           --- An Ab Initio, DFT and Semiempirical electronic structure package ---

                  #######################################################
                  #                        -***-                        #
                  #          Department of theory and spectroscopy      #
                  #               Directorship: Frank Neese             #
                  #        Max Planck Institute fuer Kohlenforschung    #
                  #                Kaiser Wilhelm Platz 1               #
                  #                 D-45470 Muelheim/Ruhr               #
                  #                      Germany                        #
                  #                                                     #
                  #                  All rights reserved                #
                  #                        -***-                        #
                  #######################################################


                         Program Version 4.2.0 -  RELEASE  -


 With contributions from (in alphabetic order):
   Daniel Aravena         : Magnetic Suceptibility
   Michael Atanasov       : Ab Initio Ligand Field Theory (pilot matlab implementation)
   Alexander A. Auer      : GIAO ZORA, VPT2
   Ute Becker             : Parallelization
   Giovanni Bistoni       : ED, misc. LED, open-shell LED, HFLED
   Martin Brehm           : Molecular dynamics
   Dmytro Bykov           : SCF Hessian
   Vijay G. Chilkuri      : MRCI spin determinant printing, contributions to CSF-ICE
   Dipayan Datta          : RHF DLPNO-CCSD density
   Achintya Kumar Dutta   : EOM-CC, STEOM-CC
   Dmitry Ganyushin       : Spin-Orbit,Spin-Spin,Magnetic field MRCI
   Miquel Garcia          : C-PCM Hessian, Gaussian charge scheme
   Yang Guo               : DLPNO-NEVPT2, CIM, IAO-localization
   Andreas Hansen         : Spin unrestricted coupled pair/coupled cluster methods
   Benjamin Helmich-Paris : CASSCF linear response (MC-RPA)
   Lee Huntington         : MR-EOM, pCC
   Robert Izsak           : Overlap fitted RIJCOSX, COSX-SCS-MP3, EOM
   Christian Kollmar      : KDIIS, OOCD, Brueckner-CCSD(T), CCSD density
   Simone Kossmann        : Meta GGA functionals, TD-DFT gradient, OOMP2, MP2 Hessian
   Martin Krupicka        : AUTO-CI
   Lucas Lang             : DCDCAS
   Dagmar Lenk            : GEPOL surface, SMD
   Dimitrios Liakos       : Extrapolation schemes; Compound Job, initial MDCI parallelization
   Dimitrios Manganas     : Further ROCIS development; embedding schemes
   Dimitrios Pantazis     : SARC Basis sets
   Taras Petrenko         : DFT Hessian,TD-DFT gradient, ASA, ECA, R-Raman, ABS, FL, XAS/XES, NRVS
   Peter Pinski           : DLPNO-MP2, DLPNO-MP2 Gradient
   Christoph Reimann      : Effective Core Potentials
   Marius Retegan         : Local ZFS, SOC
   Christoph Riplinger    : Optimizer, TS searches, QM/MM, DLPNO-CCSD(T), (RO)-DLPNO pert. Triples
   Tobias Risthaus        : Range-separated hybrids, TD-DFT gradient, RPA, STAB
   Michael Roemelt        : Original ROCIS implementation
   Masaaki Saitow         : Open-shell DLPNO-CCSD energy and density
   Barbara Sandhoefer     : DKH picture change effects
   Avijit Sen             : IP-ROCIS
   Kantharuban Sivalingam : CASSCF convergence, NEVPT2, FIC-MRCI
   Bernardo de Souza      : ESD, SOC TD-DFT
   Georgi Stoychev        : AutoAux, RI-MP2 NMR
   Willem Van den Heuvel  : Paramagnetic NMR
   Boris Wezisla          : Elementary symmetry handling
   Frank Wennmohs         : Technical directorship


 We gratefully acknowledge several colleagues who have allowed us to
 interface, adapt or use parts of their codes:
   Stefan Grimme, W. Hujo, H. Kruse,             : VdW corrections, initial TS optimization,
                  C. Bannwarth                     DFT functionals, gCP, sTDA/sTD-DF
   Ed Valeev, F. Pavosevic, A. Kumar             : LibInt (2-el integral package), F12 methods
   Garnet Chan, S. Sharma, J. Yang, R. Olivares  : DMRG
   Ulf Ekstrom                                   : XCFun DFT Library
   Mihaly Kallay                                 : mrcc  (arbitrary order and MRCC methods)
   Andreas Klamt, Michael Diedenhofen            : otool_cosmo (COSMO solvation model)
   Jiri Pittner, Ondrej Demel                    : Mk-CCSD
   Frank Weinhold                                : gennbo (NPA and NBO analysis)
   Christopher J. Cramer and Donald G. Truhlar   : smd solvation model
   Lars Goerigk                                  : TD-DFT with DH, B97 family of functionals
   V. Asgeirsson, H. Jonsson                     : NEB implementation
   FAccTs GmbH                                   : IRC, NEB, NEB-TS, Multilevel, MM, QM/MM, CI optimization
   S Lehtola, MJT Oliveira, MAL Marques          : LibXC Library


 Your calculation uses the libint2 library for the computation of 2-el integrals
 For citations please refer to: http://libint.valeyev.net

 Your ORCA version has been built with support for libXC version: 4.2.3
 For citations please refer to: https://tddft.org/programs/libxc/

 This ORCA versions uses:
   CBLAS   interface :  Fast vector & matrix operations
   LAPACKE interface :  Fast linear algebra routines
   SCALAPACK package :  Parallel linear algebra routines


----- Orbital basis set information -----
Your calculation utilizes the basis: def2-TZVP
   F. Weigend and R. Ahlrichs, Phys. Chem. Chem. Phys. 7, 3297 (2005).

----- AuxJ basis set information -----
Your calculation utilizes the auxiliary basis: def2/J
   F. Weigend, Phys. Chem. Chem. Phys. 8, 1057 (2006).

================================================================================
                                        WARNINGS
                       Please study these warnings very carefully!
================================================================================

INFO   : Checking CIS options ...

WARNING: CIS/ROCIS methods need fully converged wavefunctions
  ===> : Setting SCFConvForced true
         You can overwrite this default with %scf ConvForced false 


INFO   : the flag for use of LIBINT has been found!

================================================================================
                                       INPUT FILE
================================================================================
NAME = p-IO2.inp
|  1> # ORCA input file
|  2> # p-IO2.out: Geometry 282
|  3> ! B3LYP def2-TZVP def2/J RIJCOSX Grid4 TightSCF
|  4> 
|  5> %maxcore 6000
|  6> %tddft
|  7>   maxdim 5
|  8>   nroots 50
|  9>   end
| 10> %pal
| 11>   nprocs 6
| 12>   end
| 13> 
| 14> 
| 15> * xyz 0 1
| 16>    C        0.16788        -5.59966         0.31677
| 17>    O        0.15996        -5.02111        -0.75897
| 18>    C       -0.96762        -6.40277         0.82509
| 19>    C       -2.16832        -6.65253         0.17180
| 20>    C       -3.08343        -7.47511         0.81537
| 21>    C       -2.77904        -8.03656         2.06798
| 22>    C       -1.58449        -7.76294         2.73024
| 23>    C       -0.66189        -6.91959         2.09603
| 24>    C        0.67071        -6.40426         2.50202
| 25>    C        1.20794        -6.55507         3.76963
| 26>    C        2.44088        -5.96471         4.19051
| 27>    N        3.43931        -5.49828         4.56094
| 28>    C        0.53726        -7.27104         4.81051
| 29>    N        0.00607        -7.84430         5.67094
| 30>    C        1.23009        -5.67028         1.35888
| 31>    F       -4.25971        -7.75424         0.26170
| 32>    F       -3.67605        -8.84997         2.61813
| 33>    C       23.26312        -3.71861        -4.39634
| 34>    O       23.04569        -3.71528        -3.20143
| 35>    C       24.57700        -3.87905        -5.06667
| 36>    C       25.82250        -4.06475        -4.47501
| 37>    C       26.91966        -4.20704        -5.31667
| 38>    C       26.75692        -4.15378        -6.71225
| 39>    C       25.50869        -3.97513        -7.30241
| 40>    C       24.39505        -3.83973        -6.46368
| 41>    C       22.93795        -3.74077        -6.75999
| 42>    C       22.38337        -4.01095        -8.00440
| 43>    C       21.00605        -4.31850        -8.20018
| 44>    N       19.89710        -4.60493        -8.40141
| 45>    C       23.17402        -4.13606        -9.18954
| 46>    N       23.80125        -4.22000       -10.16497
| 47>    C       22.25497        -3.53021        -5.49627
| 48>    F       28.14118        -4.40088        -4.82578
| 49>    F       27.83611        -4.28995        -7.47748
| 50>    C        2.52827        -5.18876         1.28269
| 51>    C        3.22513        -4.50706         0.25517
| 52>    C        2.82994        -4.05711        -1.00862
| 53>    C        3.85419        -3.41659        -1.72183
| 54>    C        5.07736        -3.37184        -1.02025
| 55>    S        4.92204        -4.12842         0.53385
| 56>    C        6.34570        -2.85636        -1.45334
| 57>    S        6.87061        -3.00778        -3.13822
| 58>    C        8.45198        -2.45427        -2.71469
| 59>    C        8.54498        -2.11550        -1.37005
| 60>    C        7.36578        -2.35257        -0.64717
| 61>    C        9.72487        -2.25112        -3.38304
| 62>    C       10.63811        -1.79313        -2.38858
| 63>    C        9.89221        -1.47314        -1.08007
| 64>    C       10.14081        -2.44720        -4.70947
| 65>    C       11.48723        -2.26880        -5.00076
| 66>    C       12.41062        -1.90877        -3.98252
| 67>    C       11.98357        -1.62975        -2.67493
| 68>    C       12.19062        -2.34075        -6.37385
| 69>    C       13.64799        -2.12625        -5.95988
| 70>    C       13.72033        -1.89308        -4.59294
| 71>    C       14.90963        -2.13554        -6.59199
| 72>    C       15.95112        -1.94937        -5.68321
| 73>    S       15.34064        -1.69559        -4.04154
| 74>    C       17.36905        -2.06858        -5.88865
| 75>    S       18.37843        -2.73652        -4.64956
| 76>    C       19.80988        -2.65980        -5.66382
| 77>    C       19.49307        -2.09464        -6.90550
| 78>    C       18.12694        -1.77206        -7.04054
| 79>    C       20.99247        -3.16329        -5.07369
| 80>    O        3.75375        -2.85921        -2.94303
| 81>    C        2.50264        -2.98016        -3.63216
| 82>    C        1.42114        -2.02452        -3.11310
| 83>    C        1.76244        -0.56525        -3.42043
| 84>    C        0.05112        -2.42565        -3.66861
| 85>    C        9.74573         0.07028        -1.08648
| 86>    C       10.52060        -2.02248         0.19737
| 87>    C       12.04014        -3.68140        -7.09454
| 88>    C       11.62059        -1.13898        -7.15233
| 89>    O       17.52536        -1.23156        -8.11445
| 90>    C       18.33231        -0.88310        -9.23899
| 91>    C       17.46106        -0.19271       -10.28130
| 92>    C       16.80374         1.07062        -9.71547
| 93>    C       18.29810         0.11003       -11.52835
| 94>    C        8.63599         0.69109        -1.67467
| 95>    C        8.57882         2.07874        -1.81382
| 96>    C        9.62182         2.89869        -1.36902
| 97>    C       10.72559         2.27468        -0.76262
| 98>    C       10.78990         0.88759        -0.62673
| 99>    C       11.39753        -3.11282         0.18178
|100>    C       11.91181        -3.63957         1.37032
|101>    C       11.55948        -3.10456         2.61583
|102>    C       10.66263        -2.02291         2.62754
|103>    C       10.15402        -1.49054         1.44410
|104>    C       12.49567        -3.81840        -8.41636
|105>    C       12.42539        -5.04306        -9.07661
|106>    C       11.88980        -6.18088        -8.44878
|107>    C       11.44733        -6.04162        -7.12926
|108>    C       11.52509        -4.81637        -6.46038
|109>    C       10.51161        -1.27500        -7.99658
|110>    C        9.86150        -0.14847        -8.50794
|111>    C       10.28595         1.14768        -8.18139
|112>    C       11.42458         1.27395        -7.37201
|113>    C       12.08259         0.15363        -6.86912
|114>    C       12.11547        -3.66800         3.89975
|115>    C        9.54888         4.39550        -1.52791
|116>    C       11.78747        -7.49533        -9.18022
|117>    C        9.51942         2.36431        -8.63214
|118>    H       -2.38295        -6.22141        -0.80682
|119>    H       -1.42111        -8.21914         3.70381
|120>    H       25.93672        -4.11004        -3.39027
|121>    H       25.45490        -3.95545        -8.38896
|122>    H        3.14834        -5.38039         2.15912
|123>    H        1.81052        -4.20587        -1.34655
|124>    H        7.23791        -2.16665         0.41972
|125>    H        9.43165        -2.74318        -5.48454
|126>    H       12.68810        -1.29912        -1.90948
|127>    H       15.09550        -2.32966        -7.64695
|128>    H       20.23888        -1.89947        -7.66979
|129>    H       20.92363        -3.27159        -3.98134
|130>    H        2.15860        -4.02698        -3.57361
|131>    H        2.73991        -2.75881        -4.68398
|132>    H        1.37983        -2.14073        -2.01766
|133>    H        1.69829        -0.36641        -4.50408
|134>    H        2.78027        -0.31648        -3.08270
|135>    H        1.06246         0.11695        -2.91520
|136>    H        0.03447        -2.38134        -4.77152
|137>    H       -0.72852        -1.74173        -3.30047
|138>    H       -0.22749        -3.44394        -3.35409
|139>    H       18.79798        -1.79556        -9.65090
|140>    H       19.14239        -0.20307        -8.91287
|141>    H       16.66607        -0.90803       -10.55817
|142>    H       17.57165         1.79694        -9.39884
|143>    H       16.17622         0.83867        -8.84372
|144>    H       16.17259         1.55966       -10.47429
|145>    H       19.11693         0.81131       -11.29588
|146>    H       17.67861         0.57715       -12.30911
|147>    H       18.74657        -0.80226       -11.95405
|148>    H        7.80855         0.09195        -2.05233
|149>    H        7.70387         2.53153        -2.28880
|150>    H       11.55641         2.88541        -0.39832
|151>    H       11.66683         0.43356        -0.16032
|152>    H       11.68924        -3.56147        -0.76855
|153>    H       12.60179        -4.48642         1.32641
|154>    H       10.35921        -1.58266         3.58188
|155>    H        9.47352        -0.63709         1.48538
|156>    H       12.90029        -2.94879        -8.93864
|157>    H       12.79562        -5.12113       -10.10254
|158>    H       11.03015        -6.90725        -6.60786
|159>    H       11.17468        -4.75309        -5.43055
|160>    H       10.13932        -2.27016        -8.24620
|161>    H        8.99023        -0.28299        -9.15508
|162>    H       11.79347         2.26989        -7.11087
|163>    H       12.95010         0.28809        -6.22117
|164>    H       12.86054        -4.45298         3.70632
|165>    H       11.31675        -4.10873         4.52032
|166>    H       12.59900        -2.88388         4.50570
|167>    H        8.78489         4.68086        -2.26582
|168>    H       10.51251         4.81506        -1.85766
|169>    H        9.28501         4.88912        -0.57662
|170>    H       12.76725        -7.81752        -9.56928
|171>    H       11.11093        -7.41807       -10.04724
|172>    H       11.40409        -8.29103        -8.52497
|173>    H        9.08252         2.22949        -9.63391
|174>    H       10.15896         3.25933        -8.64935
|175>    H        8.68404         2.57428        -7.94222
|176> *
|177> 
|178>                          ****END OF INPUT****
================================================================================

                       ****************************
                       * Single Point Calculation *
                       ****************************

---------------------------------
CARTESIAN COORDINATES (ANGSTROEM)
---------------------------------
  C      0.167880   -5.599660    0.316770
  O      0.159960   -5.021110   -0.758970
  C     -0.967620   -6.402770    0.825090
  C     -2.168320   -6.652530    0.171800
  C     -3.083430   -7.475110    0.815370
  C     -2.779040   -8.036560    2.067980
  C     -1.584490   -7.762940    2.730240
  C     -0.661890   -6.919590    2.096030
  C      0.670710   -6.404260    2.502020
  C      1.207940   -6.555070    3.769630
  C      2.440880   -5.964710    4.190510
  N      3.439310   -5.498280    4.560940
  C      0.537260   -7.271040    4.810510
  N      0.006070   -7.844300    5.670940
  C      1.230090   -5.670280    1.358880
  F     -4.259710   -7.754240    0.261700
  F     -3.676050   -8.849970    2.618130
  C     23.263120   -3.718610   -4.396340
  O     23.045690   -3.715280   -3.201430
  C     24.577000   -3.879050   -5.066670
  C     25.822500   -4.064750   -4.475010
  C     26.919660   -4.207040   -5.316670
  C     26.756920   -4.153780   -6.712250
  C     25.508690   -3.975130   -7.302410
  C     24.395050   -3.839730   -6.463680
  C     22.937950   -3.740770   -6.759990
  C     22.383370   -4.010950   -8.004400
  C     21.006050   -4.318500   -8.200180
  N     19.897100   -4.604930   -8.401410
  C     23.174020   -4.136060   -9.189540
  N     23.801250   -4.220000  -10.164970
  C     22.254970   -3.530210   -5.496270
  F     28.141180   -4.400880   -4.825780
  F     27.836110   -4.289950   -7.477480
  C      2.528270   -5.188760    1.282690
  C      3.225130   -4.507060    0.255170
  C      2.829940   -4.057110   -1.008620
  C      3.854190   -3.416590   -1.721830
  C      5.077360   -3.371840   -1.020250
  S      4.922040   -4.128420    0.533850
  C      6.345700   -2.856360   -1.453340
  S      6.870610   -3.007780   -3.138220
  C      8.451980   -2.454270   -2.714690
  C      8.544980   -2.115500   -1.370050
  C      7.365780   -2.352570   -0.647170
  C      9.724870   -2.251120   -3.383040
  C     10.638110   -1.793130   -2.388580
  C      9.892210   -1.473140   -1.080070
  C     10.140810   -2.447200   -4.709470
  C     11.487230   -2.268800   -5.000760
  C     12.410620   -1.908770   -3.982520
  C     11.983570   -1.629750   -2.674930
  C     12.190620   -2.340750   -6.373850
  C     13.647990   -2.126250   -5.959880
  C     13.720330   -1.893080   -4.592940
  C     14.909630   -2.135540   -6.591990
  C     15.951120   -1.949370   -5.683210
  S     15.340640   -1.695590   -4.041540
  C     17.369050   -2.068580   -5.888650
  S     18.378430   -2.736520   -4.649560
  C     19.809880   -2.659800   -5.663820
  C     19.493070   -2.094640   -6.905500
  C     18.126940   -1.772060   -7.040540
  C     20.992470   -3.163290   -5.073690
  O      3.753750   -2.859210   -2.943030
  C      2.502640   -2.980160   -3.632160
  C      1.421140   -2.024520   -3.113100
  C      1.762440   -0.565250   -3.420430
  C      0.051120   -2.425650   -3.668610
  C      9.745730    0.070280   -1.086480
  C     10.520600   -2.022480    0.197370
  C     12.040140   -3.681400   -7.094540
  C     11.620590   -1.138980   -7.152330
  O     17.525360   -1.231560   -8.114450
  C     18.332310   -0.883100   -9.238990
  C     17.461060   -0.192710  -10.281300
  C     16.803740    1.070620   -9.715470
  C     18.298100    0.110030  -11.528350
  C      8.635990    0.691090   -1.674670
  C      8.578820    2.078740   -1.813820
  C      9.621820    2.898690   -1.369020
  C     10.725590    2.274680   -0.762620
  C     10.789900    0.887590   -0.626730
  C     11.397530   -3.112820    0.181780
  C     11.911810   -3.639570    1.370320
  C     11.559480   -3.104560    2.615830
  C     10.662630   -2.022910    2.627540
  C     10.154020   -1.490540    1.444100
  C     12.495670   -3.818400   -8.416360
  C     12.425390   -5.043060   -9.076610
  C     11.889800   -6.180880   -8.448780
  C     11.447330   -6.041620   -7.129260
  C     11.525090   -4.816370   -6.460380
  C     10.511610   -1.275000   -7.996580
  C      9.861500   -0.148470   -8.507940
  C     10.285950    1.147680   -8.181390
  C     11.424580    1.273950   -7.372010
  C     12.082590    0.153630   -6.869120
  C     12.115470   -3.668000    3.899750
  C      9.548880    4.395500   -1.527910
  C     11.787470   -7.495330   -9.180220
  C      9.519420    2.364310   -8.632140
  H     -2.382950   -6.221410   -0.806820
  H     -1.421110   -8.219140    3.703810
  H     25.936720   -4.110040   -3.390270
  H     25.454900   -3.955450   -8.388960
  H      3.148340   -5.380390    2.159120
  H      1.810520   -4.205870   -1.346550
  H      7.237910   -2.166650    0.419720
  H      9.431650   -2.743180   -5.484540
  H     12.688100   -1.299120   -1.909480
  H     15.095500   -2.329660   -7.646950
  H     20.238880   -1.899470   -7.669790
  H     20.923630   -3.271590   -3.981340
  H      2.158600   -4.026980   -3.573610
  H      2.739910   -2.758810   -4.683980
  H      1.379830   -2.140730   -2.017660
  H      1.698290   -0.366410   -4.504080
  H      2.780270   -0.316480   -3.082700
  H      1.062460    0.116950   -2.915200
  H      0.034470   -2.381340   -4.771520
  H     -0.728520   -1.741730   -3.300470
  H     -0.227490   -3.443940   -3.354090
  H     18.797980   -1.795560   -9.650900
  H     19.142390   -0.203070   -8.912870
  H     16.666070   -0.908030  -10.558170
  H     17.571650    1.796940   -9.398840
  H     16.176220    0.838670   -8.843720
  H     16.172590    1.559660  -10.474290
  H     19.116930    0.811310  -11.295880
  H     17.678610    0.577150  -12.309110
  H     18.746570   -0.802260  -11.954050
  H      7.808550    0.091950   -2.052330
  H      7.703870    2.531530   -2.288800
  H     11.556410    2.885410   -0.398320
  H     11.666830    0.433560   -0.160320
  H     11.689240   -3.561470   -0.768550
  H     12.601790   -4.486420    1.326410
  H     10.359210   -1.582660    3.581880
  H      9.473520   -0.637090    1.485380
  H     12.900290   -2.948790   -8.938640
  H     12.795620   -5.121130  -10.102540
  H     11.030150   -6.907250   -6.607860
  H     11.174680   -4.753090   -5.430550
  H     10.139320   -2.270160   -8.246200
  H      8.990230   -0.282990   -9.155080
  H     11.793470    2.269890   -7.110870
  H     12.950100    0.288090   -6.221170
  H     12.860540   -4.452980    3.706320
  H     11.316750   -4.108730    4.520320
  H     12.599000   -2.883880    4.505700
  H      8.784890    4.680860   -2.265820
  H     10.512510    4.815060   -1.857660
  H      9.285010    4.889120   -0.576620
  H     12.767250   -7.817520   -9.569280
  H     11.110930   -7.418070  -10.047240
  H     11.404090   -8.291030   -8.524970
  H      9.082520    2.229490   -9.633910
  H     10.158960    3.259330   -8.649350
  H      8.684040    2.574280   -7.942220

----------------------------
CARTESIAN COORDINATES (A.U.)
----------------------------
  NO LB      ZA    FRAG     MASS         X           Y           Z
   0 C     6.0000    0    12.011    0.317247  -10.581824    0.598609
   1 O     8.0000    0    15.999    0.302281   -9.488523   -1.434245
   2 C     6.0000    0    12.011   -1.828537  -12.099482    1.559194
   3 C     6.0000    0    12.011   -4.097531  -12.571460    0.324655
   4 C     6.0000    0    12.011   -5.826838  -14.125911    1.540826
   5 C     6.0000    0    12.011   -5.251625  -15.186897    3.907916
   6 C     6.0000    0    12.011   -2.994252  -14.669831    5.159406
   7 C     6.0000    0    12.011   -1.250791  -13.076130    3.960923
   8 C     6.0000    0    12.011    1.267458  -12.102297    4.728133
   9 C     6.0000    0    12.011    2.282676  -12.387287    7.123568
  10 C     6.0000    0    12.011    4.612595  -11.271668    7.918916
  11 N     7.0000    0    14.007    6.499354  -10.390243    8.618928
  12 C     6.0000    0    12.011    1.015274  -13.740274    9.090546
  13 N     7.0000    0    14.007    0.011471  -14.823579   10.716524
  14 C     6.0000    0    12.011    2.324533  -10.715276    2.567911
  15 F     9.0000    0    18.998   -8.049685  -14.653390    0.494541
  16 F     9.0000    0    18.998   -6.946728  -16.724020    4.947549
  17 C     6.0000    0    12.011   43.960926   -7.027154   -8.307879
  18 O     8.0000    0    15.999   43.550043   -7.020862   -6.049826
  19 C     6.0000    0    12.011   46.443799   -7.330342   -9.574619
  20 C     6.0000    0    12.011   48.797453   -7.681264   -8.456543
  21 C     6.0000    0    12.011   50.870785   -7.950153  -10.047050
  22 C     6.0000    0    12.011   50.563251   -7.849507  -12.684314
  23 C     6.0000    0    12.011   48.204438   -7.511907  -13.799555
  24 C     6.0000    0    12.011   46.099964   -7.256038  -12.214585
  25 C     6.0000    0    12.011   43.346444   -7.069031  -12.774530
  26 C     6.0000    0    12.011   42.298439   -7.579597  -15.126124
  27 C     6.0000    0    12.011   39.695682   -8.160782  -15.496094
  28 N     7.0000    0    14.007   37.600070   -8.702057  -15.876364
  29 C     6.0000    0    12.011   43.792551   -7.816021  -17.365714
  30 N     7.0000    0    14.007   44.977844   -7.974644  -19.209009
  31 C     6.0000    0    12.011   42.055798   -6.671130  -10.386445
  32 F     9.0000    0    18.998   53.179123   -8.316458   -9.119403
  33 F     9.0000    0    18.998   52.602625   -8.106831  -14.130389
  34 C     6.0000    0    12.011    4.777738   -9.805335    2.423933
  35 C     6.0000    0    12.011    6.094612   -8.517109    0.482201
  36 C     6.0000    0    12.011    5.347812   -7.666827   -1.906016
  37 C     6.0000    0    12.011    7.283364   -6.456419   -3.253787
  38 C     6.0000    0    12.011    9.594820   -6.371854   -1.927993
  39 S    16.0000    0    32.060    9.301308   -7.801583    1.008830
  40 C     6.0000    0    12.011   11.991635   -5.397738   -2.746415
  41 S    16.0000    0    32.060   12.983571   -5.683880   -5.930376
  42 C     6.0000    0    12.011   15.971927   -4.637898   -5.130021
  43 C     6.0000    0    12.011   16.147672   -3.997716   -2.589019
  44 C     6.0000    0    12.011   13.919307   -4.445713   -1.222974
  45 C     6.0000    0    12.011   18.377341   -4.254000   -6.393019
  46 C     6.0000    0    12.011   20.103114   -3.388525   -4.513762
  47 C     6.0000    0    12.011   18.693568   -2.783831   -2.041037
  48 C     6.0000    0    12.011   19.163354   -4.624538   -8.899609
  49 C     6.0000    0    12.011   21.707719   -4.287411   -9.450067
  50 C     6.0000    0    12.011   23.452673   -3.607053   -7.525872
  51 C     6.0000    0    12.011   22.645665   -3.079781   -5.054885
  52 C     6.0000    0    12.011   23.036933   -4.423376  -12.044831
  53 C     6.0000    0    12.011   25.790963   -4.018030  -11.262541
  54 C     6.0000    0    12.011   25.927666   -3.577403   -8.679399
  55 C     6.0000    0    12.011   28.175117   -4.035586  -12.457056
  56 C     6.0000    0    12.011   30.143248   -3.683775  -10.739710
  57 S    16.0000    0    32.060   28.989608   -3.204201   -7.637404
  58 C     6.0000    0    12.011   32.822748   -3.909050  -11.127936
  59 S    16.0000    0    32.060   34.730199   -5.171273   -8.786395
  60 C     6.0000    0    12.011   37.435248   -5.026294  -10.703069
  61 C     6.0000    0    12.011   36.836564   -3.958296  -13.049504
  62 C     6.0000    0    12.011   34.254952   -3.348708  -13.304692
  63 C     6.0000    0    12.011   39.670019   -5.977752   -9.587885
  64 O     8.0000    0    15.999    7.093559   -5.403124   -5.561521
  65 C     6.0000    0    12.011    4.729304   -5.631686   -6.863788
  66 C     6.0000    0    12.011    2.685565   -3.825788   -5.882906
  67 C     6.0000    0    12.011    3.330529   -1.068168   -6.463676
  68 C     6.0000    0    12.011    0.096603   -4.583814   -6.932668
  69 C     6.0000    0    12.011   18.416761    0.132810   -2.053150
  70 C     6.0000    0    12.011   19.881053   -3.821933    0.372975
  71 C     6.0000    0    12.011   22.752567   -6.956838  -13.406738
  72 C     6.0000    0    12.011   21.959733   -2.152360  -13.515945
  73 O     8.0000    0    15.999   33.118131   -2.327311  -15.334088
  74 C     6.0000    0    12.011   34.643045   -1.668817  -17.459161
  75 C     6.0000    0    12.011   32.996621   -0.364169  -19.428841
  76 C     6.0000    0    12.011   31.754467    2.023179  -18.359578
  77 C     6.0000    0    12.011   34.578398    0.207927  -21.785424
  78 C     6.0000    0    12.011   16.319656    1.305971   -3.164668
  79 C     6.0000    0    12.011   16.211620    3.928249   -3.427623
  80 C     6.0000    0    12.011   18.182605    5.477730   -2.587073
  81 C     6.0000    0    12.011   20.268428    4.298522   -1.441143
  82 C     6.0000    0    12.011   20.389956    1.677302   -1.184348
  83 C     6.0000    0    12.011   21.538210   -5.882377    0.343514
  84 C     6.0000    0    12.011   22.510059   -6.877791    2.589530
  85 C     6.0000    0    12.011   21.844251   -5.866768    4.943202
  86 C     6.0000    0    12.011   20.149451   -3.822746    4.965331
  87 C     6.0000    0    12.011   19.188317   -2.816712    2.728954
  88 C     6.0000    0    12.011   23.613394   -7.215730  -15.904615
  89 C     6.0000    0    12.011   23.480584   -9.530002  -17.152307
  90 C     6.0000    0    12.011   22.468466  -11.680170  -15.965880
  91 C     6.0000    0    12.011   21.632319  -11.417007  -13.472349
  92 C     6.0000    0    12.011   21.779264   -9.101620  -12.208349
  93 C     6.0000    0    12.011   19.864064   -2.409401  -15.111346
  94 C     6.0000    0    12.011   18.635534   -0.280568  -16.077677
  95 C     6.0000    0    12.011   19.437629    2.168801  -15.460586
  96 C     6.0000    0    12.011   21.589327    2.407417  -13.931080
  97 C     6.0000    0    12.011   22.832786    0.290319  -12.980756
  98 C     6.0000    0    12.011   22.894920   -6.931515    7.369459
  99 C     6.0000    0    12.011   18.044768    8.306291   -2.887331
 100 C     6.0000    0    12.011   22.275090  -14.164121  -17.348102
 101 C     6.0000    0    12.011   17.989097    4.467898  -16.312381
 102 H     1.0000    0     1.008   -4.503123  -11.756761   -1.524669
 103 H     1.0000    0     1.008   -2.685509  -15.531924    6.999187
 104 H     1.0000    0     1.008   49.013298   -7.766850   -6.406682
 105 H     1.0000    0     1.008   48.102790   -7.474717  -15.852837
 106 H     1.0000    0     1.008    5.949500  -10.167464    4.080145
 107 H     1.0000    0     1.008    3.421387   -7.947942   -2.544611
 108 H     1.0000    0     1.008   13.677668   -4.094375    0.793156
 109 H     1.0000    0     1.008   17.823235   -5.183859  -10.364279
 110 H     1.0000    0     1.008   23.977034   -2.454981   -3.608394
 111 H     1.0000    0     1.008   28.526361   -4.402419  -14.450641
 112 H     1.0000    0     1.008   38.245940   -3.589478  -14.493803
 113 H     1.0000    0     1.008   39.539930   -6.182409   -7.523642
 114 H     1.0000    0     1.008    4.079163   -7.609889   -6.753144
 115 H     1.0000    0     1.008    5.177680   -5.213395   -8.851439
 116 H     1.0000    0     1.008    2.607501   -4.045393   -3.812825
 117 H     1.0000    0     1.008    3.209303   -0.692415   -8.511478
 118 H     1.0000    0     1.008    5.253949   -0.598061   -5.825459
 119 H     1.0000    0     1.008    2.007758    0.221003   -5.508930
 120 H     1.0000    0     1.008    0.065139   -4.500080   -9.016866
 121 H     1.0000    0     1.008   -1.376703   -3.291393   -6.236984
 122 H     1.0000    0     1.008   -0.429894   -6.508103   -6.338312
 123 H     1.0000    0     1.008   35.523034   -3.393117  -18.237558
 124 H     1.0000    0     1.008   36.173875   -0.383747  -16.842883
 125 H     1.0000    0     1.008   31.494308   -1.715928  -19.952050
 126 H     1.0000    0     1.008   33.205606    3.395724  -17.761234
 127 H     1.0000    0     1.008   30.568626    1.584857  -16.712209
 128 H     1.0000    0     1.008   30.561766    2.947330  -19.793540
 129 H     1.0000    0     1.008   36.125762    1.533154  -21.346120
 130 H     1.0000    0     1.008   33.407731    1.090655  -23.260847
 131 H     1.0000    0     1.008   35.425883   -1.516052  -22.589881
 132 H     1.0000    0     1.008   14.756021    0.173760   -3.878342
 133 H     1.0000    0     1.008   14.558204    4.783898   -4.325205
 134 H     1.0000    0     1.008   21.838450    5.452635   -0.752716
 135 H     1.0000    0     1.008   22.047114    0.819310   -0.302961
 136 H     1.0000    0     1.008   22.089462   -6.730203   -1.452349
 137 H     1.0000    0     1.008   23.813932   -8.478105    2.506552
 138 H     1.0000    0     1.008   19.576070   -2.990794    6.768772
 139 H     1.0000    0     1.008   17.902358   -1.203926    2.806961
 140 H     1.0000    0     1.008   24.378015   -5.572406  -16.891582
 141 H     1.0000    0     1.008   24.180218   -9.677533  -19.091034
 142 H     1.0000    0     1.008   20.843963  -13.052811  -12.487046
 143 H     1.0000    0     1.008   21.117085   -8.982038  -10.262252
 144 H     1.0000    0     1.008   19.160538   -4.289981  -15.583060
 145 H     1.0000    0     1.008   16.989073   -0.534774  -17.300594
 146 H     1.0000    0     1.008   22.286428    4.289470  -13.437597
 147 H     1.0000    0     1.008   24.472142    0.544411  -11.756308
 148 H     1.0000    0     1.008   24.302899   -8.414913    7.003930
 149 H     1.0000    0     1.008   21.385558   -7.764374    8.542167
 150 H     1.0000    0     1.008   23.808660   -5.449743    8.514539
 151 H     1.0000    0     1.008   16.601036    8.845543   -4.281779
 152 H     1.0000    0     1.008   19.865765    9.099145   -3.510469
 153 H     1.0000    0     1.008   17.546126    9.239098   -1.089654
 154 H     1.0000    0     1.008   24.126606  -14.772972  -18.083318
 155 H     1.0000    0     1.008   20.996615  -14.018121  -18.986532
 156 H     1.0000    0     1.008   21.550607  -15.667776  -16.109859
 157 H     1.0000    0     1.008   17.163475    4.213126  -18.205451
 158 H     1.0000    0     1.008   19.197652    6.159241  -16.344903
 159 H     1.0000    0     1.008   16.410457    4.864684  -15.008621

--------------------------------
INTERNAL COORDINATES (ANGSTROEM)
--------------------------------
 C      0   0   0     0.000000000000     0.00000000     0.00000000
 O      1   0   0     1.221474263544     0.00000000     0.00000000
 C      1   2   0     1.480788690023   123.65790073     0.00000000
 C      3   1   2     1.389549701054   126.77672557     1.88781902
 C      4   3   1     1.388613161899   117.25978926   177.80628289
 C      5   4   3     1.406026737548   120.44884727   359.14201778
 C      6   5   4     1.392984534911   122.05703173     2.13782330
 C      7   6   5     1.401660553272   117.87371754   358.73155119
 C      8   7   6     1.485333514400   132.50162684   178.90058976
 C      9   8   7     1.384989112268   124.08327253   350.90037018
 C     10   9   8     1.430316729819   123.96880804   185.35714152
 N     11  10   9     1.162599584853   178.44401179   180.73850651
 C     10   9   8     1.430334183923   122.59287515     2.14189328
 N     13  10   9     1.162381016965   178.92348358   193.91947724
 C      9   8   7     1.469149987033   107.59293347   174.11713732
 F      5   4   3     1.329698711814   120.95372869   179.46330479
 F      6   5   4     1.330010447591   117.82128412   182.06067923
 C     12  11  10    21.826212067681   132.99668282   135.28101675
 O     18  12  11     1.214535632207    55.51885947   204.88747797
 C     18  12  11     1.483699415953   168.78281594   312.30738648
 C     20  18  19     1.391336154781   127.95417820     0.37904385
 C     21  20  18     1.390107213599   117.56308977   179.26152606
 C     22  21  20     1.406045686171   120.37972001     0.39278774
 C     23  22  21     1.392222245548   121.96326733   359.23388475
 C     24  23  22     1.400712398210   118.12536641     0.32364928
 C     25  24  23     1.490212437104   131.66270884   185.24389129
 C     26  25  24     1.388924928461   123.75523179    12.15797388
 C     27  26  25     1.424755134506   123.44247393   160.01661830
 N     28  27  26     1.162886821793   177.21165243   214.94857745
 C     27  26  25     1.430152703106   122.59736133   346.44470367
 N     30  27  26     1.162723991926   178.69604374   232.44387256
 C     26  25  24     1.451821418908   107.24944490   183.51784777
 F     22  21  20     1.330660756203   121.06956916   180.65254516
 F     23  22  21     1.329951231399   118.24879211   179.75255494
 C     15   9   8     1.386700306086   124.93710329   188.78813941
 C     35  15   9     1.416377809767   131.88057798   177.90714915
 C     36  35  15     1.398497516158   132.17515587     2.15368921
 C     37  36  35     1.402862230228   113.57870566   180.01372630
 C     38  37  36     1.410801866954   113.24558141     0.64282348
 S     39  38  37     1.735443576957   110.72625975   359.66208058
 C     39  38  37     1.435957149117   128.84392144   176.90557603
 S     41  39  38     1.771236612906   121.19617749   324.69291065
 C     42  41  39     1.728144107967    90.61148593   189.43145968
 C     43  42  41     1.389773665925   112.11252901   357.31632825
 C     41  39  38     1.394373565226   126.97733009   153.32511337
 C     43  42  41     1.451967836111   137.24058882   176.86893717
 C     46  43  42     1.425732383479   106.58379495   181.64042136
 C     44  43  42     1.520441857783   110.29202256   187.07389675
 C     46  43  42     1.403876773403   132.46262953     0.18890107
 C     49  46  43     1.389072798848   117.86414053   185.91582185
 C     50  49  46     1.420944541705   120.80774364     0.44272235
 C     47  46  43     1.385262415032   121.05360880   173.57886411
 C     50  49  46     1.544445027413   128.45497591   183.79459784
 C     53  50  49     1.530133565347   100.76118432   182.88209974
 C     54  53  50     1.388569871522   109.84579809   356.86627835
 C     54  53  50     1.411164358181   136.83757221   175.04305435
 C     56  54  53     1.394719246802   112.01615511   183.80405279
 S     55  54  53     1.722918673705   112.53794350   178.01799045
 C     57  56  54     1.437686371432   129.21996387   170.94617514
 S     59  57  56     1.732147758160   120.29677496   217.48309792
 C     60  59  57     1.756034854011    92.57910918   175.74314533
 C     61  60  59     1.400551185819   110.20038728     1.62345724
 C     62  61  60     1.410179008105   113.34978989   358.30344042
 C     32  26  25     1.380981677214   137.30357997   167.70161821
 O     38  37  36     1.346138959395   126.56864058   181.64312512
 C     65  38  37     1.433459204686   117.79516035   356.52912838
 C     66  65  38     1.533725315433   113.58892502    76.95281995
 C     67  66  65     1.529838668553   111.65643093    67.47446374
 C     67  66  65     1.531813120913   110.16780311   192.73911680
 C     48  44  43     1.550368593238   109.63841260    97.53169606
 C     48  44  43     1.525942784412   111.86732453   224.52401632
 C     53  50  49     1.529503425625   114.51555173   301.02008580
 C     53  50  49     1.541173722914   104.14060120    66.37057058
 O     63  62  61     1.344366555111   127.01106481   180.60982335
 C     74  63  62     1.427299157745   118.32936163   357.24435608
 C     75  74  63     1.523852043572   109.04260550   184.44849022
 C     76  75  74     1.532395464689   111.48093628    59.10596601
 C     76  75  74     1.532129619745   109.50516547   183.40323578
 C     70  48  44     1.401033689745   121.17778266   342.54711799
 C     79  70  48     1.395780661100   120.98571707   187.32951533
 C     80  79  70     1.399290549707   121.35519595   359.79919562
 C     81  80  79     1.405495518669   117.53884177   359.33370381
 C     82  81  80     1.395213437543   121.30635155     0.95633349
 C     71  48  44     1.399317901193   121.95510077    91.95372282
 C     84  71  48     1.398061805680   120.97297317   183.06985904
 C     85  84  71     1.400595333813   121.30155828     0.58934818
 C     86  85  84     1.405149020247   117.51718423     0.38323675
 C     87  86  85     1.393783405914   121.32268404   359.24730027
 C     72  53  50     1.404807706877   119.79742414   172.36539004
 C     89  72  53     1.393076256527   121.01925626   177.13637758
 C     90  89  72     1.405582267034   121.27594444     0.40803795
 C     91  90  89     1.398680120292   117.47321365   359.11773445
 C     92  91  90     1.398100366390   121.39967585     0.42274645
 C     73  53  50     1.400391425031   121.44516072   266.36874693
 C     94  73  53     1.397569999177   120.70808700   168.59001658
 C     95  94  73     1.402425587152   121.26500337   359.22564134
 C     96  95  94     1.402682563590   117.59615272     2.86023573
 C     97  96  95     1.393195038248   121.28444313   357.68789772
 C     86  85  84     1.508323599265   121.43616035   180.17243007
 C     81  80  79     1.506985883079   120.82556849   179.87004410
 C     91  90  89     1.507731642236   120.99068687   178.56925720
 C     96  95  94     1.506961300200   121.50444741   185.34383829
 H      4   3   1     1.090700506876   121.38756646   357.88404664
 H      7   6   5     1.087497130709   118.16761133   179.04070561
 H     21  20  18     1.091676811195   121.44918425     0.00000000
 H     24  23  22     1.088058623880   118.03135457   180.71746955
 H     35  15   9     1.090567928512   115.28425238   359.43721101
 H     37  36  35     1.084224773237   120.21227125     0.77197360
 H     45  41  39     1.090491290841   122.78324003   350.87515161
 H     49  46  43     1.091441968636   121.08627287     5.12337120
 H     52  47  46     1.091600852098   121.17396713   181.28667619
 H     56  54  53     1.088655516176   126.00724824   359.78326151
 H     62  61  60     1.085570398040   122.77374680   176.48439714
 H     64  32  26     1.099861972295   109.57055358   172.49760886
 H     66  65  38     1.103459893471   109.06605836   312.98017313
 H     66  65  38     1.100735294156   104.73090879   197.60355435
 H     67  66  65     1.102361135835   107.28024941   309.36259571
 H     68  67  66     1.103607670597   110.86401845    69.05216396
 H     68  67  66     1.100875094959   111.11169586   308.54311453
 H     68  67  66     1.100284596502   110.93120774   188.52579906
 H     69  67  66     1.103925299420   111.42565857   299.35916507
 H     69  67  66     1.100505409164   110.46036271   180.10053290
 H     69  67  66     1.101572006997   111.39106358    60.77363503
 H     75  74  63     1.104129362258   109.30618916    62.78956984
 H     75  74  63     1.106808322023   109.36893018   304.74269990
 H     76  75  74     1.104693984504   106.82902594   300.70085937
 H     77  76  75     1.103395245322   110.49399816    60.88105942
 H     77  76  75     1.098876797189   111.33764190   300.89120637
 H     77  76  75     1.101507256672   110.94249142   180.27273644
 H     78  76  75     1.102868309546   111.08172898   297.10184529
 H     78  76  75     1.100706651247   110.71510417   177.97832122
 H     78  76  75     1.102097488882   111.90947233    57.64088240
 H     79  70  48     1.089152316621   120.23689982     5.99791071
 H     80  79  70     1.093692043950   119.18642204   179.23645108
 H     82  81  80     1.093602987971   119.49839105   180.32915095
 H     83  82  81     1.092102446614   119.46728422   179.34263136
 H     84  71  48     1.090645980830   119.85816002     3.18271925
 H     85  84  71     1.093231636480   119.33257101   180.52778703
 H     87  86  85     1.093914345139   119.61070338   179.61590582
 H     88  87  86     1.092319179956   119.58281614   181.17461199
 H     89  72  53     1.092115055706   119.50249587   356.40554720
 H     90  89  72     1.093479557514   119.36399300   180.51450537
 H     92  91  90     1.093257704889   119.45980202   180.34028360
 H     93  92  91     1.089651942319   119.02317634   180.37311464
 H     94  73  53     1.091445561675   119.77257970   349.59288272
 H     95  94  73     1.093616579474   119.20663687   180.75241174
 H     97  96  95     1.093695759935   119.57371162   179.01375241
 H     98  97  96     1.091096830808   119.39184770   181.58982793
 H     99  86  85     1.099426245912   111.51583648     4.82639802
 H     99  86  85     1.103314867207   111.17072480   244.59462871
 H     99  86  85     1.102642660974   111.33277327   125.39126731
 H    100  81  80     1.099828267413   111.22728507   342.76928980
 H    100  81  80     1.101520963486   111.56400589   222.18500724
 H    100  81  80     1.103739437277   111.40165749   102.33877142
 H    101  91  90     1.102335215849   111.45115018    55.83798770
 H    101  91  90     1.102451431855   111.22796643   296.82582790
 H    101  91  90     1.099759645059   111.43137892   176.53535754
 H    102  96  95     1.101181717656   112.02913209   324.20430123
 H    102  96  95     1.100167440029   111.45591852   202.51551527
 H    102  96  95     1.103601717877   110.58806086    83.42080576

---------------------------
INTERNAL COORDINATES (A.U.)
---------------------------
 C      0   0   0     0.000000000000     0.00000000     0.00000000
 O      1   0   0     2.308251837731     0.00000000     0.00000000
 C      1   2   0     2.798285086351   123.65790073     0.00000000
 C      3   1   2     2.625868384465   126.77672557     1.88781902
 C      4   3   1     2.624098581948   117.25978926   177.80628289
 C      5   4   3     2.657005470937   120.44884727   359.14201778
 C      6   5   4     2.632359279769   122.05703173     2.13782330
 C      7   6   5     2.648754578405   117.87371754   358.73155119
 C      8   7   6     2.806873559751   132.50162684   178.90058976
 C      9   8   7     2.617250120649   124.08327253   350.90037018
 C     10   9   8     2.702906904124   123.96880804   185.35714152
 N     11  10   9     2.196994818782   178.44401179   180.73850651
 C     10   9   8     2.702939887601   122.59287515     2.14189328
 N     13  10   9     2.196581785332   178.92348358   193.91947724
 C      9   8   7     2.776291125147   107.59293347   174.11713732
 F      5   4   3     2.512766405956   120.95372869   179.46330479
 F      6   5   4     2.513355501200   117.82128412   182.06067923
 C     12  11  10    41.245563348805   132.99668282   135.28101675
 O     18  12  11     2.295139724760    55.51885947   204.88747797
 C     18  12  11     2.803785561211   168.78281594   312.30738648
 C     20  18  19     2.629244292759   127.95417820     0.37904385
 C     21  20  18     2.626921930490   117.56308977   179.26152606
 C     22  21  20     2.657041278645   120.37972001     0.39278774
 C     23  22  21     2.630918761639   121.96326733   359.23388475
 C     24  23  22     2.646962825005   118.12536641     0.32364928
 C     25  24  23     2.816093387490   131.66270884   185.24389129
 C     26  25  24     2.624687735367   123.75523179    12.15797388
 C     27  26  25     2.692397012114   123.44247393   160.01661830
 N     28  27  26     2.197537617935   177.21165243   214.94857745
 C     27  26  25     2.702596938557   122.59736133   346.44470367
 N     30  27  26     2.197229914080   178.69604374   232.44387256
 C     26  25  24     2.743544877097   107.24944490   183.51784777
 F     22  21  20     2.514584406381   121.06956916   180.65254516
 F     23  22  21     2.513243598816   118.24879211   179.75255494
 C     15   9   8     2.620483808328   124.93710329   188.78813941
 C     35  15   9     2.676566162623   131.88057798   177.90714915
 C     36  35  15     2.642777304508   132.17515587     2.15368921
 C     37  36  35     2.651025418753   113.57870566   180.01372630
 C     38  37  36     2.666029157767   113.24558141     0.64282348
 S     39  38  37     3.279513081321   110.72625975   359.66208058
 C     39  38  37     2.713565751877   128.84392144   176.90557603
 S     41  39  38     3.347152116767   121.19617749   324.69291065
 C     42  41  39     3.265719084007    90.61148593   189.43145968
 C     43  42  41     2.626291616735   112.11252901   357.31632825
 C     41  39  38     2.634984166656   126.97733009   153.32511337
 C     43  42  41     2.743821565511   137.24058882   176.86893717
 C     46  43  42     2.694243745038   106.58379495   181.64042136
 C     44  43  42     2.873218713761   110.29202256   187.07389675
 C     46  43  42     2.652942627504   132.46262953     0.18890107
 C     49  46  43     2.624967169903   117.86414053   185.91582185
 C     50  49  46     2.685196035312   120.80774364     0.44272235
 C     47  46  43     2.617766588025   121.05360880   173.57886411
 C     50  49  46     2.918578130707   128.45497591   183.79459784
 C     53  50  49     2.891533386825   100.76118432   182.88209974
 C     54  53  50     2.624016774992   109.84579809   356.86627835
 C     54  53  50     2.666714166913   136.83757221   175.04305435
 C     56  54  53     2.635637410165   112.01615511   183.80405279
 S     55  54  53     3.255844444321   112.53794350   178.01799045
 C     57  56  54     2.716833508477   129.21996387   170.94617514
 S     59  57  56     3.273284886409   120.29677496   217.48309792
 C     60  59  57     3.318424955700    92.57910918   175.74314533
 C     61  60  59     2.646658177737   110.20038728     1.62345724
 C     62  61  60     2.664852125123   113.34978989   358.30344042
 C     32  26  25     2.609677165897   137.30357997   167.70161821
 O     38  37  36     2.543833971458   126.56864058   181.64312512
 C     65  38  37     2.708845321006   117.79516035   356.52912838
 C     66  65  38     2.898320810830   113.58892502    76.95281995
 C     67  66  65     2.890976112648   111.65643093    67.47446374
 C     67  66  65     2.894707286872   110.16780311   192.73911680
 C     48  44  43     2.929772047853   109.63841260    97.53169606
 C     48  44  43     2.883613958573   111.86732453   224.52401632
 C     53  50  49     2.890342595327   114.51555173   301.02008580
 C     53  50  49     2.912396261103   104.14060120    66.37057058
 O     63  62  61     2.540484612762   127.01106481   180.60982335
 C     74  63  62     2.697204519315   118.32936163   357.24435608
 C     75  74  63     2.879663030968   109.04260550   184.44849022
 C     76  75  74     2.895807757126   111.48093628    59.10596601
 C     76  75  74     2.895305382987   109.50516547   183.40323578
 C     70  48  44     2.647569978015   121.17778266   342.54711799
 C     79  70  48     2.637643192502   120.98571707   187.32951533
 C     80  79  70     2.644275920731   121.35519595   359.79919562
 C     81  80  79     2.656001612739   117.53884177   359.33370381
 C     82  81  80     2.636571295323   121.30635155     0.95633349
 C     71  48  44     2.644327607549   121.95510077    91.95372282
 C     84  71  48     2.641953931030   120.97297317   183.06985904
 C     85  84  71     2.646741605355   121.30155828     0.58934818
 C     86  85  84     2.655346825614   117.51718423     0.38323675
 C     87  86  85     2.633868927181   121.32268404   359.24730027
 C     72  53  50     2.654701836819   119.79742414   172.36539004
 C     89  72  53     2.632532608505   121.01925626   177.13637758
 C     90  89  72     2.656165543390   121.27594444     0.40803795
 C     91  90  89     2.643122376312   117.47321365   359.11773445
 C     92  91  90     2.642026800212   121.39967585     0.42274645
 C     73  53  50     2.646356273600   121.44516072   266.36874693
 C     94  73  53     2.641024551429   120.70808700   168.59001658
 C     95  94  73     2.650200282922   121.26500337   359.22564134
 C     96  95  94     2.650685898012   117.59615272     2.86023573
 C     97  96  95     2.632757073427   121.28444313   357.68789772
 C     86  85  84     2.850318523941   121.43616035   180.17243007
 C     81  80  79     2.847790606705   120.82556849   179.87004410
 C     91  90  89     2.849199887274   120.99068687   178.56925720
 C     96  95  94     2.847744151796   121.50444741   185.34383829
 H      4   3   1     2.061125252125   121.38756646   357.88404664
 H      7   6   5     2.055071748465   118.16761133   179.04070561
 H     21  20  18     2.062970199910   121.44918425     0.00000000
 H     24  23  22     2.056132816785   118.03135457   180.71746955
 H     35  15   9     2.060874715326   115.28425238   359.43721101
 H     37  36  35     2.048887889030   120.21227125     0.77197360
 H     45  41  39     2.060729891116   122.78324003   350.87515161
 H     49  46  43     2.062526411790   121.08627287     5.12337120
 H     52  47  46     2.062826658019   121.17396713   181.28667619
 H     56  54  53     2.057260779755   126.00724824   359.78326151
 H     62  61  60     2.051430751387   122.77374680   176.48439714
 H     64  32  26     2.078437912751   109.57055358   172.49760886
 H     66  65  38     2.085236998427   109.06605836   312.98017313
 H     66  65  38     2.080088251895   104.73090879   197.60355435
 H     67  66  65     2.083160647407   107.28024941   309.36259571
 H     68  67  66     2.085516256723   110.86401845    69.05216396
 H     68  67  66     2.080352437126   111.11169586   308.54311453
 H     68  67  66     2.079236556761   110.93120774   188.52579906
 H     69  67  66     2.086116488211   111.42565857   299.35916507
 H     69  67  66     2.079653832220   110.46036271   180.10053290
 H     69  67  66     2.081669410019   111.39106358    60.77363503
 H     75  74  63     2.086502111089   109.30618916    62.78956984
 H     75  74  63     2.091564611369   109.36893018   304.74269990
 H     76  75  74     2.087569092503   106.82902594   300.70085937
 H     77  76  75     2.085114831130   110.49399816    60.88105942
 H     77  76  75     2.076576201607   111.33764190   300.89120637
 H     77  76  75     2.081547049636   110.94249142   180.27273644
 H     78  76  75     2.084119066822   111.08172898   297.10184529
 H     78  76  75     2.080034124643   110.71510417   177.97832122
 H     78  76  75     2.082662426869   111.90947233    57.64088240
 H     79  70  48     2.058199596539   120.23689982     5.99791071
 H     80  79  70     2.066778437914   119.18642204   179.23645108
 H     82  81  80     2.066610146504   119.49839105   180.32915095
 H     83  82  81     2.063774534286   119.46728422   179.34263136
 H     84  71  48     2.061022212830   119.85816002     3.18271925
 H     85  84  71     2.065908393885   119.33257101   180.52778703
 H     87  86  85     2.067198526280   119.61070338   179.61590582
 H     88  87  86     2.064184100946   119.58281614   181.17461199
 H     89  72  53     2.063798362017   119.50249587   356.40554720
 H     90  89  72     2.066376896742   119.36399300   180.51450537
 H     92  91  90     2.065957656040   119.45980202   180.34028360
 H     93  92  91     2.059143752279   119.02317634   180.37311464
 H     94  73  53     2.062533201650   119.77257970   349.59288272
 H     95  94  73     2.066635830721   119.20663687   180.75241174
 H     97  96  95     2.066785460108   119.57371162   179.01375241
 H     98  97  96     2.061874195817   119.39184770   181.58982793
 H     99  86  85     2.077614509219   111.51583648     4.82639802
 H     99  86  85     2.084962938505   111.17072480   244.59462871
 H     99  86  85     2.083692652819   111.33277327   125.39126731
 H    100  81  80     2.078374219755   111.22728507   342.76928980
 H    100  81  80     2.081572951762   111.56400589   222.18500724
 H    100  81  80     2.085765259661   111.40165749   102.33877142
 H    101  91  90     2.083111665731   111.45115018    55.83798770
 H    101  91  90     2.083331282156   111.22796643   296.82582790
 H    101  91  90     2.078244542300   111.43137892   176.53535754
 H    102  96  95     2.080931870051   112.02913209   324.20430123
 H    102  96  95     2.079015163112   111.45591852   202.51551527
 H    102  96  95     2.085505007712   110.58806086    83.42080576

---------------------
BASIS SET INFORMATION
---------------------
There are 6 groups of distinct atoms

 Group   1 Type C   : 11s6p2d1f contracted to 5s3p2d1f pattern {62111/411/11/1}
 Group   2 Type O   : 11s6p2d1f contracted to 5s3p2d1f pattern {62111/411/11/1}
 Group   3 Type N   : 11s6p2d1f contracted to 5s3p2d1f pattern {62111/411/11/1}
 Group   4 Type F   : 11s6p2d1f contracted to 5s3p2d1f pattern {62111/411/11/1}
 Group   5 Type S   : 14s9p3d1f contracted to 5s5p2d1f pattern {73211/51111/21/1}
 Group   6 Type H   : 5s1p contracted to 3s1p pattern {311/1}

Atom   0C    basis set group =>   1
Atom   1O    basis set group =>   2
Atom   2C    basis set group =>   1
Atom   3C    basis set group =>   1
Atom   4C    basis set group =>   1
Atom   5C    basis set group =>   1
Atom   6C    basis set group =>   1
Atom   7C    basis set group =>   1
Atom   8C    basis set group =>   1
Atom   9C    basis set group =>   1
Atom  10C    basis set group =>   1
Atom  11N    basis set group =>   3
Atom  12C    basis set group =>   1
Atom  13N    basis set group =>   3
Atom  14C    basis set group =>   1
Atom  15F    basis set group =>   4
Atom  16F    basis set group =>   4
Atom  17C    basis set group =>   1
Atom  18O    basis set group =>   2
Atom  19C    basis set group =>   1
Atom  20C    basis set group =>   1
Atom  21C    basis set group =>   1
Atom  22C    basis set group =>   1
Atom  23C    basis set group =>   1
Atom  24C    basis set group =>   1
Atom  25C    basis set group =>   1
Atom  26C    basis set group =>   1
Atom  27C    basis set group =>   1
Atom  28N    basis set group =>   3
Atom  29C    basis set group =>   1
Atom  30N    basis set group =>   3
Atom  31C    basis set group =>   1
Atom  32F    basis set group =>   4
Atom  33F    basis set group =>   4
Atom  34C    basis set group =>   1
Atom  35C    basis set group =>   1
Atom  36C    basis set group =>   1
Atom  37C    basis set group =>   1
Atom  38C    basis set group =>   1
Atom  39S    basis set group =>   5
Atom  40C    basis set group =>   1
Atom  41S    basis set group =>   5
Atom  42C    basis set group =>   1
Atom  43C    basis set group =>   1
Atom  44C    basis set group =>   1
Atom  45C    basis set group =>   1
Atom  46C    basis set group =>   1
Atom  47C    basis set group =>   1
Atom  48C    basis set group =>   1
Atom  49C    basis set group =>   1
Atom  50C    basis set group =>   1
Atom  51C    basis set group =>   1
Atom  52C    basis set group =>   1
Atom  53C    basis set group =>   1
Atom  54C    basis set group =>   1
Atom  55C    basis set group =>   1
Atom  56C    basis set group =>   1
Atom  57S    basis set group =>   5
Atom  58C    basis set group =>   1
Atom  59S    basis set group =>   5
Atom  60C    basis set group =>   1
Atom  61C    basis set group =>   1
Atom  62C    basis set group =>   1
Atom  63C    basis set group =>   1
Atom  64O    basis set group =>   2
Atom  65C    basis set group =>   1
Atom  66C    basis set group =>   1
Atom  67C    basis set group =>   1
Atom  68C    basis set group =>   1
Atom  69C    basis set group =>   1
Atom  70C    basis set group =>   1
Atom  71C    basis set group =>   1
Atom  72C    basis set group =>   1
Atom  73O    basis set group =>   2
Atom  74C    basis set group =>   1
Atom  75C    basis set group =>   1
Atom  76C    basis set group =>   1
Atom  77C    basis set group =>   1
Atom  78C    basis set group =>   1
Atom  79C    basis set group =>   1
Atom  80C    basis set group =>   1
Atom  81C    basis set group =>   1
Atom  82C    basis set group =>   1
Atom  83C    basis set group =>   1
Atom  84C    basis set group =>   1
Atom  85C    basis set group =>   1
Atom  86C    basis set group =>   1
Atom  87C    basis set group =>   1
Atom  88C    basis set group =>   1
Atom  89C    basis set group =>   1
Atom  90C    basis set group =>   1
Atom  91C    basis set group =>   1
Atom  92C    basis set group =>   1
Atom  93C    basis set group =>   1
Atom  94C    basis set group =>   1
Atom  95C    basis set group =>   1
Atom  96C    basis set group =>   1
Atom  97C    basis set group =>   1
Atom  98C    basis set group =>   1
Atom  99C    basis set group =>   1
Atom 100C    basis set group =>   1
Atom 101C    basis set group =>   1
Atom 102H    basis set group =>   6
Atom 103H    basis set group =>   6
Atom 104H    basis set group =>   6
Atom 105H    basis set group =>   6
Atom 106H    basis set group =>   6
Atom 107H    basis set group =>   6
Atom 108H    basis set group =>   6
Atom 109H    basis set group =>   6
Atom 110H    basis set group =>   6
Atom 111H    basis set group =>   6
Atom 112H    basis set group =>   6
Atom 113H    basis set group =>   6
Atom 114H    basis set group =>   6
Atom 115H    basis set group =>   6
Atom 116H    basis set group =>   6
Atom 117H    basis set group =>   6
Atom 118H    basis set group =>   6
Atom 119H    basis set group =>   6
Atom 120H    basis set group =>   6
Atom 121H    basis set group =>   6
Atom 122H    basis set group =>   6
Atom 123H    basis set group =>   6
Atom 124H    basis set group =>   6
Atom 125H    basis set group =>   6
Atom 126H    basis set group =>   6
Atom 127H    basis set group =>   6
Atom 128H    basis set group =>   6
Atom 129H    basis set group =>   6
Atom 130H    basis set group =>   6
Atom 131H    basis set group =>   6
Atom 132H    basis set group =>   6
Atom 133H    basis set group =>   6
Atom 134H    basis set group =>   6
Atom 135H    basis set group =>   6
Atom 136H    basis set group =>   6
Atom 137H    basis set group =>   6
Atom 138H    basis set group =>   6
Atom 139H    basis set group =>   6
Atom 140H    basis set group =>   6
Atom 141H    basis set group =>   6
Atom 142H    basis set group =>   6
Atom 143H    basis set group =>   6
Atom 144H    basis set group =>   6
Atom 145H    basis set group =>   6
Atom 146H    basis set group =>   6
Atom 147H    basis set group =>   6
Atom 148H    basis set group =>   6
Atom 149H    basis set group =>   6
Atom 150H    basis set group =>   6
Atom 151H    basis set group =>   6
Atom 152H    basis set group =>   6
Atom 153H    basis set group =>   6
Atom 154H    basis set group =>   6
Atom 155H    basis set group =>   6
Atom 156H    basis set group =>   6
Atom 157H    basis set group =>   6
Atom 158H    basis set group =>   6
Atom 159H    basis set group =>   6
---------------------------------
AUXILIARY/J BASIS SET INFORMATION
---------------------------------
There are 6 groups of distinct atoms

 Group   1 Type C   : 12s5p4d2f1g contracted to 6s4p3d1f1g pattern {711111/2111/211/2/1}
 Group   2 Type O   : 12s5p4d2f1g contracted to 6s4p3d1f1g pattern {711111/2111/211/2/1}
 Group   3 Type N   : 12s5p4d2f1g contracted to 6s4p3d1f1g pattern {711111/2111/211/2/1}
 Group   4 Type F   : 12s5p4d2f1g contracted to 6s4p3d1f1g pattern {711111/2111/211/2/1}
 Group   5 Type S   : 14s5p5d2f1g contracted to 8s4p3d1f1g pattern {71111111/2111/311/2/1}
 Group   6 Type H   : 5s2p1d contracted to 3s1p1d pattern {311/2/1}

Atom   0C    basis set group =>   1
Atom   1O    basis set group =>   2
Atom   2C    basis set group =>   1
Atom   3C    basis set group =>   1
Atom   4C    basis set group =>   1
Atom   5C    basis set group =>   1
Atom   6C    basis set group =>   1
Atom   7C    basis set group =>   1
Atom   8C    basis set group =>   1
Atom   9C    basis set group =>   1
Atom  10C    basis set group =>   1
Atom  11N    basis set group =>   3
Atom  12C    basis set group =>   1
Atom  13N    basis set group =>   3
Atom  14C    basis set group =>   1
Atom  15F    basis set group =>   4
Atom  16F    basis set group =>   4
Atom  17C    basis set group =>   1
Atom  18O    basis set group =>   2
Atom  19C    basis set group =>   1
Atom  20C    basis set group =>   1
Atom  21C    basis set group =>   1
Atom  22C    basis set group =>   1
Atom  23C    basis set group =>   1
Atom  24C    basis set group =>   1
Atom  25C    basis set group =>   1
Atom  26C    basis set group =>   1
Atom  27C    basis set group =>   1
Atom  28N    basis set group =>   3
Atom  29C    basis set group =>   1
Atom  30N    basis set group =>   3
Atom  31C    basis set group =>   1
Atom  32F    basis set group =>   4
Atom  33F    basis set group =>   4
Atom  34C    basis set group =>   1
Atom  35C    basis set group =>   1
Atom  36C    basis set group =>   1
Atom  37C    basis set group =>   1
Atom  38C    basis set group =>   1
Atom  39S    basis set group =>   5
Atom  40C    basis set group =>   1
Atom  41S    basis set group =>   5
Atom  42C    basis set group =>   1
Atom  43C    basis set group =>   1
Atom  44C    basis set group =>   1
Atom  45C    basis set group =>   1
Atom  46C    basis set group =>   1
Atom  47C    basis set group =>   1
Atom  48C    basis set group =>   1
Atom  49C    basis set group =>   1
Atom  50C    basis set group =>   1
Atom  51C    basis set group =>   1
Atom  52C    basis set group =>   1
Atom  53C    basis set group =>   1
Atom  54C    basis set group =>   1
Atom  55C    basis set group =>   1
Atom  56C    basis set group =>   1
Atom  57S    basis set group =>   5
Atom  58C    basis set group =>   1
Atom  59S    basis set group =>   5
Atom  60C    basis set group =>   1
Atom  61C    basis set group =>   1
Atom  62C    basis set group =>   1
Atom  63C    basis set group =>   1
Atom  64O    basis set group =>   2
Atom  65C    basis set group =>   1
Atom  66C    basis set group =>   1
Atom  67C    basis set group =>   1
Atom  68C    basis set group =>   1
Atom  69C    basis set group =>   1
Atom  70C    basis set group =>   1
Atom  71C    basis set group =>   1
Atom  72C    basis set group =>   1
Atom  73O    basis set group =>   2
Atom  74C    basis set group =>   1
Atom  75C    basis set group =>   1
Atom  76C    basis set group =>   1
Atom  77C    basis set group =>   1
Atom  78C    basis set group =>   1
Atom  79C    basis set group =>   1
Atom  80C    basis set group =>   1
Atom  81C    basis set group =>   1
Atom  82C    basis set group =>   1
Atom  83C    basis set group =>   1
Atom  84C    basis set group =>   1
Atom  85C    basis set group =>   1
Atom  86C    basis set group =>   1
Atom  87C    basis set group =>   1
Atom  88C    basis set group =>   1
Atom  89C    basis set group =>   1
Atom  90C    basis set group =>   1
Atom  91C    basis set group =>   1
Atom  92C    basis set group =>   1
Atom  93C    basis set group =>   1
Atom  94C    basis set group =>   1
Atom  95C    basis set group =>   1
Atom  96C    basis set group =>   1
Atom  97C    basis set group =>   1
Atom  98C    basis set group =>   1
Atom  99C    basis set group =>   1
Atom 100C    basis set group =>   1
Atom 101C    basis set group =>   1
Atom 102H    basis set group =>   6
Atom 103H    basis set group =>   6
Atom 104H    basis set group =>   6
Atom 105H    basis set group =>   6
Atom 106H    basis set group =>   6
Atom 107H    basis set group =>   6
Atom 108H    basis set group =>   6
Atom 109H    basis set group =>   6
Atom 110H    basis set group =>   6
Atom 111H    basis set group =>   6
Atom 112H    basis set group =>   6
Atom 113H    basis set group =>   6
Atom 114H    basis set group =>   6
Atom 115H    basis set group =>   6
Atom 116H    basis set group =>   6
Atom 117H    basis set group =>   6
Atom 118H    basis set group =>   6
Atom 119H    basis set group =>   6
Atom 120H    basis set group =>   6
Atom 121H    basis set group =>   6
Atom 122H    basis set group =>   6
Atom 123H    basis set group =>   6
Atom 124H    basis set group =>   6
Atom 125H    basis set group =>   6
Atom 126H    basis set group =>   6
Atom 127H    basis set group =>   6
Atom 128H    basis set group =>   6
Atom 129H    basis set group =>   6
Atom 130H    basis set group =>   6
Atom 131H    basis set group =>   6
Atom 132H    basis set group =>   6
Atom 133H    basis set group =>   6
Atom 134H    basis set group =>   6
Atom 135H    basis set group =>   6
Atom 136H    basis set group =>   6
Atom 137H    basis set group =>   6
Atom 138H    basis set group =>   6
Atom 139H    basis set group =>   6
Atom 140H    basis set group =>   6
Atom 141H    basis set group =>   6
Atom 142H    basis set group =>   6
Atom 143H    basis set group =>   6
Atom 144H    basis set group =>   6
Atom 145H    basis set group =>   6
Atom 146H    basis set group =>   6
Atom 147H    basis set group =>   6
Atom 148H    basis set group =>   6
Atom 149H    basis set group =>   6
Atom 150H    basis set group =>   6
Atom 151H    basis set group =>   6
Atom 152H    basis set group =>   6
Atom 153H    basis set group =>   6
Atom 154H    basis set group =>   6
Atom 155H    basis set group =>   6
Atom 156H    basis set group =>   6
Atom 157H    basis set group =>   6
Atom 158H    basis set group =>   6
Atom 159H    basis set group =>   6


           ************************************************************
           *        Program running with 6 parallel MPI-processes     *
           *              working on a common directory               *
           ************************************************************
------------------------------------------------------------------------------
                           ORCA GTO INTEGRAL CALCULATION
                           -- RI-GTO INTEGRALS CHOSEN --
------------------------------------------------------------------------------

                         BASIS SET STATISTICS AND STARTUP INFO

Gaussian basis set:
 # of primitive gaussian shells          ... 2416
 # of primitive gaussian functions       ... 5224
 # of contracted shells                  ... 1362
 # of contracted basis functions         ... 3534
 Highest angular momentum                ...    3
 Maximum contraction depth               ...    7
Auxiliary gaussian basis set:
 # of primitive gaussian shells          ... 2924
 # of primitive gaussian functions       ... 8096
 # of contracted shells                  ... 1828
 # of contracted aux-basis functions     ... 5644
 Highest angular momentum                ...    4
 Maximum contraction depth               ...    7
Ratio of auxiliary to basis functions    ...  1.60
Integral package used                  ... LIBINT
 One Electron integrals                  ... done
 Ordering auxiliary basis shells         ... done
 Integral threshhold             Thresh  ...  2.500e-11
 Primitive cut-off               TCut    ...  2.500e-12
 Pre-screening matrix                    ... done
 Shell pair data                         ... 
 Ordering of the shell pairs             ... done (   0.054 sec) 239905 of 928203 pairs
 Determination of significant pairs      ... done (   0.001 sec)
 Creation of shell pair data             ... done (   0.024 sec)
 Storage of shell pair data              ... done (   0.037 sec)
 Shell pair data done in (   0.116 sec)
 Computing two index integrals           ... done
 Cholesky decomposition of the V-matrix  ... done


Timings:
 Total evaluation time                   ...  13.723 sec (  0.229 min)
 One electron matrix time                ...   5.128 sec (  0.085 min) = 37.4%
 Schwartz matrix evaluation time         ...   6.478 sec (  0.108 min) = 47.2%
 Two index repulsion integral time       ...   0.738 sec (  0.012 min) =  5.4%
 Cholesky decomposition of V             ...   1.245 sec (  0.021 min) =  9.1%
 Three index repulsion integral time     ...   0.000 sec (  0.000 min) =  0.0%



           ************************************************************
           *        Program running with 6 parallel MPI-processes     *
           *              working on a common directory               *
           ************************************************************
-------------------------------------------------------------------------------
                                 ORCA SCF
-------------------------------------------------------------------------------

------------
SCF SETTINGS
------------
Hamiltonian:
 Density Functional     Method          .... DFT(GTOs)
 Exchange Functional    Exchange        .... B88
   X-Alpha parameter    XAlpha          ....  0.666667
   Becke's b parameter  XBeta           ....  0.004200
 Correlation Functional Correlation     .... LYP
 LDA part of GGA corr.  LDAOpt          .... VWN-5
 Gradients option       PostSCFGGA      .... off
 Hybrid DFT is turned on
   Fraction HF Exchange ScalHFX         ....  0.200000
   Scaling of DF-GGA-X  ScalDFX         ....  0.720000
   Scaling of DF-GGA-C  ScalDFC         ....  0.810000
   Scaling of DF-LDA-C  ScalLDAC        ....  1.000000
   Perturbative correction              ....  0.000000
   Density functional embedding theory  .... OFF
   NL short-range parameter             ....  4.800000
 RI-approximation to the Coulomb term is turned on
   Number of auxiliary basis functions  .... 5644
   RIJ-COSX (HFX calculated with COS-X)).... on


General Settings:
 Integral files         IntName         .... p-IO2
 Hartree-Fock type      HFTyp           .... RHF
 Total Charge           Charge          ....    0
 Multiplicity           Mult            ....    1
 Number of Electrons    NEL             ....  734
 Basis Dimension        Dim             .... 3534
 Nuclear Repulsion      ENuc            ....  18161.7110924944 Eh

Convergence Acceleration:
 DIIS                   CNVDIIS         .... on
   Start iteration      DIISMaxIt       ....    12
   Startup error        DIISStart       ....  0.200000
   # of expansion vecs  DIISMaxEq       ....     5
   Bias factor          DIISBfac        ....   1.050
   Max. coefficient     DIISMaxC        ....  10.000
 Newton-Raphson         CNVNR           .... off
 SOSCF                  CNVSOSCF        .... on
   Start iteration      SOSCFMaxIt      ....   150
   Startup grad/error   SOSCFStart      ....  0.003300
 Level Shifting         CNVShift        .... on
   Level shift para.    LevelShift      ....    0.2500
   Turn off err/grad.   ShiftErr        ....    0.0010
 Zerner damping         CNVZerner       .... off
 Static damping         CNVDamp         .... on
   Fraction old density DampFac         ....    0.7000
   Max. Damping (<1)    DampMax         ....    0.9800
   Min. Damping (>=0)   DampMin         ....    0.0000
   Turn off err/grad.   DampErr         ....    0.1000
 Fernandez-Rico         CNVRico         .... off

SCF Procedure:
 Maximum # iterations   MaxIter         ....   125
 SCF integral mode      SCFMode         .... Direct
   Integral package                     .... LIBINT
 Reset frequency        DirectResetFreq ....    20
 Integral Threshold     Thresh          ....  2.500e-11 Eh
 Primitive CutOff       TCut            ....  2.500e-12 Eh

Convergence Tolerance:
 Convergence Check Mode ConvCheckMode   .... Total+1el-Energy
 Convergence forced     ConvForced      .... 1
 Energy Change          TolE            ....  1.000e-08 Eh
 1-El. energy change                    ....  1.000e-05 Eh
 Orbital Gradient       TolG            ....  1.000e-05
 Orbital Rotation angle TolX            ....  1.000e-05
 DIIS Error             TolErr          ....  5.000e-07


Diagonalization of the overlap matrix:
Smallest eigenvalue                        ... 2.686e-06
Time for diagonalization                   ...    2.321 sec
Threshold for overlap eigenvalues          ... 1.000e-08
Number of eigenvalues below threshold      ... 0
Time for construction of square roots      ...    1.647 sec
Total time needed                          ...    3.994 sec

-------------------
DFT GRID GENERATION
-------------------

General Integration Accuracy     IntAcc      ...  4.670
Radial Grid Type                 RadialGrid  ... Gauss-Chebyshev
Angular Grid (max. acc.)         AngularGrid ... Lebedev-302
Angular grid pruning method      GridPruning ... 3 (G Style)
Weight generation scheme         WeightScheme... Becke
Basis function cutoff            BFCut       ...    1.0000e-11
Integration weight cutoff        WCut        ...    1.0000e-14
Grids for H and He will be reduced by one unit

# of grid points (after initial pruning)     ... 833252 (   0.1 sec)
# of grid points (after weights+screening)   ... 701294 (  15.6 sec)
nearest neighbour list constructed           ...    0.0 sec
Grid point re-assignment to atoms done       ...    0.1 sec
Grid point division into batches done        ...    2.3 sec
Reduced shell lists constructed in    4.8 sec

Total number of grid points                  ...   701294
Total number of batches                      ...    11041
Average number of points per batch           ...       63
Average number of grid points per atom       ...     4383
Average number of shells per batch           ...   132.26 ( 9.71%)
Average number of basis functions per batch  ...   346.74 ( 9.81%)
Average number of large shells per batch     ...    85.14 (64.38%)
Average number of large basis fcns per batch ...   227.16 (65.51%)
Maximum spatial batch extension              ...  14.31, 22.73, 17.82 au
Average spatial batch extension              ...   0.35,  0.40,  0.35 au

Time for grid setup =   21.851 sec

------------------------------
INITIAL GUESS: MODEL POTENTIAL
------------------------------
Loading Hartree-Fock densities                     ... done
Calculating cut-offs                               ... done
Setting up the integral package                    ... done
Initializing the effective Hamiltonian             ... done
Starting the Coulomb interaction                   ... done (  10.5 sec)
Reading the grid                                   ... done
Mapping shells                                     ... done
Starting the XC term evaluation                    ... done (   6.5 sec)
  promolecular density results
     # of electrons  =    733.970045294
     EX              =   -658.763307275
     EC              =    -25.623751629
     EX+EC           =   -684.387058904
Transforming the Hamiltonian                       ... done (   1.3 sec)
Diagonalizing the Hamiltonian                      ... done (   2.4 sec)
Back transforming the eigenvectors                 ... done (   0.6 sec)
Now organizing SCF variables                       ... done
                      ------------------
                      INITIAL GUESS DONE (  43.8 sec)
                      ------------------
--------------------
COSX GRID GENERATION
--------------------

General Integration Accuracy     IntAcc      ...  3.340
Radial Grid Type                 RadialGrid  ... Gauss-Chebyshev
Angular Grid (max. acc.)         AngularGrid ... Lebedev-50
Angular grid pruning method      GridPruning ... 3 (G Style)
Weight generation scheme         WeightScheme... Becke
Basis function cutoff            BFCut       ...    1.0000e-11
Integration weight cutoff        WCut        ...    1.0000e-14
Grids for H and He will be reduced by one unit

# of grid points (after initial pruning)     ...  78168 (   0.0 sec)
# of grid points (after weights+screening)   ...  69063 (   1.5 sec)
nearest neighbour list constructed           ...    0.0 sec
Grid point re-assignment to atoms done       ...    0.0 sec
Grid point division into batches done        ...    0.0 sec
Reduced shell lists constructed in    0.4 sec

Total number of grid points                  ...    69063
Total number of batches                      ...     1167
Average number of points per batch           ...       59
Average number of grid points per atom       ...      432
Average number of shells per batch           ...   160.55 (11.79%)
Average number of basis functions per batch  ...   424.82 (12.02%)
Average number of large shells per batch     ...   104.41 (65.03%)
Average number of large basis fcns per batch ...   283.12 (66.65%)
Maximum spatial batch extension              ...  16.67, 26.51, 16.24 au
Average spatial batch extension              ...   0.70,  1.01,  0.71 au

Overlap Fitting                  UseSFitting ... on
Constructing numerical overlap ... done (      0.6 sec)
Inverting numerical overlap    ... done (      0.6 sec)
Obtaining analytic overlap     ... done (      0.0 sec)
Final contraction and storage  ... done (      1.2 sec)


[...]
   351a -> 367a  :     0.027042 (c= -0.16444433)
   351a -> 368a  :     0.013830 (c= -0.11760256)
   352a -> 367a  :     0.014007 (c= -0.11835087)
   353a -> 368a  :     0.063418 (c=  0.25182893)
   355a -> 368a  :     0.016197 (c= -0.12726682)
   356a -> 368a  :     0.016631 (c=  0.12896109)
   357a -> 368a  :     0.021314 (c= -0.14599403)
   360a -> 369a  :     0.017369 (c= -0.13179289)
   362a -> 370a  :     0.505524 (c= -0.71100217)
   363a -> 370a  :     0.110283 (c= -0.33208842)
   365a -> 371a  :     0.010865 (c= -0.10423585)
   366a -> 373a  :     0.032515 (c=  0.18031802)
   366a -> 374a  :     0.032148 (c=  0.17929952)

STATE 46:  E=   0.129884 au      3.534 eV    28506.2 cm**-1
   350a -> 367a  :     0.026665 (c=  0.16329449)
   352a -> 367a  :     0.072059 (c= -0.26843776)
   353a -> 367a  :     0.012219 (c=  0.11054050)
   353a -> 368a  :     0.490922 (c=  0.70065816)
   354a -> 368a  :     0.100461 (c=  0.31695626)
   356a -> 368a  :     0.046037 (c=  0.21456307)
   357a -> 368a  :     0.011479 (c= -0.10713938)
   362a -> 370a  :     0.039528 (c=  0.19881594)
   363a -> 370a  :     0.023977 (c=  0.15484389)
   365a -> 371a  :     0.017836 (c= -0.13355157)
   366a -> 373a  :     0.038092 (c= -0.19517179)
   366a -> 374a  :     0.054842 (c= -0.23418374)

STATE 47:  E=   0.130182 au      3.542 eV    28571.6 cm**-1
   346a -> 367a  :     0.040637 (c= -0.20158667)
   348a -> 367a  :     0.010234 (c=  0.10116285)
   349a -> 367a  :     0.047963 (c= -0.21900481)
   349a -> 368a  :     0.013615 (c= -0.11668336)
   351a -> 367a  :     0.054630 (c= -0.23372973)
   351a -> 368a  :     0.027619 (c= -0.16618999)
   352a -> 367a  :     0.012153 (c= -0.11024014)
   355a -> 368a  :     0.011184 (c= -0.10575417)
   357a -> 368a  :     0.014074 (c= -0.11863181)
   362a -> 370a  :     0.161720 (c=  0.40214394)
   363a -> 370a  :     0.123461 (c=  0.35136984)
   364a -> 371a  :     0.017882 (c=  0.13372258)
   365a -> 371a  :     0.011119 (c= -0.10544879)
   366a -> 373a  :     0.204767 (c=  0.45251168)
   366a -> 374a  :     0.145822 (c=  0.38186677)

STATE 48:  E=   0.130854 au      3.561 eV    28719.1 cm**-1
   346a -> 367a  :     0.011785 (c=  0.10856052)
   346a -> 368a  :     0.018385 (c= -0.13559249)
   348a -> 367a  :     0.057674 (c=  0.24015492)
   349a -> 367a  :     0.210989 (c= -0.45933568)
   350a -> 367a  :     0.172428 (c= -0.41524460)
   350a -> 368a  :     0.058124 (c=  0.24108915)
   351a -> 368a  :     0.181156 (c= -0.42562402)
   352a -> 368a  :     0.028273 (c=  0.16814567)
   354a -> 368a  :     0.029859 (c= -0.17279619)
   355a -> 368a  :     0.013796 (c=  0.11745812)
   356a -> 368a  :     0.020136 (c=  0.14190154)
   365a -> 371a  :     0.017702 (c= -0.13304976)
   366a -> 373a  :     0.057612 (c= -0.24002559)
   366a -> 374a  :     0.014642 (c= -0.12100280)

STATE 49:  E=   0.131057 au      3.566 eV    28763.6 cm**-1
   348a -> 370a  :     0.019057 (c=  0.13804598)
   349a -> 367a  :     0.024449 (c=  0.15636279)
   355a -> 367a  :     0.088777 (c=  0.29795443)
   355a -> 368a  :     0.468597 (c=  0.68454123)
   355a -> 370a  :     0.016773 (c= -0.12951206)
   356a -> 368a  :     0.074996 (c=  0.27385364)
   356a -> 370a  :     0.010714 (c= -0.10350723)
   358a -> 368a  :     0.024835 (c= -0.15759196)
   360a -> 369a  :     0.015268 (c=  0.12356301)
   360a -> 370a  :     0.020664 (c= -0.14374949)
   363a -> 370a  :     0.061065 (c= -0.24711276)
   364a -> 370a  :     0.010364 (c=  0.10180195)
   366a -> 373a  :     0.018458 (c=  0.13586198)
   366a -> 374a  :     0.026892 (c=  0.16398634)

STATE 50:  E=   0.132235 au      3.598 eV    29022.2 cm**-1
   349a -> 367a  :     0.016593 (c=  0.12881258)
   352a -> 368a  :     0.017698 (c=  0.13303553)
   352a -> 369a  :     0.016448 (c=  0.12825024)
   357a -> 369a  :     0.129794 (c=  0.36026904)
   358a -> 369a  :     0.017138 (c= -0.13091071)
   359a -> 369a  :     0.067306 (c=  0.25943338)
   360a -> 369a  :     0.544453 (c= -0.73787059)
   361a -> 369a  :     0.025277 (c= -0.15898824)
   362a -> 369a  :     0.019997 (c=  0.14141198)
   363a -> 369a  :     0.010220 (c= -0.10109178)
   365a -> 371a  :     0.015002 (c=  0.12248421)
   366a -> 373a  :     0.031703 (c= -0.17805374)


-----------------------------
TD-DFT/TDA-EXCITATION SPECTRA
-----------------------------

Center of mass = ( 21.1529, -5.8513, -6.4449)
Calculating the Dipole integrals                  ... done
Transforming integrals                            ... done
Calculating the Linear Momentum integrals         ... done
Transforming integrals                            ... done
Calculating angular momentum integrals            ... done
Transforming integrals                            ... done

-----------------------------------------------------------------------------
         ABSORPTION SPECTRUM VIA TRANSITION ELECTRIC DIPOLE MOMENTS
-----------------------------------------------------------------------------
State   Energy    Wavelength  fosc         T2        TX        TY        TZ  
        (cm-1)      (nm)                 (au**2)    (au)      (au)      (au) 
-----------------------------------------------------------------------------
   1   13303.2    751.7   2.374471315  58.76054   7.07851   0.76308  -2.84130
   2   14723.0    679.2   0.058217372   1.30177   0.33566  -0.98987   0.45745
   3   17330.3    577.0   0.239286585   4.54555  -2.09926  -0.08241   0.36312
   4   17745.3    563.5   0.227275742   4.21644   1.84927   0.61429  -0.64753
   5   19063.5    524.6   0.512035106   8.84246   2.78790  -0.00015  -1.03443
   6   19577.1    510.8   0.291972105   4.90986  -0.17861   1.93380  -1.06694
   7   21069.3    474.6   0.188595717   2.94685   1.45831   0.19296  -0.88484
   8   22024.9    454.0   0.040588278   0.60668   0.64607   0.31884  -0.29601
   9   22048.9    453.5   0.006936304   0.10357  -0.20932   0.17112   0.17456
  10   22409.1    446.2   0.107606003   1.58084   0.99142   0.51794  -0.57415
  11   22491.8    444.6   0.104402492   1.52814   0.95208   0.61733  -0.49049
  12   22860.2    437.4   0.217722398   3.13544   1.69720  -0.47742  -0.16438
  13   23485.0    425.8   0.007580167   0.10626  -0.08985   0.31311   0.01220
  14   23561.4    424.4   0.030655202   0.42833  -0.18503  -0.41231   0.47339
  15   23734.7    421.3   0.001878203   0.02605   0.03287  -0.07706   0.13796
  16   23889.2    418.6   0.002301949   0.03172  -0.01980  -0.16279  -0.06949
  17   24807.9    403.1   0.031153963   0.41343   0.62200  -0.14394  -0.07629
  18   24863.4    402.2   0.019464750   0.25773   0.38122  -0.04568  -0.33213
  19   25045.3    399.3   0.009826575   0.12917   0.23393  -0.04894  -0.26842
  20   25669.8    389.6   0.012019748   0.15415  -0.04343  -0.34284   0.18635
  21   25893.5    386.2   0.047041707   0.59809  -0.48416   0.35660  -0.48633
  22   26051.2    383.9   0.000377625   0.00477   0.01614  -0.05145  -0.04318
  23   26134.3    382.6   0.017470150   0.22007  -0.08269   0.37289  -0.27236
  24   26240.4    381.1   0.002906700   0.03647   0.00168   0.19057  -0.01218
  25   26398.2    378.8   0.012081970   0.15067  -0.31109  -0.20930  -0.10046
  26   26656.1    375.1   0.017446814   0.21547  -0.25458   0.11273  -0.37143
  27   26820.0    372.9   0.010048337   0.12334  -0.30144  -0.11051  -0.14236
  28   26966.7    370.8   0.005184799   0.06330   0.08234  -0.23455   0.03876
  29   27074.6    369.3   0.014722686   0.17902  -0.41196  -0.00880   0.09610
  30   27139.3    368.5   0.006556301   0.07953   0.26996   0.08117  -0.00805
  31   27173.8    368.0   0.007780986   0.09427   0.29076   0.09837   0.00716
  32   27242.0    367.1   0.005804528   0.07015  -0.18015  -0.05444   0.18635
  33   27343.5    365.7   0.009577830   0.11532  -0.24580   0.23302   0.02447
  34   27384.1    365.2   0.003431674   0.04126   0.05456   0.14308   0.13344
  35   27505.0    363.6   0.007372983   0.08825  -0.28792  -0.07244   0.01015
  36   27640.3    361.8   0.012291529   0.14640  -0.24126  -0.29634  -0.01931
  37   27774.4    360.0   0.022736514   0.26950  -0.49999  -0.06561  -0.12332
  38   27812.5    359.6   0.002818337   0.03336  -0.17529   0.03967  -0.03257
  39   27892.8    358.5   0.008390365   0.09903   0.00275   0.10319  -0.29728
  40   28086.4    356.0   0.053362980   0.62549  -0.75286  -0.22113  -0.09898
  41   28175.1    354.9   0.011397809   0.13318  -0.27472  -0.04004  -0.23686
  42   28240.6    354.1   0.004052894   0.04725  -0.11091   0.03070  -0.18440
  43   28294.9    353.4   0.012140952   0.14126  -0.33840   0.09192   0.13526
  44   28434.6    351.7   0.004590889   0.05315  -0.17376   0.05675   0.14050
  45   28491.1    351.0   0.000192881   0.00223  -0.03179  -0.01381  -0.03205
  46   28506.2    350.8   0.006427311   0.07423  -0.18665   0.04945   0.19221
  47   28571.6    350.0   0.003682055   0.04243  -0.05963  -0.02515  -0.19554
  48   28719.1    348.2   0.008436208   0.09671   0.12677  -0.02517   0.28284
  49   28763.6    347.7   0.032642988   0.37361   0.55466  -0.03312   0.25470
  50   29022.2    344.6   0.007656548   0.08685  -0.16816  -0.13365   0.20177

-----------------------------------------------------------------------------
         ABSORPTION SPECTRUM VIA TRANSITION VELOCITY DIPOLE MOMENTS
-----------------------------------------------------------------------------
State   Energy    Wavelength   fosc        P2         PX        PY        PZ  
        (cm-1)      (nm)                 (au**2)     (au)      (au)      (au) 
-----------------------------------------------------------------------------
   1   13303.2    751.7   0.660443478   0.06005  -0.23492  -0.02875   0.06352
   2   14723.0    679.2   0.000296314   0.00003   0.00381   0.00330   0.00210
   3   17330.3    577.0   0.091682921   0.01086   0.08061   0.01253  -0.06484
   4   17745.3    563.5   0.137935513   0.01673  -0.09428  -0.01278   0.08762
   5   19063.5    524.6   0.231792551   0.03020  -0.17206  -0.02227   0.00993
   6   19577.1    510.8   0.034710059   0.00464  -0.00856  -0.06237   0.02610
   7   21069.3    474.6   0.073880554   0.01064  -0.10088  -0.01732   0.01275
   8   22024.9    454.0   0.012384387   0.00186  -0.03694  -0.01958   0.01078
   9   22048.9    453.5   0.002866007   0.00043   0.01120  -0.01575   0.00765
  10   22409.1    446.2   0.033090659   0.00507  -0.05233  -0.02723   0.03985
  11   22491.8    444.6   0.061236011   0.00941  -0.06404  -0.03318   0.06490
  12   22860.2    437.4   0.098180772   0.01534  -0.11980   0.01804   0.02571
  13   23485.0    425.8   0.011100550   0.00178   0.00063  -0.01853   0.03792
  14   23561.4    424.4   0.011487160   0.00185  -0.00445   0.02237  -0.03647
  15   23734.7    421.3   0.000349836   0.00006  -0.00718  -0.00199  -0.00108
  16   23889.2    418.6   0.001387601   0.00023   0.00633   0.00636  -0.01208
  17   24807.9    403.1   0.050800738   0.00861  -0.06047  -0.00626   0.07013
  18   24863.4    402.2   0.022293669   0.00379  -0.02946   0.01466   0.05201
  19   25045.3    399.3   0.025868212   0.00443  -0.06399   0.00563  -0.01735
  20   25669.8    389.6   0.007342932   0.00129   0.03138   0.01502   0.00882
  21   25893.5    386.2   0.004527459   0.00080   0.01485  -0.01429  -0.01940
  22   26051.2    383.9   0.001945795   0.00035  -0.00673  -0.01205   0.01249
  23   26134.3    382.6   0.005731431   0.00102  -0.02436  -0.02013  -0.00503
  24   26240.4    381.1   0.001999340   0.00036   0.00204  -0.01015   0.01586
  25   26398.2    378.8   0.003312871   0.00060  -0.00374  -0.01547  -0.01856
  26   26656.1    375.1   0.010757144   0.00196  -0.02823  -0.03391  -0.00362
  27   26820.0    372.9   0.000309279   0.00006   0.00555  -0.00104  -0.00498
  28   26966.7    370.8   0.004767473   0.00088  -0.02884   0.00660   0.00179
  29   27074.6    369.3   0.024415863   0.00452   0.06273   0.02158   0.01080
  30   27139.3    368.5   0.000812640   0.00015  -0.00914  -0.00643  -0.00509
  31   27173.8    368.0   0.001806441   0.00034  -0.01745  -0.00476  -0.00289
  32   27242.0    367.1   0.011248947   0.00209   0.04066   0.02015   0.00592
  33   27343.5    365.7   0.003645559   0.00068   0.02064  -0.01364   0.00833
  34   27384.1    365.2   0.001238935   0.00023   0.01280  -0.00157   0.00809
  35   27505.0    363.6   0.013847312   0.00260   0.04182   0.02302   0.01801
  36   27640.3    361.8   0.007136387   0.00135   0.01897   0.02239  -0.02207
  37   27774.4    360.0   0.003126969   0.00059   0.02157  -0.00710  -0.00884
  38   27812.5    359.6   0.000187863   0.00004   0.00053  -0.00551  -0.00226
  39   27892.8    358.5   0.003304999   0.00063  -0.01326  -0.02096  -0.00388
  40   28086.4    356.0   0.010611588   0.00204   0.04087   0.01908  -0.00158
  41   28175.1    354.9   0.023289531   0.00448   0.00519  -0.02247  -0.06287
  42   28240.6    354.1   0.004048577   0.00078  -0.00037  -0.01036   0.02596
  43   28294.9    353.4   0.011350842   0.00220   0.04657   0.00501   0.00094
  44   28434.6    351.7   0.003485450   0.00068   0.02514   0.00086  -0.00666
  45   28491.1    351.0   0.001942869   0.00038  -0.00727  -0.00592  -0.01704
  46   28506.2    350.8   0.005897828   0.00115   0.03359   0.00382  -0.00247
  47   28571.6    350.0   0.005268294   0.00103  -0.02645  -0.01100  -0.01442
  48   28719.1    348.2   0.004573249   0.00090   0.01900   0.00705   0.02207
  49   28763.6    347.7   0.007513005   0.00148  -0.03432   0.01594   0.00674
  50   29022.2    344.6   0.011175709   0.00222   0.04538   0.01214   0.00313

-------------------------------------------------------------------
                             CD SPECTRUM
-------------------------------------------------------------------
State  Energy     Wavelength     R         MX        MY        MZ   
       (cm-1)       (nm)     (1e40*cgs)   (au)      (au)      (au)  
-------------------------------------------------------------------
   1   13303.2    751.7    -69.95209  -0.13905   0.16575  -0.24968
   2   14723.0    679.2    184.39039   0.08477  -0.37464  -0.01789
   3   17330.3    577.0     56.57869  -0.02317   0.29129   0.26263
   4   17745.3    563.5    112.46364  -0.12933   0.59689  -0.17151
   5   19063.5    524.6     75.96156  -0.04208  -0.16656  -0.26915
   6   19577.1    510.8    224.74318  -0.15075   0.18567  -0.08503
   7   21069.3    474.6     63.76418  -0.03813  -0.20584  -0.26059
   8   22024.9    454.0    -23.44390   0.02039  -0.34267  -0.15662
   9   22048.9    453.5      3.75735   0.02055   0.09455  -0.02239
  10   22409.1    446.2    -22.47219  -0.07211  -0.17012  -0.19497
  11   22491.8    444.6     21.88647  -0.07554   0.04409  -0.18579
  12   22860.2    437.4      7.24656  -0.01057   0.00044  -0.20396
  13   23485.0    425.8     17.84380   0.00116   0.12093   0.00728
  14   23561.4    424.4    -26.22383   0.09488   0.11178   0.01694
  15   23734.7    421.3     -2.92401   0.02953   0.04834  -0.02499
  16   23889.2    418.6      4.15291  -0.01364  -0.05931   0.01606
  17   24807.9    403.1    -44.44236  -0.06410   0.31919   0.11077
  18   24863.4    402.2    -29.03119  -0.10137   0.16990   0.04568
  19   25045.3    399.3    -25.87146  -0.07258   0.34200   0.07883
  20   25669.8    389.6     29.33201   0.06248  -0.14931   0.07374
  21   25893.5    386.2     20.41045  -0.06825   0.00988  -0.01383
  22   26051.2    383.9      6.74566   0.02022  -0.17469  -0.11566
  23   26134.3    382.6     53.81274  -0.09632   0.23143  -0.07299
  24   26240.4    381.1     17.62231  -0.07221   0.17672  -0.31386
  25   26398.2    378.8      7.97983  -0.00283  -0.05634  -0.04236
  26   26656.1    375.1    -18.37311   0.03432  -0.15411   0.03463
  27   26820.0    372.9      0.56364   0.00147   0.01965  -0.02675
  28   26966.7    370.8      8.73340   0.05610  -0.06774  -0.05117
  29   27074.6    369.3     10.83549  -0.02881  -0.07756   0.10858
  30   27139.3    368.5      0.51065  -0.00259   0.00794  -0.14146
  31   27173.8    368.0      2.70904   0.02901  -0.01624  -0.15220
  32   27242.0    367.1      9.34409  -0.01565  -0.01239   0.08760
  33   27343.5    365.7     16.67947  -0.04237   0.09236   0.14069
  34   27384.1    365.2      2.57200  -0.00153   0.04363  -0.00527
  35   27505.0    363.6      7.66350  -0.06260   0.04283   0.13148
  36   27640.3    361.8     -5.79996   0.02083   0.02286   0.02600
  37   27774.4    360.0    -14.08495   0.05580  -0.05921   0.04755
  38   27812.5    359.6      0.08630   0.05067   0.11972  -0.13254
  39   27892.8    358.5      7.53060   0.08394  -0.11439  -0.09266
  40   28086.4    356.0     -9.80316  -0.02050   0.08574   0.17446
  41   28175.1    354.9     -0.36444   0.01757   0.07777  -0.03026
  42   28240.6    354.1     -0.63903   0.02281  -0.07027  -0.01807
  43   28294.9    353.4      0.76781   0.04166  -0.05615   0.15442
  44   28434.6    351.7      8.70228   0.00103   0.10609   0.08980
  45   28491.1    351.0     -0.88325   0.01416   0.10763  -0.00197
  46   28506.2    350.8     14.12903  -0.00229   0.10824   0.12586
  47   28571.6    350.0     -0.41498   0.01586   0.16175  -0.02113
  48   28719.1    348.2    -15.55321  -0.11355   0.39118  -0.03093
  49   28763.6    347.7    -17.98959  -0.03000   0.08411  -0.07355
  50   29022.2    344.6     13.82308  -0.01237  -0.15333   0.03344

Total run time:    70664.039 sec

           *** ORCA-CIS/TD-DFT FINISHED WITHOUT ERROR ***

-----------------------
CIS/TD-DFT TOTAL ENERGY
-----------------------

    E(SCF)  =  -5822.927925569 Eh
    DE(CIS) =      0.060613925 Eh (Root  1)
    ----------------------------- ---------
    E(tot)  =  -5822.867311644 Eh


-------------------------   --------------------
FINAL SINGLE POINT ENERGY     -5822.867311643764
-------------------------   --------------------


                            ***************************************
                            *     ORCA property calculations      *
                            ***************************************

                                    ---------------------
                                    Active property flags
                                    ---------------------
   (+) Dipole Moment


------------------------------------------------------------------------------
                       ORCA ELECTRIC PROPERTIES CALCULATION
------------------------------------------------------------------------------

Dipole Moment Calculation                       ... on
Quadrupole Moment Calculation                   ... off
Polarizability Calculation                      ... off
GBWName                                         ... p-IO2.gbw
Electron density file                           ... p-IO2.scfp
The origin for moment calculation is the CENTER OF MASS  = (21.152930, -5.851316 -6.444949)

-------------
DIPOLE MOMENT
-------------
                                X             Y             Z
Electronic contribution:     36.61936     -85.87135      66.70402
Nuclear contribution   :    -37.66095      88.83462     -69.22294
                        -----------------------------------------
Total Dipole Moment    :     -1.04159       2.96328      -2.51891
                        -----------------------------------------
Magnitude (a.u.)       :      4.02627
Magnitude (Debye)      :     10.23396



--------------------
Rotational spectrum 
--------------------
 
Rotational constants in cm-1:     0.000840     0.000143     0.000137 
Rotational constants in MHz :    25.176532     4.278406     4.098192 

 Dipole components along the rotational axes: 
x,y,z [a.u.] :     0.197003    -3.770484     1.398387 
x,y,z [Debye]:     0.500741    -9.583808     3.554416 

 

Timings for individual modules:

Sum of individual times         ...    76168.571 sec (=1269.476 min)
GTO integral calculation        ...       14.814 sec (=   0.247 min)   0.0 %
SCF iterations                  ...     5487.288 sec (=  91.455 min)   7.2 %
CIS module                      ...    70666.469 sec (=1177.774 min)  92.8 %
                             ****ORCA TERMINATED NORMALLY****
TOTAL RUN TIME: 0 days 21 hours 9 minutes 33 seconds 31 msec
