
                                 *****************
                                 * O   R   C   A *
                                 *****************

           --- An Ab Initio, DFT and Semiempirical electronic structure package ---

                  #######################################################
                  #                        -***-                        #
                  #          Department of theory and spectroscopy      #
                  #               Directorship: Frank Neese             #
                  #        Max Planck Institute fuer Kohlenforschung    #
                  #                Kaiser Wilhelm Platz 1               #
                  #                 D-45470 Muelheim/Ruhr               #
                  #                      Germany                        #
                  #                                                     #
                  #                  All rights reserved                #
                  #                        -***-                        #
                  #######################################################


                         Program Version 4.2.0 -  RELEASE  -


 With contributions from (in alphabetic order):
   Daniel Aravena         : Magnetic Suceptibility
   Michael Atanasov       : Ab Initio Ligand Field Theory (pilot matlab implementation)
   Alexander A. Auer      : GIAO ZORA, VPT2
   Ute Becker             : Parallelization
   Giovanni Bistoni       : ED, misc. LED, open-shell LED, HFLED
   Martin Brehm           : Molecular dynamics
   Dmytro Bykov           : SCF Hessian
   Vijay G. Chilkuri      : MRCI spin determinant printing, contributions to CSF-ICE
   Dipayan Datta          : RHF DLPNO-CCSD density
   Achintya Kumar Dutta   : EOM-CC, STEOM-CC
   Dmitry Ganyushin       : Spin-Orbit,Spin-Spin,Magnetic field MRCI
   Miquel Garcia          : C-PCM Hessian, Gaussian charge scheme
   Yang Guo               : DLPNO-NEVPT2, CIM, IAO-localization
   Andreas Hansen         : Spin unrestricted coupled pair/coupled cluster methods
   Benjamin Helmich-Paris : CASSCF linear response (MC-RPA)
   Lee Huntington         : MR-EOM, pCC
   Robert Izsak           : Overlap fitted RIJCOSX, COSX-SCS-MP3, EOM
   Christian Kollmar      : KDIIS, OOCD, Brueckner-CCSD(T), CCSD density
   Simone Kossmann        : Meta GGA functionals, TD-DFT gradient, OOMP2, MP2 Hessian
   Martin Krupicka        : AUTO-CI
   Lucas Lang             : DCDCAS
   Dagmar Lenk            : GEPOL surface, SMD
   Dimitrios Liakos       : Extrapolation schemes; Compound Job, initial MDCI parallelization
   Dimitrios Manganas     : Further ROCIS development; embedding schemes
   Dimitrios Pantazis     : SARC Basis sets
   Taras Petrenko         : DFT Hessian,TD-DFT gradient, ASA, ECA, R-Raman, ABS, FL, XAS/XES, NRVS
   Peter Pinski           : DLPNO-MP2, DLPNO-MP2 Gradient
   Christoph Reimann      : Effective Core Potentials
   Marius Retegan         : Local ZFS, SOC
   Christoph Riplinger    : Optimizer, TS searches, QM/MM, DLPNO-CCSD(T), (RO)-DLPNO pert. Triples
   Tobias Risthaus        : Range-separated hybrids, TD-DFT gradient, RPA, STAB
   Michael Roemelt        : Original ROCIS implementation
   Masaaki Saitow         : Open-shell DLPNO-CCSD energy and density
   Barbara Sandhoefer     : DKH picture change effects
   Avijit Sen             : IP-ROCIS
   Kantharuban Sivalingam : CASSCF convergence, NEVPT2, FIC-MRCI
   Bernardo de Souza      : ESD, SOC TD-DFT
   Georgi Stoychev        : AutoAux, RI-MP2 NMR
   Willem Van den Heuvel  : Paramagnetic NMR
   Boris Wezisla          : Elementary symmetry handling
   Frank Wennmohs         : Technical directorship


 We gratefully acknowledge several colleagues who have allowed us to
 interface, adapt or use parts of their codes:
   Stefan Grimme, W. Hujo, H. Kruse,             : VdW corrections, initial TS optimization,
                  C. Bannwarth                     DFT functionals, gCP, sTDA/sTD-DF
   Ed Valeev, F. Pavosevic, A. Kumar             : LibInt (2-el integral package), F12 methods
   Garnet Chan, S. Sharma, J. Yang, R. Olivares  : DMRG
   Ulf Ekstrom                                   : XCFun DFT Library
   Mihaly Kallay                                 : mrcc  (arbitrary order and MRCC methods)
   Andreas Klamt, Michael Diedenhofen            : otool_cosmo (COSMO solvation model)
   Jiri Pittner, Ondrej Demel                    : Mk-CCSD
   Frank Weinhold                                : gennbo (NPA and NBO analysis)
   Christopher J. Cramer and Donald G. Truhlar   : smd solvation model
   Lars Goerigk                                  : TD-DFT with DH, B97 family of functionals
   V. Asgeirsson, H. Jonsson                     : NEB implementation
   FAccTs GmbH                                   : IRC, NEB, NEB-TS, Multilevel, MM, QM/MM, CI optimization
   S Lehtola, MJT Oliveira, MAL Marques          : LibXC Library


 Your calculation uses the libint2 library for the computation of 2-el integrals
 For citations please refer to: http://libint.valeyev.net

 Your ORCA version has been built with support for libXC version: 4.2.3
 For citations please refer to: https://tddft.org/programs/libxc/

 This ORCA versions uses:
   CBLAS   interface :  Fast vector & matrix operations
   LAPACKE interface :  Fast linear algebra routines
   SCALAPACK package :  Parallel linear algebra routines


----- Orbital basis set information -----
Your calculation utilizes the basis: def2-TZVP
   F. Weigend and R. Ahlrichs, Phys. Chem. Chem. Phys. 7, 3297 (2005).

----- AuxJ basis set information -----
Your calculation utilizes the auxiliary basis: def2/J
   F. Weigend, Phys. Chem. Chem. Phys. 8, 1057 (2006).

================================================================================
                                        WARNINGS
                       Please study these warnings very carefully!
================================================================================

INFO   : Checking CIS options ...

WARNING: CIS/ROCIS methods need fully converged wavefunctions
  ===> : Setting SCFConvForced true
         You can overwrite this default with %scf ConvForced false 


INFO   : the flag for use of LIBINT has been found!

================================================================================
                                       INPUT FILE
================================================================================
NAME = p-IO2.inp
|  1> # ORCA input file
|  2> # p-IO2.out
|  3> ! B3LYP def2-TZVP def2/J RIJCOSX Grid4 TightSCF
|  4> %maxcore 10000
|  5> %tddft
|  6>   maxdim 5
|  7>   nroots 50
|  8>   end
|  9> * xyz 0 1
| 10>    C       -0.21324        -2.69296        -0.31547
| 11>    O        0.12207        -2.79508        -1.47990
| 12>    C       -1.54385        -2.23090         0.14056
| 13>    C       -2.60506        -1.80329        -0.63202
| 14>    C       -3.75662        -1.40153         0.02509
| 15>    C       -3.82671        -1.43415         1.41744
| 16>    C       -2.76091        -1.86847         2.19213
| 17>    C       -1.60553        -2.27199         1.54143
| 18>    C       -0.32794        -2.77515         2.04748
| 19>    C       -0.06988        -3.05331         3.36591
| 20>    C        1.11237        -3.62177         3.88620
| 21>    N        2.02239        -4.09504         4.40371
| 22>    C       -0.99077        -2.83406         4.41233
| 23>    N       -1.68781        -2.67939         5.31133
| 24>    C        0.55388        -2.96854         0.91196
| 25>    F       -4.81079        -0.97540        -0.68320
| 26>    F       -4.94928        -1.03454         2.02697
| 27>    C       22.91373         0.66861        -5.03962
| 28>    O       23.00355         0.86047        -3.84872
| 29>    C       23.70961         1.30208        -6.11883
| 30>    C       24.67027         2.28797        -6.01896
| 31>    C       25.24861         2.74420        -7.19356
| 32>    C       24.86734         2.21716        -8.42686
| 33>    C       23.91045         1.21722        -8.52703
| 34>    C       23.32800         0.75875        -7.35750
| 35>    C       22.32540        -0.28390        -7.12279
| 36>    C       22.01736        -1.28648        -8.01058
| 37>    C       21.28562        -2.43836        -7.66132
| 38>    N       20.72726        -3.41169        -7.41823
| 39>    C       22.44812        -1.31595        -9.35068
| 40>    N       22.73399        -1.37799       -10.46127
| 41>    C       21.94405        -0.20808        -5.73786
| 42>    F       26.18017         3.70504        -7.14408
| 43>    F       25.43184         2.68778        -9.54563
| 44>    C        1.89547        -3.25591         1.04345
| 45>    C        2.89521        -3.47251         0.08953
| 46>    C        2.86514        -3.60318        -1.29397
| 47>    C        4.11847        -3.78824        -1.86215
| 48>    C        5.16031        -3.79837        -0.91564
| 49>    S        4.54333        -3.61690         0.68526
| 50>    C        6.53502        -3.87910        -1.20566
| 51>    S        7.08171        -3.92035        -2.87070
| 52>    C        8.71000        -3.88082        -2.33174
| 53>    C        8.81886        -3.85388        -0.94503
| 54>    C        7.59126        -3.86205        -0.30262
| 55>    C        9.99862        -3.80734        -2.93938
| 56>    C       10.94928        -3.74311        -1.89163
| 57>    C       10.26978        -3.84596        -0.53604
| 58>    C       10.37814        -3.75768        -4.27957
| 59>    C       11.71675        -3.60435        -4.54938
| 60>    C       12.65929        -3.47218        -3.49929
| 61>    C       12.28474        -3.56011        -2.16019
| 62>    C       12.39629        -3.49691        -5.90468
| 63>    C       13.80494        -3.16269        -5.48894
| 64>    C       13.92235        -3.20120        -4.10567
| 65>    C       14.97985        -2.81013        -6.13478
| 66>    C       16.00717        -2.54957        -5.23810
| 67>    S       15.50587        -2.80770        -3.57380
| 68>    C       17.29071        -2.04008        -5.53467
| 69>    S       18.52171        -1.86767        -4.33862
| 70>    C       19.62572        -1.14515        -5.48204
| 71>    C       19.02267        -1.03750        -6.73213
| 72>    C       17.72792        -1.53870        -6.77691
| 73>    C       20.87077        -0.69153        -5.03018
| 74>    O        4.44204        -3.96581        -3.15711
| 75>    C        3.43488        -3.75839        -4.13424
| 76>    C        3.12012        -2.27230        -4.34552
| 77>    C        4.33623        -1.56219        -4.93391
| 78>    C        1.89815        -2.12566        -5.24587
| 79>    C       10.67663        -2.66457         0.32022
| 80>    C       10.53502        -5.16853         0.16580
| 81>    C       12.45093        -4.81889        -6.65461
| 82>    C       11.73306        -2.41947        -6.73898
| 83>    O       16.89409        -1.55986        -7.83228
| 84>    C       17.35811        -1.04726        -9.06992
| 85>    C       16.23755        -1.22611       -10.09733
| 86>    C       15.01513        -0.39912        -9.70478
| 87>    C       16.73898        -0.83729       -11.48455
| 88>    C        9.94751        -1.48467         0.31060
| 89>    C       10.35591        -0.40049         1.06672
| 90>    C       11.50587        -0.46156         1.84123
| 91>    C       12.24033        -1.64171         1.83633
| 92>    C       11.83450        -2.72819         1.08644
| 93>    C       11.10068        -6.25022        -0.49078
| 94>    C       11.27812        -7.45537         0.16741
| 95>    C       10.88842        -7.61319         1.48887
| 96>    C       10.31243        -6.52678         2.13950
| 97>    C       10.13436        -5.32307         1.48850
| 98>    C       12.89647        -4.82604        -7.97198
| 99>    C       13.00046        -6.01126        -8.67137
|100>    C       12.66912        -7.22400        -8.07617
|101>    C       12.23554        -7.21128        -6.75880
|102>    C       12.13085        -6.02533        -6.05203
|103>    C       10.61835        -2.72584        -7.51031
|104>    C        9.99747        -1.75046        -8.26625
|105>    C       10.47042        -0.44369        -8.27567
|106>    C       11.57529        -0.13989        -7.49272
|107>    C       12.19577        -1.11153        -6.72840
|108>    C       11.07765        -8.91244         2.20959
|109>    C       11.94068         0.70170         2.67856
|110>    C       12.79741        -8.50479        -8.84196
|111>    C        9.78956         0.61026        -9.09381
|112>    H       -2.54428        -1.77897        -1.70832
|113>    H       -2.86731        -1.87172         3.26418
|114>    H       24.96427         2.69408        -5.06438
|115>    H       23.64749         0.84096        -9.50232
|116>    H        2.26859        -3.29106         2.05978
|117>    H        1.94127        -3.54776        -1.83772
|118>    H        7.43541        -3.83926         0.76082
|119>    H        9.64052        -3.82332        -5.06425
|120>    H       13.01881        -3.47215        -1.37434
|121>    H       15.10622        -2.72393        -7.19588
|122>    H       19.50283        -0.55331        -7.56211
|123>    H       20.98038        -0.61666        -3.95261
|124>    H        2.52830        -4.31135        -3.86491
|125>    H        3.85107        -4.18755        -5.04918
|126>    H        2.89094        -1.82922        -3.37021
|127>    H        4.54041        -1.93107        -5.93687
|128>    H        5.21487        -1.74070        -4.31784
|129>    H        4.16231        -0.49054        -4.98850
|130>    H        2.06697        -2.61674        -6.20184
|131>    H        1.69408        -1.07422        -5.43002
|132>    H        1.02199        -2.56646        -4.77676
|133>    H       18.25583        -1.59461        -9.38634
|134>    H       17.60885         0.01719        -8.96621
|135>    H       15.96165        -2.28571       -10.09903
|136>    H       15.25207         0.66255        -9.73326
|137>    H       14.68592        -0.65321        -8.70040
|138>    H       14.19438        -0.58710       -10.39244
|139>    H       17.03969         0.20814       -11.50090
|140>    H       15.95118        -0.97846       -12.21963
|141>    H       17.59255        -1.44568       -11.77371
|142>    H        9.05204        -1.40916        -0.28916
|143>    H        9.77000         0.50750         1.05146
|144>    H       13.14155        -1.70979         2.42874
|145>    H       12.41529        -3.63920         1.10541
|146>    H       11.40950        -6.15750        -1.52167
|147>    H       11.72598        -8.28494        -0.36101
|148>    H        9.99843        -6.62928         3.16829
|149>    H        9.68920        -4.48934         2.01172
|150>    H       13.15181        -3.89312        -8.45331
|151>    H       13.34471        -5.99906        -9.69564
|152>    H       11.97524        -8.14084        -6.27294
|153>    H       11.79298        -6.04620        -5.02640
|154>    H       10.24506        -3.73958        -7.53288
|155>    H        9.13511        -2.00842        -8.86437
|156>    H       11.95966         0.87007        -7.48077
|157>    H       13.05169        -0.84644        -6.12502
|158>    H       11.47751        -9.67338         1.54435
|159>    H       10.12952        -9.26422         2.61372
|160>    H       11.76637        -8.78477         3.04416
|161>    H       11.47198         1.62252         2.34044
|162>    H       13.02156         0.82059         2.64185
|163>    H       11.65826         0.53810         3.71896
|164>    H       13.84934        -8.76170        -8.96753
|165>    H       12.35959        -8.40495        -9.83353
|166>    H       12.30555        -9.32215        -8.32080
|167>    H        9.43285         0.19896       -10.03562
|168>    H       10.46412         1.43721        -9.30170
|169>    H        8.92822         1.00305        -8.55260
|170> *
|171> 
|172>                          ****END OF INPUT****
================================================================================

                       ****************************
                       * Single Point Calculation *
                       ****************************

---------------------------------
CARTESIAN COORDINATES (ANGSTROEM)
---------------------------------
  C     -0.213240   -2.692960   -0.315470
  O      0.122070   -2.795080   -1.479900
  C     -1.543850   -2.230900    0.140560
  C     -2.605060   -1.803290   -0.632020
  C     -3.756620   -1.401530    0.025090
  C     -3.826710   -1.434150    1.417440
  C     -2.760910   -1.868470    2.192130
  C     -1.605530   -2.271990    1.541430
  C     -0.327940   -2.775150    2.047480
  C     -0.069880   -3.053310    3.365910
  C      1.112370   -3.621770    3.886200
  N      2.022390   -4.095040    4.403710
  C     -0.990770   -2.834060    4.412330
  N     -1.687810   -2.679390    5.311330
  C      0.553880   -2.968540    0.911960
  F     -4.810790   -0.975400   -0.683200
  F     -4.949280   -1.034540    2.026970
  C     22.913730    0.668610   -5.039620
  O     23.003550    0.860470   -3.848720
  C     23.709610    1.302080   -6.118830
  C     24.670270    2.287970   -6.018960
  C     25.248610    2.744200   -7.193560
  C     24.867340    2.217160   -8.426860
  C     23.910450    1.217220   -8.527030
  C     23.328000    0.758750   -7.357500
  C     22.325400   -0.283900   -7.122790
  C     22.017360   -1.286480   -8.010580
  C     21.285620   -2.438360   -7.661320
  N     20.727260   -3.411690   -7.418230
  C     22.448120   -1.315950   -9.350680
  N     22.733990   -1.377990  -10.461270
  C     21.944050   -0.208080   -5.737860
  F     26.180170    3.705040   -7.144080
  F     25.431840    2.687780   -9.545630
  C      1.895470   -3.255910    1.043450
  C      2.895210   -3.472510    0.089530
  C      2.865140   -3.603180   -1.293970
  C      4.118470   -3.788240   -1.862150
  C      5.160310   -3.798370   -0.915640
  S      4.543330   -3.616900    0.685260
  C      6.535020   -3.879100   -1.205660
  S      7.081710   -3.920350   -2.870700
  C      8.710000   -3.880820   -2.331740
  C      8.818860   -3.853880   -0.945030
  C      7.591260   -3.862050   -0.302620
  C      9.998620   -3.807340   -2.939380
  C     10.949280   -3.743110   -1.891630
  C     10.269780   -3.845960   -0.536040
  C     10.378140   -3.757680   -4.279570
  C     11.716750   -3.604350   -4.549380
  C     12.659290   -3.472180   -3.499290
  C     12.284740   -3.560110   -2.160190
  C     12.396290   -3.496910   -5.904680
  C     13.804940   -3.162690   -5.488940
  C     13.922350   -3.201200   -4.105670
  C     14.979850   -2.810130   -6.134780
  C     16.007170   -2.549570   -5.238100
  S     15.505870   -2.807700   -3.573800
  C     17.290710   -2.040080   -5.534670
  S     18.521710   -1.867670   -4.338620
  C     19.625720   -1.145150   -5.482040
  C     19.022670   -1.037500   -6.732130
  C     17.727920   -1.538700   -6.776910
  C     20.870770   -0.691530   -5.030180
  O      4.442040   -3.965810   -3.157110
  C      3.434880   -3.758390   -4.134240
  C      3.120120   -2.272300   -4.345520
  C      4.336230   -1.562190   -4.933910
  C      1.898150   -2.125660   -5.245870
  C     10.676630   -2.664570    0.320220
  C     10.535020   -5.168530    0.165800
  C     12.450930   -4.818890   -6.654610
  C     11.733060   -2.419470   -6.738980
  O     16.894090   -1.559860   -7.832280
  C     17.358110   -1.047260   -9.069920
  C     16.237550   -1.226110  -10.097330
  C     15.015130   -0.399120   -9.704780
  C     16.738980   -0.837290  -11.484550
  C      9.947510   -1.484670    0.310600
  C     10.355910   -0.400490    1.066720
  C     11.505870   -0.461560    1.841230
  C     12.240330   -1.641710    1.836330
  C     11.834500   -2.728190    1.086440
  C     11.100680   -6.250220   -0.490780
  C     11.278120   -7.455370    0.167410
  C     10.888420   -7.613190    1.488870
  C     10.312430   -6.526780    2.139500
  C     10.134360   -5.323070    1.488500
  C     12.896470   -4.826040   -7.971980
  C     13.000460   -6.011260   -8.671370
  C     12.669120   -7.224000   -8.076170
  C     12.235540   -7.211280   -6.758800
  C     12.130850   -6.025330   -6.052030
  C     10.618350   -2.725840   -7.510310
  C      9.997470   -1.750460   -8.266250
  C     10.470420   -0.443690   -8.275670
  C     11.575290   -0.139890   -7.492720
  C     12.195770   -1.111530   -6.728400
  C     11.077650   -8.912440    2.209590
  C     11.940680    0.701700    2.678560
  C     12.797410   -8.504790   -8.841960
  C      9.789560    0.610260   -9.093810
  H     -2.544280   -1.778970   -1.708320
  H     -2.867310   -1.871720    3.264180
  H     24.964270    2.694080   -5.064380
  H     23.647490    0.840960   -9.502320
  H      2.268590   -3.291060    2.059780
  H      1.941270   -3.547760   -1.837720
  H      7.435410   -3.839260    0.760820
  H      9.640520   -3.823320   -5.064250
  H     13.018810   -3.472150   -1.374340
  H     15.106220   -2.723930   -7.195880
  H     19.502830   -0.553310   -7.562110
  H     20.980380   -0.616660   -3.952610
  H      2.528300   -4.311350   -3.864910
  H      3.851070   -4.187550   -5.049180
  H      2.890940   -1.829220   -3.370210
  H      4.540410   -1.931070   -5.936870
  H      5.214870   -1.740700   -4.317840
  H      4.162310   -0.490540   -4.988500
  H      2.066970   -2.616740   -6.201840
  H      1.694080   -1.074220   -5.430020
  H      1.021990   -2.566460   -4.776760
  H     18.255830   -1.594610   -9.386340
  H     17.608850    0.017190   -8.966210
  H     15.961650   -2.285710  -10.099030
  H     15.252070    0.662550   -9.733260
  H     14.685920   -0.653210   -8.700400
  H     14.194380   -0.587100  -10.392440
  H     17.039690    0.208140  -11.500900
  H     15.951180   -0.978460  -12.219630
  H     17.592550   -1.445680  -11.773710
  H      9.052040   -1.409160   -0.289160
  H      9.770000    0.507500    1.051460
  H     13.141550   -1.709790    2.428740
  H     12.415290   -3.639200    1.105410
  H     11.409500   -6.157500   -1.521670
  H     11.725980   -8.284940   -0.361010
  H      9.998430   -6.629280    3.168290
  H      9.689200   -4.489340    2.011720
  H     13.151810   -3.893120   -8.453310
  H     13.344710   -5.999060   -9.695640
  H     11.975240   -8.140840   -6.272940
  H     11.792980   -6.046200   -5.026400
  H     10.245060   -3.739580   -7.532880
  H      9.135110   -2.008420   -8.864370
  H     11.959660    0.870070   -7.480770
  H     13.051690   -0.846440   -6.125020
  H     11.477510   -9.673380    1.544350
  H     10.129520   -9.264220    2.613720
  H     11.766370   -8.784770    3.044160
  H     11.471980    1.622520    2.340440
  H     13.021560    0.820590    2.641850
  H     11.658260    0.538100    3.718960
  H     13.849340   -8.761700   -8.967530
  H     12.359590   -8.404950   -9.833530
  H     12.305550   -9.322150   -8.320800
  H      9.432850    0.198960  -10.035620
  H     10.464120    1.437210   -9.301700
  H      8.928220    1.003050   -8.552600

----------------------------
CARTESIAN COORDINATES (A.U.)
----------------------------
  NO LB      ZA    FRAG     MASS         X           Y           Z
   0 C     6.0000    0    12.011   -0.402965   -5.088957   -0.596152
   1 O     8.0000    0    15.999    0.230679   -5.281936   -2.796606
   2 C     6.0000    0    12.011   -2.917454   -4.215790    0.265620
   3 C     6.0000    0    12.011   -4.922850   -3.407724   -1.194345
   4 C     6.0000    0    12.011   -7.098983   -2.648508    0.047413
   5 C     6.0000    0    12.011   -7.231434   -2.710151    2.678573
   6 C     6.0000    0    12.011   -5.217364   -3.530897    4.142525
   7 C     6.0000    0    12.011   -3.034012   -4.293439    2.912881
   8 C     6.0000    0    12.011   -0.619717   -5.244273    3.869176
   9 C     6.0000    0    12.011   -0.132054   -5.769920    6.360648
  10 C     6.0000    0    12.011    2.102075   -6.844153    7.343854
  11 N     7.0000    0    14.007    3.821763   -7.738504    8.321806
  12 C     6.0000    0    12.011   -1.872284   -5.355597    8.338095
  13 N     7.0000    0    14.007   -3.189499   -5.063313   10.036959
  14 C     6.0000    0    12.011    1.046682   -5.609728    1.723355
  15 F     9.0000    0    18.998   -9.091076   -1.843239   -1.291061
  16 F     9.0000    0    18.998   -9.352784   -1.954997    3.830418
  17 C     6.0000    0    12.011   43.300674    1.263490   -9.523502
  18 O     8.0000    0    15.999   43.470410    1.626053   -7.273027
  19 C     6.0000    0    12.011   44.804670    2.460575  -11.562913
  20 C     6.0000    0    12.011   46.620054    4.323637  -11.374186
  21 C     6.0000    0    12.011   47.712958    5.185786  -13.593858
  22 C     6.0000    0    12.011   46.992462    4.189825  -15.924458
  23 C     6.0000    0    12.011   45.184202    2.300212  -16.113751
  24 C     6.0000    0    12.011   44.083531    1.433830  -13.903660
  25 C     6.0000    0    12.011   42.188892   -0.536493  -13.460122
  26 C     6.0000    0    12.011   41.606781   -2.431095  -15.137802
  27 C     6.0000    0    12.011   40.223992   -4.607833  -14.477797
  28 N     7.0000    0    14.007   39.168845   -6.447160  -14.018423
  29 C     6.0000    0    12.011   42.420799   -2.486785  -17.670224
  30 N     7.0000    0    14.007   42.961015   -2.604024  -19.768935
  31 C     6.0000    0    12.011   41.468245   -0.393214  -10.842984
  32 F     9.0000    0    18.998   49.473351    7.001511  -13.500355
  33 F     9.0000    0    18.998   48.059213    5.079168  -18.038626
  34 C     6.0000    0    12.011    3.581919   -6.152778    1.971835
  35 C     6.0000    0    12.011    5.471154   -6.562093    0.169187
  36 C     6.0000    0    12.011    5.414330   -6.809023   -2.445249
  37 C     6.0000    0    12.011    7.782780   -7.158736   -3.518954
  38 C     6.0000    0    12.011    9.751573   -7.177879   -1.730309
  39 S    16.0000    0    32.060    8.585649   -6.834950    1.294954
  40 C     6.0000    0    12.011   12.349398   -7.330437   -2.278367
  41 S    16.0000    0    32.060   13.382492   -7.408388   -5.424837
  42 C     6.0000    0    12.011   16.459515   -7.333687   -4.406350
  43 C     6.0000    0    12.011   16.665230   -7.282778   -1.785848
  44 C     6.0000    0    12.011   14.345402   -7.298217   -0.571869
  45 C     6.0000    0    12.011   18.894654   -7.194830   -5.554623
  46 C     6.0000    0    12.011   20.691141   -7.073453   -3.574663
  47 C     6.0000    0    12.011   19.407072   -7.267811   -1.012969
  48 C     6.0000    0    12.011   19.611842   -7.100986   -8.087215
  49 C     6.0000    0    12.011   22.141449   -6.811234   -8.597082
  50 C     6.0000    0    12.011   23.922591   -6.561469   -6.612700
  51 C     6.0000    0    12.011   23.214794   -6.727633   -4.082167
  52 C     6.0000    0    12.011   23.425593   -6.608202  -11.158228
  53 C     6.0000    0    12.011   26.087556   -5.976618  -10.372593
  54 C     6.0000    0    12.011   26.309429   -6.049391   -7.758592
  55 C     6.0000    0    12.011   28.307814   -5.310376  -11.593054
  56 C     6.0000    0    12.011   30.249167   -4.817989   -9.898574
  57 S    16.0000    0    32.060   29.301848   -5.305784   -6.753503
  58 C     6.0000    0    12.011   32.674707   -3.855192  -10.459011
  59 S    16.0000    0    32.060   35.000959   -3.529385   -8.198804
  60 C     6.0000    0    12.011   37.087236   -2.164020  -10.359554
  61 C     6.0000    0    12.011   35.947637   -1.960591  -12.721882
  62 C     6.0000    0    12.011   33.500914   -2.907722  -12.806504
  63 C     6.0000    0    12.011   39.440040   -1.306802   -9.505663
  64 O     8.0000    0    15.999    8.394239   -7.494295   -5.966073
  65 C     6.0000    0    12.011    6.490983   -7.102328   -7.812581
  66 C     6.0000    0    12.011    5.896172   -4.294025   -8.211843
  67 C     6.0000    0    12.011    8.194287   -2.952111   -9.323739
  68 C     6.0000    0    12.011    3.586984   -4.016915   -9.913258
  69 C     6.0000    0    12.011   20.175907   -5.035308    0.605128
  70 C     6.0000    0    12.011   19.908303   -9.767106    0.313317
  71 C     6.0000    0    12.011   23.528848   -9.106382  -12.575390
  72 C     6.0000    0    12.011   22.172270   -4.572136  -12.734827
  73 O     8.0000    0    15.999   31.925203   -2.947708  -14.800864
  74 C     6.0000    0    12.011   32.802074   -1.979035  -17.139665
  75 C     6.0000    0    12.011   30.684523   -2.317012  -19.081188
  76 C     6.0000    0    12.011   28.374484   -0.754227  -18.339376
  77 C     6.0000    0    12.011   31.632088   -1.582249  -21.702654
  78 C     6.0000    0    12.011   18.798070   -2.805620    0.586949
  79 C     6.0000    0    12.011   19.569834   -0.756816    2.015809
  80 C     6.0000    0    12.011   21.742943   -0.872222    3.479420
  81 C     6.0000    0    12.011   23.130871   -3.102382    3.470161
  82 C     6.0000    0    12.011   22.363964   -5.155532    2.053074
  83 C     6.0000    0    12.011   20.977245  -11.811204   -0.927440
  84 C     6.0000    0    12.011   21.312558  -14.088608    0.316359
  85 C     6.0000    0    12.011   20.576132  -14.386844    2.813557
  86 C     6.0000    0    12.011   19.487668  -12.333827    4.043069
  87 C     6.0000    0    12.011   19.151165  -10.059144    2.812857
  88 C     6.0000    0    12.011   24.370796   -9.119894  -15.064859
  89 C     6.0000    0    12.011   24.567309  -11.359635  -16.386515
  90 C     6.0000    0    12.011   23.941167  -13.651382  -15.261750
  91 C     6.0000    0    12.011   23.121820  -13.627344  -12.772281
  92 C     6.0000    0    12.011   22.923984  -11.386224  -11.436679
  93 C     6.0000    0    12.011   20.065773   -5.151091  -14.192429
  94 C     6.0000    0    12.011   18.892480   -3.307890  -15.620949
  95 C     6.0000    0    12.011   19.786226   -0.838453  -15.638750
  96 C     6.0000    0    12.011   21.874128   -0.264354  -14.159189
  97 C     6.0000    0    12.011   23.046665   -2.100487  -12.714833
  98 C     6.0000    0    12.011   20.933725  -16.842071    4.175520
  99 C     6.0000    0    12.011   22.564615    1.326021    5.061745
 100 C     6.0000    0    12.011   24.183600  -16.071724  -16.708883
 101 C     6.0000    0    12.011   18.499587    1.153224  -17.184810
 102 H     1.0000    0     1.008   -4.807992   -3.361766   -3.228257
 103 H     1.0000    0     1.008   -5.418431   -3.537038    6.168406
 104 H     1.0000    0     1.008   47.175633    5.091073   -9.570291
 105 H     1.0000    0     1.008   44.687280    1.589184  -17.956782
 106 H     1.0000    0     1.008    4.287014   -6.219202    3.892420
 107 H     1.0000    0     1.008    3.668469   -6.704295   -3.472788
 108 H     1.0000    0     1.008   14.050889   -7.255150    1.437741
 109 H     1.0000    0     1.008   18.217943   -7.225028   -9.570046
 110 H     1.0000    0     1.008   24.601985   -6.561413   -2.597126
 111 H     1.0000    0     1.008   28.546619   -5.147482  -13.598242
 112 H     1.0000    0     1.008   36.855008   -1.045604  -14.290317
 113 H     1.0000    0     1.008   39.647172   -1.165319   -7.469350
 114 H     1.0000    0     1.008    4.777795   -8.147271   -7.303621
 115 H     1.0000    0     1.008    7.277468   -7.913323   -9.541567
 116 H     1.0000    0     1.008    5.463085   -3.456725   -6.368774
 117 H     1.0000    0     1.008    8.580131   -3.649193  -11.219058
 118 H     1.0000    0     1.008    9.854676   -3.289446   -8.159535
 119 H     1.0000    0     1.008    7.865626   -0.926986   -9.426899
 120 H     1.0000    0     1.008    3.906007   -4.944922  -11.719779
 121 H     1.0000    0     1.008    3.201347   -2.029982  -10.261251
 122 H     1.0000    0     1.008    1.931281   -4.849907   -9.026768
 123 H     1.0000    0     1.008   34.498519   -3.013376  -17.737612
 124 H     1.0000    0     1.008   33.275904    0.032484  -16.943681
 125 H     1.0000    0     1.008   30.163147   -4.319366  -19.084401
 126 H     1.0000    0     1.008   28.822235    1.252038  -18.393196
 127 H     1.0000    0     1.008   27.752367   -1.234388  -16.441373
 128 H     1.0000    0     1.008   26.823491   -1.109458  -19.638865
 129 H     1.0000    0     1.008   32.200348    0.393328  -21.733551
 130 H     1.0000    0     1.008   30.143362   -1.849021  -23.091754
 131 H     1.0000    0     1.008   33.245101   -2.731939  -22.249087
 132 H     1.0000    0     1.008   17.105877   -2.662926   -0.546433
 133 H     1.0000    0     1.008   18.462624    0.959036    1.986971
 134 H     1.0000    0     1.008   24.833930   -3.231035    4.589653
 135 H     1.0000    0     1.008   23.461498   -6.877091    2.088922
 136 H     1.0000    0     1.008   21.560830  -11.635989   -2.875540
 137 H     1.0000    0     1.008   22.158891  -15.656268   -0.682210
 138 H     1.0000    0     1.008   18.894294  -12.527524    5.987200
 139 H     1.0000    0     1.008   18.309934   -8.483623    3.801600
 140 H     1.0000    0     1.008   24.853319   -7.356931  -15.974441
 141 H     1.0000    0     1.008   25.217847  -11.336580  -18.322104
 142 H     1.0000    0     1.008   22.629924  -15.383958  -11.854139
 143 H     1.0000    0     1.008   22.285503  -11.425662   -9.498519
 144 H     1.0000    0     1.008   19.360358   -7.066782  -14.235080
 145 H     1.0000    0     1.008   17.262856   -3.795364  -16.751232
 146 H     1.0000    0     1.008   22.600482    1.644194  -14.136607
 147 H     1.0000    0     1.008   24.664120   -1.599540  -11.574610
 148 H     1.0000    0     1.008   21.689351  -18.280039    2.918399
 149 H     1.0000    0     1.008   19.142019  -17.506839    4.939215
 150 H     1.0000    0     1.008   22.235217  -16.600809    5.752629
 151 H     1.0000    0     1.008   21.678900    3.066118    4.422791
 152 H     1.0000    0     1.008   24.607182    1.550690    4.992373
 153 H     1.0000    0     1.008   22.030919    1.016862    7.027816
 154 H     1.0000    0     1.008   26.171460  -16.557213  -16.946176
 155 H     1.0000    0     1.008   23.356240  -15.883054  -18.582679
 156 H     1.0000    0     1.008   23.254119  -17.616310  -15.724033
 157 H     1.0000    0     1.008   17.825503    0.375980  -18.964573
 158 H     1.0000    0     1.008   19.774321    2.715933  -17.577666
 159 H     1.0000    0     1.008   16.871891    1.895490  -16.162072

--------------------------------
INTERNAL COORDINATES (ANGSTROEM)
--------------------------------
 C      0   0   0     0.000000000000     0.00000000     0.00000000
 O      1   0   0     1.216042151983     0.00000000     0.00000000
 C      1   2   0     1.480535638409   124.67833094     0.00000000
 C      3   1   2     1.380542224128   127.96237801   357.83476806
 C      4   3   1     1.385386257800   117.60273305   180.67985487
 C      5   4   3     1.394494601997   120.56935555   359.96538022
 C      6   5   4     1.387338494564   121.75253533   359.81268441
 C      7   6   5     1.386052605351   117.99365011     0.18040550
 C      8   7   6     1.463384022121   131.72064046   180.07931845
 C      9   8   7     1.371942277977   124.48905081     5.69646518
 C     10   9   8     1.411227663490   126.40913038   175.48104214
 N     11  10   9     1.148885326480   174.60687280   190.11308103
 C     10   9   8     1.411064764991   123.94499930   357.17709000
 N     13  10   9     1.148036833251   176.27946123   182.20109009
 C      9   8   7     1.450659117401   107.80932116   183.29587346
 F      5   4   3     1.339602885149   119.70753329   179.82387734
 F      6   5   4     1.338423840904   119.33271425   179.69408711
 C      2   1   3    23.326562551094   113.77043195   149.64953197
 O     18   2   1     1.209595263714    86.89652548   359.42806323
 C     18   2   1     1.483038583247   134.33273782   216.34822013
 C     20  18   2     1.380152435277   128.75606139   127.25239092
 C     21  20  18     1.386473270027   117.65190369   181.87616429
 C     22  21  20     1.394333842557   120.72392708   359.89886100
 C     23  22  21     1.387642787103   121.65404540   359.49962230
 C     24  23  22     1.384645501311   117.88495292     0.57022715
 C     25  24  23     1.465405939185   131.19861019   181.31149986
 C     26  25  24     1.374127498488   124.68184679    19.11702312
 C     27  26  25     1.408635335919   123.56511470   165.15570310
 N     28  27  26     1.148141945319   176.70234404   215.98852367
 C     27  26  25     1.407938446275   124.16873702   348.39059792
 N     30  27  26     1.148468879247   176.12210444   210.85979279
 C     26  25  24     1.438474052529   107.34253183   188.17436849
 F     22  21  20     1.339203423532   119.66627747   179.65263956
 F     23  22  21     1.338577508888   119.40993890   179.23841513
 C     15   9   8     1.378308697317   123.01107195   170.67471441
 C     35  15   9     1.398699036248   131.52499611   180.07606996
 C     36  35  15     1.389982411328   132.68129861   352.63920656
 C     37  36  35     1.388492637683   113.59693605   178.86544966
 C     38  37  36     1.407627217199   113.19694900   359.71519307
 S     39  38  37     1.725246791419   111.00851686     1.53008198
 C     39  38  37     1.407286934992   125.79199336   184.40161167
 S     41  39  38     1.752977387247   120.11522888     2.21330013
 C     42  41  39     1.715624908481    89.83138246   175.66341414
 C     43  42  41     1.391237178665   112.81988673     0.69645511
 C     44  43  42     1.385553722163   113.12253878   359.87563698
 C     43  42  41     1.426592858667   136.44240545   184.24121303
 C     46  43  42     1.416213257599   107.07143125   176.99579139
 C     44  43  42     1.507482800200   110.23286327   178.94620933
 C     46  43  42     1.393775728767   131.09872784   358.94538110
 C     49  46  43     1.374112170494   117.26071018   175.98125515
 C     50  49  46     1.417229539842   120.85020851   358.58306619
 C     47  46  43     1.374433296017   120.91151001   185.07140028
 C     50  49  46     1.519919752882   128.20752308   181.12675295
 C     53  50  49     1.506266104810   100.81780284   172.67307589
 C     54  53  50     1.388777887605   110.35419678     4.85169886
 C     54  53  50     1.386297719575   136.09055543   186.29215373
 C     56  54  53     1.388276960264   111.96163376   177.38077059
 S     55  54  53     1.716177012228   112.35446287   180.73308568
 C     57  56  54     1.412447788982   127.19600692   186.76047145
 S     59  57  56     1.724999075536   122.61303378   184.56230764
 C     60  59  57     1.745933139298    92.20770400   182.87623562
 C     61  60  59     1.392114518673   110.25334168     0.87142375
 C     62  61  60     1.389094759511   113.87957022   358.96980425
 C     32  26  25     1.373486382641   133.20998242   162.49941171
 O     38  37  36     1.346532603170   128.90393603   178.98493470
 C     65  38  37     1.418512375307   118.20066034    10.05983949
 C     66  65  38     1.533680730824   112.47609766    73.94101032
 C     67  66  65     1.526231481886   109.90196739    65.35654172
 C     67  66  65     1.524907896563   109.81457380   188.33722271
 C     48  44  43     1.514724543341   114.58125770   122.28155007
 C     48  44  43     1.520566686502   106.77091545   246.58001062
 C     53  50  49     1.520858854365   113.22284518   286.82859861
 C     53  50  49     1.515522179481   110.21088982    52.13866685
 O     63  62  61     1.345186251565   127.49768187   179.18954396
 C     74  63  62     1.417683353221   118.44678340     1.45827710
 C     75  74  63     1.530755808155   107.70367459   178.46139628
 C     76  75  74     1.527193052302   110.49678996    63.57798146
 C     76  75  74     1.525448250745   109.87402130   186.43044656
 C     70  48  44     1.387037320623   121.22162681   337.59849505
 C     79  70  48     1.383457367178   120.50896122   182.02319058
 C     80  79  70     1.387805204847   121.00689295     0.55463198
 C     81  80  79     1.390039396600   118.24303647     0.11434506
 C     82  81  80     1.381112519457   120.96683893   359.68204239
 C     71  48  44     1.386045377360   122.09583580    97.57049310
 C     84  71  48     1.384588585898   120.42368983   182.58021523
 C     85  84  71     1.386733490617   121.06681400     0.45890995
 C     86  85  84     1.391175964823   118.23866842     0.00000000
 C     87  86  85     1.380010032210   120.92830184   359.93520351
 C     72  53  50     1.390690738806   118.88663605   172.13628119
 C     89  72  53     1.380111133424   120.57067334   177.92758820
 C     90  89  72     1.390966406208   120.92753968   359.71139560
 C     91  90  89     1.386945251876   118.22334772   359.78067850
 C     92  91  90     1.384543690715   121.08824019     0.14343296
 C     73  53  50     1.389744915407   119.98868663   273.66588718
 C     94  73  53     1.381413552272   120.56842230   179.43728419
 C     95  94  73     1.389754752393   120.97526791     0.05959676
 C     96  95  94     1.387819462106   118.22519540   359.27315635
 C     97  96  95     1.383208148617   121.00350013     0.36410878
 C     86  85  84     1.497763624141   121.45078297   180.06731152
 C     81  80  79     1.497783393085   121.22278498   180.98222813
 C     91  90  89     1.497770233480   120.42280016   180.52626250
 C     96  95  94     1.497909877696   120.70490448   180.21866135
 H      4   3   1     1.078289089623   121.48299607     0.55368082
 H      7   6   5     1.077322015462   118.73365094   179.88007562
 H     21  20  18     1.078232029064   121.52731381     1.80462835
 H     24  23  22     1.077919353802   119.01724758   179.97154564
 H     35  15   9     1.083226996432   115.56592704   357.63953981
 H     37  36  35     1.073438966966   121.19502232   359.61252202
 H     45  44  43     1.075041041170   125.94190482   180.39468986
 H     49  46  43     1.078941414721   120.72940110   356.85780584
 H     52  47  46     1.078960587325   121.97818879   177.69663869
 H     56  54  53     1.072069506562   125.55304353   358.38583448
 H     62  61  60     1.074178933930   122.34771719   175.36422559
 H     64  32  26     1.085714959785   114.09277001   168.90957644
 H     66  65  38     1.095532156945   110.14514239   309.96729845
 H     66  65  38     1.092935325305   104.41047727   193.27558375
 H     67  66  65     1.095478413708   108.19180269   306.72646318
 H     68  67  66     1.087975499908   110.31486742    66.02996192
 H     68  67  66     1.087849398860   110.41966482   306.28966201
 H     68  67  66     1.087042757669   110.52146220   186.07101955
 H     69  67  66     1.087905510465   110.55251923   302.02891284
 H     69  67  66     1.086775901923   110.09358660   182.18707293
 H     69  67  66     1.087209813100   110.61191401    62.52646546
 H     75  74  63     1.098004935007   109.81232844    58.32959990
 H     75  74  63     1.098489924487   110.03908354   298.49049713
 H     76  75  74     1.094931897426   107.37149560   305.02534748
 H     77  76  75     1.088161230195   110.32285189    64.55200992
 H     77  76  75     1.087069517832   110.69062184   304.38217358
 H     77  76  75     1.087126174140   110.37001057   184.39244753
 H     78  76  75     1.087941961458   110.45379729   298.71247570
 H     78  76  75     1.086692419823   110.10438417   179.07047030
 H     78  76  75     1.087351664642   110.93176846    59.01251894
 H     79  70  48     1.080407487294   119.93319366     2.16316917
 H     80  79  70     1.080726253868   119.38378640   180.45644057
 H     82  81  80     1.080639617495   119.48540016   179.73100231
 H     83  82  81     1.080562864946   119.72009744   180.62642854
 H     84  71  48     1.080139334947   120.11910091     2.75263999
 H     85  84  71     1.080737091480   119.26152436   180.32785709
 H     87  86  85     1.080514282229   119.44139963   179.78570407
 H     88  87  86     1.080292695014   119.85876427   180.27040108
 H     89  72  53     1.080378087014   119.55833391   357.21514129
 H     90  89  72     1.080641446272   119.64576483   179.76128041
 H     92  91  90     1.080693214192   119.63268814   180.19919892
 H     93  92  91     1.080050272302   119.46243751   180.17435841
 H     94  73  53     1.080520067653   119.70414584   358.31865067
 H     95  94  73     1.080719975572   119.53556012   179.65295974
 H     97  96  95     1.080695285916   119.60184778   180.20344002
 H     98  97  96     1.080249591021   119.45156525   180.24749799
 H     99  86  85     1.086950762822   111.05443400   356.18296984
 H     99  86  85     1.089045785172   110.41246803   235.48206673
 H     99  86  85     1.089560439902   110.29164675   116.57793626
 H    100  81  80     1.087158818573   111.02634358   340.85460214
 H    100  81  80     1.088018396260   110.75679507   219.63486873
 H    100  81  80     1.090393587839   109.98027219   100.56488396
 H    101  91  90     1.090104260105   110.06480661    72.21457795
 H    101  91  90     1.088515246976   110.66266833   313.23038820
 H    101  91  90     1.087019491454   111.04546273   192.17951891
 H    102  96  95     1.087849157834   110.84760952   323.14639193
 H    102  96  95     1.087242267482   110.95220011   201.89801313
 H    102  96  95     1.090458088970   109.96226545    82.33442279

---------------------------
INTERNAL COORDINATES (A.U.)
---------------------------
 C      0   0   0     0.000000000000     0.00000000     0.00000000
 O      1   0   0     2.297986634553     0.00000000     0.00000000
 C      1   2   0     2.797806888104   124.67833094     0.00000000
 C      3   1   2     2.608846719916   127.96237801   357.83476806
 C      4   3   1     2.618000616939   117.60273305   180.67985487
 C      5   4   3     2.635212893007   120.56935555   359.96538022
 C      6   5   4     2.621689809773   121.75253533   359.81268441
 C      7   6   5     2.619259831321   117.99365011     0.18040550
 C      8   7   6     2.765395030565   131.72064046   180.07931845
 C      9   8   7     2.592595176924   124.48905081     5.69646518
 C     10   9   8     2.666833796610   126.40913038   175.48104214
 N     11  10   9     2.171078626327   174.60687280   190.11308103
 C     10   9   8     2.666525963060   123.94499930   357.17709000
 N     13  10   9     2.169475206498   176.27946123   182.20109009
 C      9   8   7     2.741348445565   107.80932116   183.29587346
 F      5   4   3     2.531482581143   119.70753329   179.82387734
 F      6   5   4     2.529254510419   119.33271425   179.69408711
 C      2   1   3    44.080814867351   113.77043195   149.64953197
 O     18   2   1     2.285803781308    86.89652548   359.42806323
 C     18   2   1     2.802536768376   134.33273782   216.34822013
 C     20  18   2     2.608110125737   128.75606139   127.25239092
 C     21  20  18     2.620054772354   117.65190369   181.87616429
 C     22  21  20     2.634909101691   120.72392708   359.89886100
 C     23  22  21     2.622264839337   121.65404540   359.49962230
 C     24  23  22     2.616600790043   117.88495292     0.57022715
 C     25  24  23     2.769215900082   131.19861019   181.31149986
 C     26  25  24     2.596724645232   124.68184679    19.11702312
 C     27  26  25     2.661935007451   123.56511470   165.15570310
 N     28  27  26     2.169673839520   176.70234404   215.98852367
 C     27  26  25     2.660618076879   124.16873702   348.39059792
 N     30  27  26     2.170291655109   176.12210444   210.85979279
 C     26  25  24     2.718322010032   107.34253183   188.17436849
 F     22  21  20     2.530727708085   119.66627747   179.65263956
 F     23  22  21     2.529544900824   119.40993890   179.23841513
 C     15   9   8     2.604625965931   123.01107195   170.67471441
 C     35  15   9     2.643158122288   131.52499611   180.07606996
 C     36  35  15     2.626686088377   132.68129861   352.63920656
 C     37  36  35     2.623870824187   113.59693605   178.86544966
 C     38  37  36     2.660029939160   113.19694900   359.71519307
 S     39  38  37     3.260243949207   111.00851686     1.53008198
 C     39  38  37     2.659386898981   125.79199336   184.40161167
 S     41  39  38     3.312647180854   120.11522888     2.21330013
 C     42  41  39     3.242061225563    89.83138246   175.66341414
 C     43  42  41     2.629057255006   112.81988673     0.69645511
 C     44  43  42     2.618317078723   113.12253878   359.87563698
 C     43  42  41     2.695869807489   136.44240545   184.24121303
 C     46  43  42     2.676255204091   107.07143125   176.99579139
 C     44  43  42     2.848729643975   110.23286327   178.94620933
 C     46  43  42     2.633854419476   131.09872784   358.94538110
 C     49  46  43     2.596695679522   117.26071018   175.98125515
 C     50  49  46     2.678175699204   120.85020851   358.58306619
 C     47  46  43     2.597302518815   120.91151001   185.07140028
 C     50  49  46     2.872232078484   128.20752308   181.12675295
 C     53  50  49     2.846430422900   100.81780284   172.67307589
 C     54  53  50     2.624409868419   110.35419678     4.85169886
 C     54  53  50     2.619723030077   136.09055543   186.29215373
 C     56  54  53     2.623463252932   111.96163376   177.38077059
 S     55  54  53     3.243104550442   112.35446287   180.73308568
 C     57  56  54     2.669139499638   127.19600692   186.76047145
 S     59  57  56     3.259775834030   122.61303378   184.56230764
 C     60  59  57     3.299335481411    92.20770400   182.87623562
 C     61  60  59     2.630715187347   110.25334168     0.87142375
 C     62  61  60     2.625008669540   113.87957022   358.96980425
 C     32  26  25     2.595513111861   133.20998242   162.49941171
 O     38  37  36     2.544577850388   128.90393603   178.98493470
 C     65  38  37     2.680599906909   118.20066034    10.05983949
 C     66  65  38     2.898236558129   112.47609766    73.94101032
 C     67  66  65     2.884159517733   109.90196739    65.35654172
 C     67  66  65     2.881658303958   109.81457380   188.33722271
 C     48  44  43     2.862414555244   114.58125770   122.28155007
 C     48  44  43     2.873454605853   106.77091545   246.58001062
 C     53  50  49     2.874006723099   113.22284518   286.82859861
 C     53  50  49     2.863921869103   110.21088982    52.13866685
 O     63  62  61     2.542033614574   127.49768187   179.18954396
 C     74  63  62     2.679033282207   118.44678340     1.45827710
 C     75  74  63     2.892709255322   107.70367459   178.46139628
 C     76  75  74     2.885976622478   110.49678996    63.57798146
 C     76  75  74     2.882679425377   109.87402130   186.43044656
 C     70  48  44     2.621120673505   121.22162681   337.59849505
 C     79  70  48     2.614355541923   120.50896122   182.02319058
 C     80  79  70     2.622571764391   121.00689295     0.55463198
 C     81  80  79     2.626793774935   118.24303647     0.11434506
 C     82  81  80     2.609924421903   120.96683893   359.68204239
 C     71  48  44     2.619246172397   122.09583580    97.57049310
 C     84  71  48     2.616493235501   120.42368983   182.58021523
 C     85  84  71     2.620546518004   121.06681400     0.45890995
 C     86  85  84     2.628941577608   118.23866842     0.00000000
 C     87  86  85     2.607841022941   120.92830184   359.93520351
 C     72  53  50     2.628024633323   118.88663605   172.13628119
 C     89  72  53     2.608032076546   120.57067334   177.92758820
 C     90  89  72     2.628545569218   120.92753968   359.71139560
 C     91  90  89     2.620946688787   118.22334772   359.78067850
 C     92  91  90     2.616408395901   121.08824019     0.14343296
 C     73  53  50     2.626237286129   119.98868663   273.66588718
 C     94  73  53     2.610493291481   120.56842230   179.43728419
 C     95  94  73     2.626255875339   120.97526791     0.05959676
 C     96  95  94     2.622598706706   118.22519540   359.27315635
 C     97  96  95     2.613884587094   121.00350013     0.36410878
 C     86  85  84     2.830363062976   121.45078297   180.06731152
 C     81  80  79     2.830400420865   121.22278498   180.98222813
 C     91  90  89     2.830375552817   120.42280016   180.52626250
 C     96  95  94     2.830639442141   120.70490448   180.21866135
 H      4   3   1     2.037671072583   121.48299607     0.55368082
 H      7   6   5     2.035843567268   118.73365094   179.88007562
 H     21  20  18     2.037563243754   121.52731381     1.80462835
 H     24  23  22     2.036972373138   119.01724758   179.97154564
 H     35  15   9     2.047002364127   115.56592704   357.63953981
 H     37  36  35     2.028505669044   121.19502232   359.61252202
 H     45  44  43     2.031533150537   125.94190482   180.39468986
 H     49  46  43     2.038903788368   120.72940110   356.85780584
 H     52  47  46     2.038940019338   121.97818879   177.69663869
 H     56  54  53     2.025917763930   125.55304353   358.38583448
 H     62  61  60     2.029904003956   122.34771719   175.36422559
 H     64  32  26     2.051703933494   114.09277001   168.90957644
 H     66  65  38     2.070255747530   110.14514239   309.96729845
 H     66  65  38     2.065348446915   104.41047727   193.27558375
 H     67  66  65     2.070154187530   108.19180269   306.72646318
 H     68  67  66     2.055975735242   110.31486742    66.02996192
 H     68  67  66     2.055737438796   110.41966482   306.28966201
 H     68  67  66     2.054213107856   110.52146220   186.07101955
 H     69  67  66     2.055843474363   110.55251923   302.02891284
 H     69  67  66     2.053708823579   110.09358660   182.18707293
 H     69  67  66     2.054528796870   110.61191401    62.52646546
 H     75  74  63     2.074928620857   109.81232844    58.32959990
 H     75  74  63     2.075845118153   110.03908354   298.49049713
 H     76  75  74     2.069121421429   107.37149560   305.02534748
 H     77  76  75     2.056326714620   110.32285189    64.55200992
 H     77  76  75     2.054263677237   110.69062184   304.38217358
 H     77  76  75     2.054370742142   110.37001057   184.39244753
 H     78  76  75     2.055912356756   110.45379729   298.71247570
 H     78  76  75     2.053551065273   110.10438417   179.07047030
 H     78  76  75     2.054796857437   110.93176846    59.01251894
 H     79  70  48     2.041674264023   119.93319366     2.16316917
 H     80  79  70     2.042276645550   119.38378640   180.45644057
 H     82  81  80     2.042112926531   119.48540016   179.73100231
 H     83  82  81     2.041967885233   119.72009744   180.62642854
 H     84  71  48     2.041167529526   120.11910091     2.75263999
 H     85  84  71     2.042297125667   119.26152436   180.32785709
 H     87  86  85     2.041876077203   119.44139963   179.78570407
 H     88  87  86     2.041457338052   119.85876427   180.27040108
 H     89  72  53     2.041618705546   119.55833391   357.21514129
 H     90  89  72     2.042116382418   119.64576483   179.76128041
 H     92  91  90     2.042214209609   119.63268814   180.19919892
 H     93  92  91     2.040999225518   119.46243751   180.17435841
 H     94  73  53     2.041887010069   119.70414584   358.31865067
 H     95  94  73     2.042264781289   119.53556012   179.65295974
 H     97  96  95     2.042218124600   119.60184778   180.20344002
 H     98  97  96     2.041375883309   119.45156525   180.24749799
 H     99  86  85     2.054039262791   111.05443400   356.18296984
 H     99  86  85     2.057998281276   110.41246803   235.48206673
 H     99  86  85     2.058970837770   110.29164675   116.57793626
 H    100  81  80     2.054432431179   111.02634358   340.85460214
 H    100  81  80     2.056056797599   110.75679507   219.63486873
 H    100  81  80     2.060545259199   109.98027219   100.56488396
 H    101  91  90     2.059998509020   110.06480661    72.21457795
 H    101  91  90     2.056995709383   110.66266833   313.23038820
 H    101  91  90     2.054169141082   111.04546273   192.17951891
 H    102  96  95     2.055736983323   110.84760952   323.14639193
 H    102  96  95     2.054590126765   110.95220011   201.89801313
 H    102  96  95     2.060667148672   109.96226545    82.33442279

---------------------
BASIS SET INFORMATION
---------------------
There are 6 groups of distinct atoms

 Group   1 Type C   : 11s6p2d1f contracted to 5s3p2d1f pattern {62111/411/11/1}
 Group   2 Type O   : 11s6p2d1f contracted to 5s3p2d1f pattern {62111/411/11/1}
 Group   3 Type N   : 11s6p2d1f contracted to 5s3p2d1f pattern {62111/411/11/1}
 Group   4 Type F   : 11s6p2d1f contracted to 5s3p2d1f pattern {62111/411/11/1}
 Group   5 Type S   : 14s9p3d1f contracted to 5s5p2d1f pattern {73211/51111/21/1}
 Group   6 Type H   : 5s1p contracted to 3s1p pattern {311/1}

Atom   0C    basis set group =>   1
Atom   1O    basis set group =>   2
Atom   2C    basis set group =>   1
Atom   3C    basis set group =>   1
Atom   4C    basis set group =>   1
Atom   5C    basis set group =>   1
Atom   6C    basis set group =>   1
Atom   7C    basis set group =>   1
Atom   8C    basis set group =>   1
Atom   9C    basis set group =>   1
Atom  10C    basis set group =>   1
Atom  11N    basis set group =>   3
Atom  12C    basis set group =>   1
Atom  13N    basis set group =>   3
Atom  14C    basis set group =>   1
Atom  15F    basis set group =>   4
Atom  16F    basis set group =>   4
Atom  17C    basis set group =>   1
Atom  18O    basis set group =>   2
Atom  19C    basis set group =>   1
Atom  20C    basis set group =>   1
Atom  21C    basis set group =>   1
Atom  22C    basis set group =>   1
Atom  23C    basis set group =>   1
Atom  24C    basis set group =>   1
Atom  25C    basis set group =>   1
Atom  26C    basis set group =>   1
Atom  27C    basis set group =>   1
Atom  28N    basis set group =>   3
Atom  29C    basis set group =>   1
Atom  30N    basis set group =>   3
Atom  31C    basis set group =>   1
Atom  32F    basis set group =>   4
Atom  33F    basis set group =>   4
Atom  34C    basis set group =>   1
Atom  35C    basis set group =>   1
Atom  36C    basis set group =>   1
Atom  37C    basis set group =>   1
Atom  38C    basis set group =>   1
Atom  39S    basis set group =>   5
Atom  40C    basis set group =>   1
Atom  41S    basis set group =>   5
Atom  42C    basis set group =>   1
Atom  43C    basis set group =>   1
Atom  44C    basis set group =>   1
Atom  45C    basis set group =>   1
Atom  46C    basis set group =>   1
Atom  47C    basis set group =>   1
Atom  48C    basis set group =>   1
Atom  49C    basis set group =>   1
Atom  50C    basis set group =>   1
Atom  51C    basis set group =>   1
Atom  52C    basis set group =>   1
Atom  53C    basis set group =>   1
Atom  54C    basis set group =>   1
Atom  55C    basis set group =>   1
Atom  56C    basis set group =>   1
Atom  57S    basis set group =>   5
Atom  58C    basis set group =>   1
Atom  59S    basis set group =>   5
Atom  60C    basis set group =>   1
Atom  61C    basis set group =>   1
Atom  62C    basis set group =>   1
Atom  63C    basis set group =>   1
Atom  64O    basis set group =>   2
Atom  65C    basis set group =>   1
Atom  66C    basis set group =>   1
Atom  67C    basis set group =>   1
Atom  68C    basis set group =>   1
Atom  69C    basis set group =>   1
Atom  70C    basis set group =>   1
Atom  71C    basis set group =>   1
Atom  72C    basis set group =>   1
Atom  73O    basis set group =>   2
Atom  74C    basis set group =>   1
Atom  75C    basis set group =>   1
Atom  76C    basis set group =>   1
Atom  77C    basis set group =>   1
Atom  78C    basis set group =>   1
Atom  79C    basis set group =>   1
Atom  80C    basis set group =>   1
Atom  81C    basis set group =>   1
Atom  82C    basis set group =>   1
Atom  83C    basis set group =>   1
Atom  84C    basis set group =>   1
Atom  85C    basis set group =>   1
Atom  86C    basis set group =>   1
Atom  87C    basis set group =>   1
Atom  88C    basis set group =>   1
Atom  89C    basis set group =>   1
Atom  90C    basis set group =>   1
Atom  91C    basis set group =>   1
Atom  92C    basis set group =>   1
Atom  93C    basis set group =>   1
Atom  94C    basis set group =>   1
Atom  95C    basis set group =>   1
Atom  96C    basis set group =>   1
Atom  97C    basis set group =>   1
Atom  98C    basis set group =>   1
Atom  99C    basis set group =>   1
Atom 100C    basis set group =>   1
Atom 101C    basis set group =>   1
Atom 102H    basis set group =>   6
Atom 103H    basis set group =>   6
Atom 104H    basis set group =>   6
Atom 105H    basis set group =>   6
Atom 106H    basis set group =>   6
Atom 107H    basis set group =>   6
Atom 108H    basis set group =>   6
Atom 109H    basis set group =>   6
Atom 110H    basis set group =>   6
Atom 111H    basis set group =>   6
Atom 112H    basis set group =>   6
Atom 113H    basis set group =>   6
Atom 114H    basis set group =>   6
Atom 115H    basis set group =>   6
Atom 116H    basis set group =>   6
Atom 117H    basis set group =>   6
Atom 118H    basis set group =>   6
Atom 119H    basis set group =>   6
Atom 120H    basis set group =>   6
Atom 121H    basis set group =>   6
Atom 122H    basis set group =>   6
Atom 123H    basis set group =>   6
Atom 124H    basis set group =>   6
Atom 125H    basis set group =>   6
Atom 126H    basis set group =>   6
Atom 127H    basis set group =>   6
Atom 128H    basis set group =>   6
Atom 129H    basis set group =>   6
Atom 130H    basis set group =>   6
Atom 131H    basis set group =>   6
Atom 132H    basis set group =>   6
Atom 133H    basis set group =>   6
Atom 134H    basis set group =>   6
Atom 135H    basis set group =>   6
Atom 136H    basis set group =>   6
Atom 137H    basis set group =>   6
Atom 138H    basis set group =>   6
Atom 139H    basis set group =>   6
Atom 140H    basis set group =>   6
Atom 141H    basis set group =>   6
Atom 142H    basis set group =>   6
Atom 143H    basis set group =>   6
Atom 144H    basis set group =>   6
Atom 145H    basis set group =>   6
Atom 146H    basis set group =>   6
Atom 147H    basis set group =>   6
Atom 148H    basis set group =>   6
Atom 149H    basis set group =>   6
Atom 150H    basis set group =>   6
Atom 151H    basis set group =>   6
Atom 152H    basis set group =>   6
Atom 153H    basis set group =>   6
Atom 154H    basis set group =>   6
Atom 155H    basis set group =>   6
Atom 156H    basis set group =>   6
Atom 157H    basis set group =>   6
Atom 158H    basis set group =>   6
Atom 159H    basis set group =>   6
---------------------------------
AUXILIARY/J BASIS SET INFORMATION
---------------------------------
There are 6 groups of distinct atoms

 Group   1 Type C   : 12s5p4d2f1g contracted to 6s4p3d1f1g pattern {711111/2111/211/2/1}
 Group   2 Type O   : 12s5p4d2f1g contracted to 6s4p3d1f1g pattern {711111/2111/211/2/1}
 Group   3 Type N   : 12s5p4d2f1g contracted to 6s4p3d1f1g pattern {711111/2111/211/2/1}
 Group   4 Type F   : 12s5p4d2f1g contracted to 6s4p3d1f1g pattern {711111/2111/211/2/1}
 Group   5 Type S   : 14s5p5d2f1g contracted to 8s4p3d1f1g pattern {71111111/2111/311/2/1}
 Group   6 Type H   : 5s2p1d contracted to 3s1p1d pattern {311/2/1}

Atom   0C    basis set group =>   1
Atom   1O    basis set group =>   2
Atom   2C    basis set group =>   1
Atom   3C    basis set group =>   1
Atom   4C    basis set group =>   1
Atom   5C    basis set group =>   1
Atom   6C    basis set group =>   1
Atom   7C    basis set group =>   1
Atom   8C    basis set group =>   1
Atom   9C    basis set group =>   1
Atom  10C    basis set group =>   1
Atom  11N    basis set group =>   3
Atom  12C    basis set group =>   1
Atom  13N    basis set group =>   3
Atom  14C    basis set group =>   1
Atom  15F    basis set group =>   4
Atom  16F    basis set group =>   4
Atom  17C    basis set group =>   1
Atom  18O    basis set group =>   2
Atom  19C    basis set group =>   1
Atom  20C    basis set group =>   1
Atom  21C    basis set group =>   1
Atom  22C    basis set group =>   1
Atom  23C    basis set group =>   1
Atom  24C    basis set group =>   1
Atom  25C    basis set group =>   1
Atom  26C    basis set group =>   1
Atom  27C    basis set group =>   1
Atom  28N    basis set group =>   3
Atom  29C    basis set group =>   1
Atom  30N    basis set group =>   3
Atom  31C    basis set group =>   1
Atom  32F    basis set group =>   4
Atom  33F    basis set group =>   4
Atom  34C    basis set group =>   1
Atom  35C    basis set group =>   1
Atom  36C    basis set group =>   1
Atom  37C    basis set group =>   1
Atom  38C    basis set group =>   1
Atom  39S    basis set group =>   5
Atom  40C    basis set group =>   1
Atom  41S    basis set group =>   5
Atom  42C    basis set group =>   1
Atom  43C    basis set group =>   1
Atom  44C    basis set group =>   1
Atom  45C    basis set group =>   1
Atom  46C    basis set group =>   1
Atom  47C    basis set group =>   1
Atom  48C    basis set group =>   1
Atom  49C    basis set group =>   1
Atom  50C    basis set group =>   1
Atom  51C    basis set group =>   1
Atom  52C    basis set group =>   1
Atom  53C    basis set group =>   1
Atom  54C    basis set group =>   1
Atom  55C    basis set group =>   1
Atom  56C    basis set group =>   1
Atom  57S    basis set group =>   5
Atom  58C    basis set group =>   1
Atom  59S    basis set group =>   5
Atom  60C    basis set group =>   1
Atom  61C    basis set group =>   1
Atom  62C    basis set group =>   1
Atom  63C    basis set group =>   1
Atom  64O    basis set group =>   2
Atom  65C    basis set group =>   1
Atom  66C    basis set group =>   1
Atom  67C    basis set group =>   1
Atom  68C    basis set group =>   1
Atom  69C    basis set group =>   1
Atom  70C    basis set group =>   1
Atom  71C    basis set group =>   1
Atom  72C    basis set group =>   1
Atom  73O    basis set group =>   2
Atom  74C    basis set group =>   1
Atom  75C    basis set group =>   1
Atom  76C    basis set group =>   1
Atom  77C    basis set group =>   1
Atom  78C    basis set group =>   1
Atom  79C    basis set group =>   1
Atom  80C    basis set group =>   1
Atom  81C    basis set group =>   1
Atom  82C    basis set group =>   1
Atom  83C    basis set group =>   1
Atom  84C    basis set group =>   1
Atom  85C    basis set group =>   1
Atom  86C    basis set group =>   1
Atom  87C    basis set group =>   1
Atom  88C    basis set group =>   1
Atom  89C    basis set group =>   1
Atom  90C    basis set group =>   1
Atom  91C    basis set group =>   1
Atom  92C    basis set group =>   1
Atom  93C    basis set group =>   1
Atom  94C    basis set group =>   1
Atom  95C    basis set group =>   1
Atom  96C    basis set group =>   1
Atom  97C    basis set group =>   1
Atom  98C    basis set group =>   1
Atom  99C    basis set group =>   1
Atom 100C    basis set group =>   1
Atom 101C    basis set group =>   1
Atom 102H    basis set group =>   6
Atom 103H    basis set group =>   6
Atom 104H    basis set group =>   6
Atom 105H    basis set group =>   6
Atom 106H    basis set group =>   6
Atom 107H    basis set group =>   6
Atom 108H    basis set group =>   6
Atom 109H    basis set group =>   6
Atom 110H    basis set group =>   6
Atom 111H    basis set group =>   6
Atom 112H    basis set group =>   6
Atom 113H    basis set group =>   6
Atom 114H    basis set group =>   6
Atom 115H    basis set group =>   6
Atom 116H    basis set group =>   6
Atom 117H    basis set group =>   6
Atom 118H    basis set group =>   6
Atom 119H    basis set group =>   6
Atom 120H    basis set group =>   6
Atom 121H    basis set group =>   6
Atom 122H    basis set group =>   6
Atom 123H    basis set group =>   6
Atom 124H    basis set group =>   6
Atom 125H    basis set group =>   6
Atom 126H    basis set group =>   6
Atom 127H    basis set group =>   6
Atom 128H    basis set group =>   6
Atom 129H    basis set group =>   6
Atom 130H    basis set group =>   6
Atom 131H    basis set group =>   6
Atom 132H    basis set group =>   6
Atom 133H    basis set group =>   6
Atom 134H    basis set group =>   6
Atom 135H    basis set group =>   6
Atom 136H    basis set group =>   6
Atom 137H    basis set group =>   6
Atom 138H    basis set group =>   6
Atom 139H    basis set group =>   6
Atom 140H    basis set group =>   6
Atom 141H    basis set group =>   6
Atom 142H    basis set group =>   6
Atom 143H    basis set group =>   6
Atom 144H    basis set group =>   6
Atom 145H    basis set group =>   6
Atom 146H    basis set group =>   6
Atom 147H    basis set group =>   6
Atom 148H    basis set group =>   6
Atom 149H    basis set group =>   6
Atom 150H    basis set group =>   6
Atom 151H    basis set group =>   6
Atom 152H    basis set group =>   6
Atom 153H    basis set group =>   6
Atom 154H    basis set group =>   6
Atom 155H    basis set group =>   6
Atom 156H    basis set group =>   6
Atom 157H    basis set group =>   6
Atom 158H    basis set group =>   6
Atom 159H    basis set group =>   6
------------------------------------------------------------------------------
                           ORCA GTO INTEGRAL CALCULATION
                           -- RI-GTO INTEGRALS CHOSEN --
------------------------------------------------------------------------------

                         BASIS SET STATISTICS AND STARTUP INFO

Gaussian basis set:
 # of primitive gaussian shells          ... 2416
 # of primitive gaussian functions       ... 5224
 # of contracted shells                  ... 1362
 # of contracted basis functions         ... 3534
 Highest angular momentum                ...    3
 Maximum contraction depth               ...    7
Auxiliary gaussian basis set:
 # of primitive gaussian shells          ... 2924
 # of primitive gaussian functions       ... 8096
 # of contracted shells                  ... 1828
 # of contracted aux-basis functions     ... 5644
 Highest angular momentum                ...    4
 Maximum contraction depth               ...    7
Ratio of auxiliary to basis functions    ...  1.60
Integral package used                  ... LIBINT
 One Electron integrals                  ... done
 Ordering auxiliary basis shells         ... done
 Integral threshhold             Thresh  ...  2.500e-11
 Primitive cut-off               TCut    ...  2.500e-12
 Pre-screening matrix                    ... done
 Shell pair data                         ... 
 Ordering of the shell pairs             ... done (   0.056 sec) 248764 of 928203 pairs
 Determination of significant pairs      ... done (   0.001 sec)
 Creation of shell pair data             ... done (   0.028 sec)
 Storage of shell pair data              ... done (   0.040 sec)
 Shell pair data done in (   0.126 sec)
 Computing two index integrals           ... done
 Cholesky decomposition of the V-matrix  ... done


Timings:
 Total evaluation time                   ...  13.956 sec (  0.233 min)
 One electron matrix time                ...   5.148 sec (  0.086 min) = 36.9%
 Schwartz matrix evaluation time         ...   6.770 sec (  0.113 min) = 48.5%
 Two index repulsion integral time       ...   0.754 sec (  0.013 min) =  5.4%
 Cholesky decomposition of V             ...   1.140 sec (  0.019 min) =  8.2%
 Three index repulsion integral time     ...   0.000 sec (  0.000 min) =  0.0%

-------------------------------------------------------------------------------
                                 ORCA SCF
-------------------------------------------------------------------------------

------------
SCF SETTINGS
------------
Hamiltonian:
 Density Functional     Method          .... DFT(GTOs)
 Exchange Functional    Exchange        .... B88
   X-Alpha parameter    XAlpha          ....  0.666667
   Becke's b parameter  XBeta           ....  0.004200
 Correlation Functional Correlation     .... LYP
 LDA part of GGA corr.  LDAOpt          .... VWN-5
 Gradients option       PostSCFGGA      .... off
 Hybrid DFT is turned on
   Fraction HF Exchange ScalHFX         ....  0.200000
   Scaling of DF-GGA-X  ScalDFX         ....  0.720000
   Scaling of DF-GGA-C  ScalDFC         ....  0.810000
   Scaling of DF-LDA-C  ScalLDAC        ....  1.000000
   Perturbative correction              ....  0.000000
   Density functional embedding theory  .... OFF
   NL short-range parameter             ....  4.800000
 RI-approximation to the Coulomb term is turned on
   Number of auxiliary basis functions  .... 5644
   RIJ-COSX (HFX calculated with COS-X)).... on


General Settings:
 Integral files         IntName         .... p-IO2
 Hartree-Fock type      HFTyp           .... RHF
 Total Charge           Charge          ....    0
 Multiplicity           Mult            ....    1
 Number of Electrons    NEL             ....  734
 Basis Dimension        Dim             .... 3534
 Nuclear Repulsion      ENuc            ....  18481.7255135620 Eh

Convergence Acceleration:
 DIIS                   CNVDIIS         .... on
   Start iteration      DIISMaxIt       ....    12
   Startup error        DIISStart       ....  0.200000
   # of expansion vecs  DIISMaxEq       ....     5
   Bias factor          DIISBfac        ....   1.050
   Max. coefficient     DIISMaxC        ....  10.000
 Newton-Raphson         CNVNR           .... off
 SOSCF                  CNVSOSCF        .... on
   Start iteration      SOSCFMaxIt      ....   150
   Startup grad/error   SOSCFStart      ....  0.003300
 Level Shifting         CNVShift        .... on
   Level shift para.    LevelShift      ....    0.2500
   Turn off err/grad.   ShiftErr        ....    0.0010
 Zerner damping         CNVZerner       .... off
 Static damping         CNVDamp         .... on
   Fraction old density DampFac         ....    0.7000
   Max. Damping (<1)    DampMax         ....    0.9800
   Min. Damping (>=0)   DampMin         ....    0.0000
   Turn off err/grad.   DampErr         ....    0.1000
 Fernandez-Rico         CNVRico         .... off

SCF Procedure:
 Maximum # iterations   MaxIter         ....   125
 SCF integral mode      SCFMode         .... Direct
   Integral package                     .... LIBINT
 Reset frequency        DirectResetFreq ....    20
 Integral Threshold     Thresh          ....  2.500e-11 Eh
 Primitive CutOff       TCut            ....  2.500e-12 Eh

Convergence Tolerance:
 Convergence Check Mode ConvCheckMode   .... Total+1el-Energy
 Convergence forced     ConvForced      .... 1
 Energy Change          TolE            ....  1.000e-08 Eh
 1-El. energy change                    ....  1.000e-05 Eh
 Orbital Gradient       TolG            ....  1.000e-05
 Orbital Rotation angle TolX            ....  1.000e-05
 DIIS Error             TolErr          ....  5.000e-07


Diagonalization of the overlap matrix:
Smallest eigenvalue                        ... 1.900e-06
Time for diagonalization                   ...    8.626 sec
Threshold for overlap eigenvalues          ... 1.000e-08
Number of eigenvalues below threshold      ... 0
Time for construction of square roots      ...    2.555 sec
Total time needed                          ...   11.212 sec

-------------------
DFT GRID GENERATION
-------------------

General Integration Accuracy     IntAcc      ...  4.670
Radial Grid Type                 RadialGrid  ... Gauss-Chebyshev
Angular Grid (max. acc.)         AngularGrid ... Lebedev-302
Angular grid pruning method      GridPruning ... 3 (G Style)
Weight generation scheme         WeightScheme... Becke
Basis function cutoff            BFCut       ...    1.0000e-11
Integration weight cutoff        WCut        ...    1.0000e-14
Grids for H and He will be reduced by one unit

# of grid points (after initial pruning)     ... 833252 (   2.9 sec)
# of grid points (after weights+screening)   ... 698705 (  71.1 sec)
nearest neighbour list constructed           ...    0.0 sec
Grid point re-assignment to atoms done       ...    0.1 sec
Grid point division into batches done        ...    2.3 sec
Reduced shell lists constructed in   27.6 sec

Total number of grid points                  ...   698705
Total number of batches                      ...    11002
Average number of points per batch           ...       63
Average number of grid points per atom       ...     4367
Average number of shells per batch           ...   186.64 (13.70%)
Average number of basis functions per batch  ...   451.83 (12.79%)
Average number of large shells per batch     ...   105.48 (56.52%)
Average number of large basis fcns per batch ...   263.27 (58.27%)
Maximum spatial batch extension              ...  22.05, 24.28, 21.48 au
Average spatial batch extension              ...   2.01,  2.13,  2.01 au

Time for grid setup =  101.634 sec

------------------------------
INITIAL GUESS: MODEL POTENTIAL
------------------------------
Loading Hartree-Fock densities                     ... done
Calculating cut-offs                               ... done
Setting up the integral package                    ... done
Initializing the effective Hamiltonian             ... done
Starting the Coulomb interaction                   ... done (  66.3 sec)
Reading the grid                                   ... done
Mapping shells                                     ... done
Starting the XC term evaluation                    ... done (  35.8 sec)
  promolecular density results
     # of electrons  =    733.972093091
     EX              =   -659.299168489
     EC              =    -25.679397585
     EX+EC           =   -684.978566073
Transforming the Hamiltonian                       ... done (   2.5 sec)
Diagonalizing the Hamiltonian                      ... done (   8.6 sec)
Back transforming the eigenvectors                 ... done (   1.1 sec)
Now organizing SCF variables                       ... done
                      ------------------
                      INITIAL GUESS DONE ( 217.8 sec)
                      ------------------
--------------------
COSX GRID GENERATION
--------------------

General Integration Accuracy     IntAcc      ...  3.340
Radial Grid Type                 RadialGrid  ... Gauss-Chebyshev
Angular Grid (max. acc.)         AngularGrid ... Lebedev-50
Angular grid pruning method      GridPruning ... 3 (G Style)
Weight generation scheme         WeightScheme... Becke
Basis function cutoff            BFCut       ...    1.0000e-11
Integration weight cutoff        WCut        ...    1.0000e-14
Grids for H and He will be reduced by one unit

# of grid points (after initial pruning)     ...  78168 (   0.1 sec)
# of grid points (after weights+screening)   ...  68821 (   6.6 sec)
nearest neighbour list constructed           ...    0.0 sec
Grid point re-assignment to atoms done       ...    0.0 sec
Grid point division into batches done        ...    0.0 sec
Reduced shell lists constructed in    4.0 sec

Total number of grid points                  ...    68821
Total number of batches                      ...     1161
Average number of points per batch           ...       59
Average number of grid points per atom       ...      430
Average number of shells per batch           ...   229.47 (16.85%)
Average number of basis functions per batch  ...   560.90 (15.87%)
Average number of large shells per batch     ...   129.68 (56.51%)
Average number of large basis fcns per batch ...   328.46 (58.56%)
Maximum spatial batch extension              ...  21.47, 30.93, 21.00 au
Average spatial batch extension              ...   4.14,  4.64,  4.00 au

Overlap Fitting                  UseSFitting ... on
Constructing numerical overlap ... done (      3.4 sec)
Inverting numerical overlap    ... done (      0.8 sec)
Obtaining analytic overlap     ... done (      0.0 sec)
Final contraction and storage  ... done (      1.3 sec)


General Integration Accuracy     IntAcc      ...  3.670
Radial Grid Type                 RadialGrid  ... Gauss-Chebyshev
Angular Grid (max. acc.)         AngularGrid ... Lebedev-50
Angular grid pruning method      GridPruning ... 3 (G Style)
Weight generation scheme         WeightScheme... Becke
Basis function cutoff            BFCut       ...    1.0000e-11
Integration weight cutoff        WCut        ...    1.0000e-14
Grids for H and He will be reduced by one unit

# of grid points (after initial pruning)     ...  98052 (   0.2 sec)
# of grid points (after weights+screening)   ...  85908 (   8.4 sec)
[...]
   355a -> 368a  :     0.027066 (c= -0.16451850)
   356a -> 367a  :     0.039008 (c= -0.19750547)
   356a -> 368a  :     0.141952 (c=  0.37676510)
   358a -> 368a  :     0.053168 (c= -0.23058199)
   362a -> 369a  :     0.070037 (c= -0.26464422)
   364a -> 370a  :     0.259629 (c=  0.50953794)
   366a -> 373a  :     0.105281 (c=  0.32447006)

STATE 44:  E=   0.131725 au      3.584 eV    28910.2 cm**-1
   346a -> 367a  :     0.010499 (c= -0.10246248)
   350a -> 367a  :     0.112587 (c=  0.33554032)
   351a -> 367a  :     0.012159 (c= -0.11026885)
   354a -> 368a  :     0.013845 (c= -0.11766597)
   356a -> 368a  :     0.010308 (c=  0.10152969)
   362a -> 369a  :     0.127603 (c=  0.35721594)
   362a -> 370a  :     0.020756 (c= -0.14406880)
   363a -> 369a  :     0.011498 (c=  0.10722849)
   363a -> 370a  :     0.143481 (c= -0.37878867)
   364a -> 370a  :     0.335218 (c= -0.57898038)
   366a -> 373a  :     0.143299 (c=  0.37854821)

STATE 45:  E=   0.132094 au      3.594 eV    28991.3 cm**-1
   346a -> 367a  :     0.035244 (c= -0.18773402)
   347a -> 368a  :     0.013101 (c= -0.11446078)
   350a -> 367a  :     0.107996 (c=  0.32862739)
   354a -> 368a  :     0.013536 (c=  0.11634352)
   355a -> 368a  :     0.012988 (c=  0.11396616)
   356a -> 368a  :     0.031407 (c= -0.17722100)
   358a -> 368a  :     0.076808 (c=  0.27714247)
   358a -> 370a  :     0.014944 (c= -0.12224770)
   359a -> 368a  :     0.045443 (c=  0.21317334)
   362a -> 369a  :     0.090795 (c= -0.30132218)
   362a -> 370a  :     0.065327 (c=  0.25559113)
   363a -> 370a  :     0.198129 (c=  0.44511628)
   364a -> 370a  :     0.014790 (c= -0.12161227)
   366a -> 373a  :     0.120712 (c=  0.34743679)
   366a -> 374a  :     0.051692 (c=  0.22735859)

STATE 46:  E=   0.132784 au      3.613 eV    29142.7 cm**-1
   362a -> 369a  :     0.042543 (c=  0.20626014)
   362a -> 370a  :     0.718074 (c= -0.84739227)
   363a -> 369a  :     0.027935 (c=  0.16713800)
   363a -> 370a  :     0.096665 (c=  0.31090937)
   364a -> 370a  :     0.047128 (c=  0.21709088)

STATE 47:  E=   0.134124 au      3.650 eV    29436.8 cm**-1
   346a -> 368a  :     0.011881 (c= -0.10899954)
   347a -> 367a  :     0.412234 (c= -0.64205488)
   348a -> 367a  :     0.016973 (c= -0.13028020)
   349a -> 367a  :     0.041100 (c= -0.20273099)
   350a -> 368a  :     0.135137 (c=  0.36761027)
   351a -> 368a  :     0.011856 (c= -0.10888725)
   353a -> 368a  :     0.016123 (c= -0.12697749)
   354a -> 367a  :     0.012823 (c= -0.11323745)
   354a -> 368a  :     0.214070 (c= -0.46267708)
   358a -> 368a  :     0.014117 (c=  0.11881626)
   363a -> 370a  :     0.016166 (c=  0.12714503)

STATE 48:  E=   0.134761 au      3.667 eV    29576.7 cm**-1
   349a -> 367a  :     0.010274 (c=  0.10136213)
   353a -> 367a  :     0.028159 (c= -0.16780742)
   353a -> 368a  :     0.862792 (c= -0.92886575)
   354a -> 368a  :     0.054616 (c=  0.23370114)

STATE 49:  E=   0.135278 au      3.681 eV    29690.2 cm**-1
   346a -> 367a  :     0.013535 (c= -0.11633859)
   347a -> 367a  :     0.257081 (c= -0.50703154)
   348a -> 367a  :     0.015572 (c=  0.12478661)
   349a -> 367a  :     0.044804 (c=  0.21166862)
   350a -> 368a  :     0.041695 (c=  0.20419266)
   351a -> 367a  :     0.011996 (c=  0.10952622)
   352a -> 368a  :     0.010338 (c= -0.10167699)
   353a -> 368a  :     0.077503 (c=  0.27839339)
   354a -> 368a  :     0.263989 (c=  0.51379875)
   356a -> 370a  :     0.014118 (c= -0.11881858)
   358a -> 368a  :     0.023629 (c= -0.15371881)
   363a -> 370a  :     0.035589 (c= -0.18864975)
   365a -> 371a  :     0.032219 (c=  0.17949688)
   366a -> 374a  :     0.029068 (c=  0.17049366)

STATE 50:  E=   0.135794 au      3.695 eV    29803.3 cm**-1
   346a -> 367a  :     0.014318 (c= -0.11965917)
   347a -> 367a  :     0.017590 (c=  0.13262808)
   350a -> 367a  :     0.029409 (c=  0.17148930)
   354a -> 368a  :     0.015449 (c= -0.12429219)
   365a -> 375a  :     0.026167 (c=  0.16176210)
   365a -> 376a  :     0.031996 (c=  0.17887310)
   366a -> 373a  :     0.045799 (c= -0.21400593)
   366a -> 374a  :     0.152346 (c=  0.39031479)
   366a -> 375a  :     0.215147 (c=  0.46383910)
   366a -> 376a  :     0.343287 (c=  0.58590676)


-----------------------------
TD-DFT/TDA-EXCITATION SPECTRA
-----------------------------

Center of mass = ( 20.8843, -4.6238, -6.5115)
Calculating the Dipole integrals                  ... done
Transforming integrals                            ... done
Calculating the Linear Momentum integrals         ... done
Transforming integrals                            ... done
Calculating angular momentum integrals            ... done
Transforming integrals                            ... done

-----------------------------------------------------------------------------
         ABSORPTION SPECTRUM VIA TRANSITION ELECTRIC DIPOLE MOMENTS
-----------------------------------------------------------------------------
State   Energy    Wavelength  fosc         T2        TX        TY        TZ  
        (cm-1)      (nm)                 (au**2)    (au)      (au)      (au) 
-----------------------------------------------------------------------------
   1   12931.2    773.3   3.420800307  87.08945  -8.65142  -1.02390   3.34575
   2   14451.7    692.0   0.047619696   1.08479   0.82696  -0.34586  -0.53039
   3   17144.6    583.3   0.118820199   2.28160   1.47733   0.29641  -0.10603
   4   17342.6    576.6   0.316272188   6.00376  -2.35949  -0.16634   0.63945
   5   18929.4    528.3   0.404195658   7.02958  -2.44171  -0.52797   0.88819
   6   19792.1    505.3   0.183357626   3.04987   0.89263  -1.29280  -0.76272
   7   21497.4    465.2   0.004422222   0.06772  -0.09776   0.00454   0.24113
   8   21898.4    456.7   0.036345402   0.54640   0.66346   0.08134  -0.31560
   9   21946.4    455.7   0.100846637   1.51277   0.98851   0.05400  -0.72987
  10   22219.0    450.1   0.094364851   1.39818  -1.01625   0.49206   0.35113
  11   22762.3    439.3   0.167600977   2.42402   1.45325   0.47236  -0.29824
  12   23539.7    424.8   0.005349340   0.07481  -0.13911   0.23550  -0.00100
  13   23624.8    423.3   0.002301300   0.03207  -0.14619   0.04149  -0.09475
  14   23903.6    418.3   0.006156380   0.08479  -0.19183  -0.05943  -0.21085
  15   24069.4    415.5   0.000602157   0.00824   0.00709   0.00471   0.09035
  16   24233.3    412.7   0.005873157   0.07979   0.27020  -0.03895  -0.07254
  17   25147.6    397.7   0.048238338   0.63150  -0.49642  -0.62040  -0.01290
  18   25472.0    392.6   0.008377659   0.10828  -0.29521   0.07922  -0.12188
  19   25525.1    391.8   0.004690178   0.06049  -0.08309   0.08119  -0.21678
  20   25617.5    390.4   0.011009503   0.14148  -0.26388  -0.02640  -0.26675
  21   25990.1    384.8   0.005933088   0.07515   0.25180  -0.05201   0.09511
  22   26089.8    383.3   0.004067645   0.05133   0.00589  -0.14067  -0.17749
  23   26271.7    380.6   0.001437535   0.01801   0.00991  -0.13217   0.02116
  24   26463.9    377.9   0.016569048   0.20612  -0.37447   0.09357  -0.23903
  25   26583.6    376.2   0.002308832   0.02859  -0.00615   0.03088  -0.16614
  26   26779.9    373.4   0.014097764   0.17331   0.25515   0.32348  -0.05974
  27   27003.1    370.3   0.007643909   0.09319   0.05112  -0.29678   0.05003
  28   27317.6    366.1   0.026786530   0.32281   0.23089  -0.34451  -0.38835
  29   27505.9    363.6   0.001083918   0.01297   0.03778  -0.01727   0.10605
  30   27589.7    362.5   0.014192258   0.16935   0.24611   0.32761   0.03806
  31   27869.9    358.8   0.010128453   0.11964  -0.18726  -0.27819   0.08475
  32   27947.7    357.8   0.000725824   0.00855  -0.04118  -0.08003  -0.02120
  33   27973.0    357.5   0.002664028   0.03135   0.08700   0.13748  -0.06987
  34   28045.8    356.6   0.001992155   0.02338  -0.13656  -0.01362   0.06746
  35   28065.6    356.3   0.008553347   0.10033   0.28986  -0.00802   0.12746
  36   28192.5    354.7   0.013952410   0.16293   0.31651  -0.20776  -0.13994
  37   28241.5    354.1   0.010689831   0.12461   0.23994  -0.25103   0.06346
  38   28415.8    351.9   0.029261052   0.33900  -0.47886  -0.02237  -0.33044
  39   28461.8    351.3   0.030842205   0.35675  -0.58697   0.03024   0.10628
  40   28526.0    350.6   0.016752530   0.19334  -0.29455   0.32278   0.04893
  41   28613.8    349.5   0.003597252   0.04139   0.16682   0.04391   0.10785
  42   28684.3    348.6   0.006261125   0.07186   0.20899   0.07976  -0.14772
  43   28826.5    346.9   0.024797565   0.28320  -0.43130  -0.29137  -0.11082
  44   28910.2    345.9   0.002946872   0.03356  -0.12260  -0.02666  -0.13348
  45   28991.3    344.9   0.037026872   0.42046   0.46005   0.41481  -0.19170
  46   29142.7    343.1   0.003232445   0.03652   0.16085   0.09496  -0.04030
  47   29436.8    339.7   0.004770391   0.05335  -0.19824   0.10864   0.04739
  48   29576.7    338.1   0.000704816   0.00785  -0.05790  -0.05674  -0.03569
  49   29690.2    336.8   0.008659033   0.09601  -0.27357  -0.10611  -0.09958
  50   29803.3    335.5   0.007139438   0.07886  -0.12965  -0.02304  -0.24804

-----------------------------------------------------------------------------
         ABSORPTION SPECTRUM VIA TRANSITION VELOCITY DIPOLE MOMENTS
-----------------------------------------------------------------------------
State   Energy    Wavelength   fosc        P2         PX        PY        PZ  
        (cm-1)      (nm)                 (au**2)     (au)      (au)      (au) 
-----------------------------------------------------------------------------
   1   12931.2    773.3   0.575079568   0.05082   0.20821   0.03208  -0.08027
   2   14451.7    692.0   0.011893759   0.00117  -0.03407   0.00284  -0.00236
   3   17144.6    583.3   0.041821104   0.00490  -0.04596  -0.01264   0.05127
   4   17342.6    576.6   0.168302370   0.01995   0.09345  -0.01199  -0.10522
   5   18929.4    528.3   0.164406902   0.02127   0.14192   0.03258  -0.00813
   6   19792.1    505.3   0.036290880   0.00491  -0.06315   0.02701   0.01385
   7   21497.4    465.2   0.003418739   0.00050   0.01904   0.00422   0.01104
   8   21898.4    456.7   0.009211316   0.00138  -0.03586  -0.00611   0.00745
   9   21946.4    455.7   0.036067746   0.00541  -0.07060  -0.00658   0.01957
  10   22219.0    450.1   0.032908471   0.00500   0.05941  -0.01162  -0.03651
  11   22762.3    439.3   0.078773778   0.01225  -0.09718  -0.01946   0.04931
  12   23539.7    424.8   0.008728396   0.00140   0.00899  -0.00214  -0.03632
  13   23624.8    423.3   0.008355868   0.00135   0.01420   0.00170  -0.03383
  14   23903.6    418.3   0.011635501   0.00190   0.02625   0.01016   0.03329
  15   24069.4    415.5   0.000948125   0.00016  -0.00429  -0.00095  -0.01169
  16   24233.3    412.7   0.009726605   0.00161  -0.02047   0.00179   0.03448
  17   25147.6    397.7   0.020008332   0.00344   0.02348  -0.00894  -0.05299
  18   25472.0    392.6   0.014678142   0.00256  -0.01861   0.01559  -0.04434
  19   25525.1    391.8   0.006304616   0.00110  -0.01850  -0.01858   0.02030
  20   25617.5    390.4   0.002736278   0.00048   0.00731   0.01004  -0.01802
  21   25990.1    384.8   0.007838321   0.00139  -0.02288  -0.00009  -0.02948
  22   26089.8    383.3   0.014636706   0.00261  -0.00750   0.01954  -0.04660
  23   26271.7    380.6   0.005945692   0.00107   0.01238   0.01834   0.02404
  24   26463.9    377.9   0.000204320   0.00004   0.00536   0.00041  -0.00285
  25   26583.6    376.2   0.003543751   0.00064  -0.02315   0.01025   0.00162
  26   26779.9    373.4   0.004470141   0.00082  -0.01211   0.01536  -0.02087
  27   27003.1    370.3   0.006444549   0.00119  -0.01566  -0.00416  -0.03044
  28   27317.6    366.1   0.029204512   0.00545  -0.06065  -0.01591  -0.03900
  29   27505.9    363.6   0.000815673   0.00015   0.00155   0.00457   0.01140
  30   27589.7    362.5   0.004920730   0.00093  -0.02755   0.00641   0.01130
  31   27869.9    358.8   0.004553760   0.00087   0.02643   0.01060  -0.00754
  32   27947.7    357.8   0.000572929   0.00011   0.00990  -0.00136  -0.00309
  33   27973.0    357.5   0.000913220   0.00017  -0.01280  -0.00323  -0.00046
  34   28045.8    356.6   0.001553638   0.00030   0.01619   0.00131   0.00582
  35   28065.6    356.3   0.000163184   0.00003  -0.00529   0.00079   0.00164
  36   28192.5    354.7   0.020738271   0.00400  -0.03804  -0.00074  -0.05048
  37   28241.5    354.1   0.010183203   0.00197  -0.04429   0.00182   0.00100
  38   28415.8    351.9   0.007107871   0.00138   0.00463  -0.00690  -0.03621
  39   28461.8    351.3   0.021604794   0.00420   0.06314   0.01460  -0.00172
  40   28526.0    350.6   0.001575132   0.00031   0.01503   0.00376  -0.00819
  41   28613.8    349.5   0.000066414   0.00001   0.00038   0.00357   0.00033
  42   28684.3    348.6   0.001852285   0.00036  -0.01688  -0.00484   0.00740
  43   28826.5    346.9   0.005312214   0.00105   0.02275   0.00344  -0.02274
  44   28910.2    345.9   0.002355824   0.00047  -0.01011   0.00064  -0.01905
  45   28991.3    344.9   0.029949737   0.00593  -0.07536  -0.00488  -0.01521
  46   29142.7    343.1   0.003281455   0.00065  -0.02444  -0.00099  -0.00745
  47   29436.8    339.7   0.001234070   0.00025   0.01391   0.00592  -0.00444
  48   29576.7    338.1   0.000043383   0.00001  -0.00217  -0.00138  -0.00147
  49   29690.2    336.8   0.000431142   0.00009   0.00286  -0.00240  -0.00858
  50   29803.3    335.5   0.000201408   0.00004  -0.00213  -0.00320  -0.00512

-------------------------------------------------------------------
                             CD SPECTRUM
-------------------------------------------------------------------
State  Energy     Wavelength     R         MX        MY        MZ   
       (cm-1)       (nm)     (1e40*cgs)   (au)      (au)      (au)  
-------------------------------------------------------------------
   1   12931.2    773.3    -66.19997  -0.19211  -0.69242  -0.75063
   2   14451.7    692.0    -67.01629  -0.01974   0.31834   0.02964
   3   17144.6    583.3    -61.55061   0.00918  -0.42464   0.17215
   4   17342.6    576.6    -173.45418   0.16325  -0.66866  -0.14694
   5   18929.4    528.3     53.76514  -0.11948  -0.16388  -0.29748
   6   19792.1    505.3      5.09476   0.14516   0.02279   0.11709
   7   21497.4    465.2     -0.68851   0.01264  -0.01078  -0.00073
   8   21898.4    456.7     12.87475   0.10003  -0.06119   0.10799
   9   21946.4    455.7     14.54723   0.15387  -0.08123   0.16011
  10   22219.0    450.1    110.73941  -0.12250   0.35057  -0.17684
  11   22762.3    439.3    -23.02484  -0.05562   0.20887   0.22354
  12   23539.7    424.8    -12.56265  -0.00591  -0.11665  -0.00190
  13   23624.8    423.3     -2.09583  -0.00753  -0.05064   0.03637
  14   23903.6    418.3    -10.19803   0.01763  -0.00964   0.08927
  15   24069.4    415.5      0.11761  -0.00427  -0.02335   0.00431
  16   24233.3    412.7      1.44295   0.01831   0.03516   0.00712
  17   25147.6    397.7     78.29838   0.16575  -0.40297   0.12747
  18   25472.0    392.6      6.05891  -0.03436  -0.04771  -0.05322
  19   25525.1    391.8    -14.98645   0.04922   0.59361   0.35009
  20   25617.5    390.4     -2.99462   0.02318   0.01027  -0.00014
  21   25990.1    384.8    -10.02483  -0.04137   0.26844   0.03275
  22   26089.8    383.3     -7.90284  -0.05779   0.13925  -0.01784
  23   26271.7    380.6     -4.72644  -0.02037   0.08260   0.05167
  24   26463.9    377.9      6.67069  -0.00294  -0.05839  -0.07744
  25   26583.6    376.2      7.30719  -0.04377   0.24939  -0.04532
  26   26779.9    373.4    -21.93418  -0.01951  -0.14424  -0.08558
  27   27003.1    370.3    -12.53190   0.03020   0.10636   0.06873
  28   27317.6    366.1     29.17682   0.11817   0.05133  -0.13464
  29   27505.9    363.6      2.38294  -0.00288   0.02262   0.05237
  30   27589.7    362.5     18.17072  -0.05959   0.15265   0.08403
  31   27869.9    358.8     -2.20987   0.02606  -0.02600  -0.08310
  32   27947.7    357.8     -2.63159  -0.06574   0.08679   0.06335
  33   27973.0    357.5     -0.10980   0.01381  -0.03541  -0.04916
  34   28045.8    356.6      0.43834   0.00501   0.04444   0.03291
  35   28065.6    356.3     -2.04676  -0.02340   0.04041   0.02169
  36   28192.5    354.7     -9.25476  -0.07350  -0.05548   0.05639
  37   28241.5    354.1     -8.02625   0.01908   0.11749   0.12435
  38   28415.8    351.9      1.56765   0.02027  -0.03061  -0.03736
  39   28461.8    351.3      0.57255  -0.01130   0.03232  -0.06017
  40   28526.0    350.6     39.96163  -0.07226   0.19672  -0.00037
  41   28613.8    349.5     -1.29770   0.00530  -0.07456  -0.00337
  42   28684.3    348.6      0.51752   0.02664  -0.06748  -0.00618
  43   28826.5    346.9    -13.45800   0.05558   0.00082   0.03909
  44   28910.2    345.9     -2.82973   0.03257  -0.06254   0.02754
  45   28991.3    344.9      2.21583  -0.05102   0.07907   0.02414
  46   29142.7    343.1      0.19478  -0.02574   0.05438   0.01516
  47   29436.8    339.7    -25.61761   0.03303  -0.41643  -0.05373
  48   29576.7    338.1     -0.31658   0.02112  -0.02628   0.02633
  49   29690.2    336.8      5.20318   0.02207  -0.13339  -0.02931
  50   29803.3    335.5      7.71412  -0.02660   0.05840  -0.05749

Total run time:   228747.209 sec

           *** ORCA-CIS/TD-DFT FINISHED WITHOUT ERROR ***

-----------------------
CIS/TD-DFT TOTAL ENERGY
-----------------------

    E(SCF)  =  -5822.932842623 Eh
    DE(CIS) =      0.058918738 Eh (Root  1)
    ----------------------------- ---------
    E(tot)  =  -5822.873923884 Eh


-------------------------   --------------------
FINAL SINGLE POINT ENERGY     -5822.873923884283
-------------------------   --------------------


                            ***************************************
                            *     ORCA property calculations      *
                            ***************************************

                                    ---------------------
                                    Active property flags
                                    ---------------------
   (+) Dipole Moment


------------------------------------------------------------------------------
                       ORCA ELECTRIC PROPERTIES CALCULATION
------------------------------------------------------------------------------

Dipole Moment Calculation                       ... on
Quadrupole Moment Calculation                   ... off
Polarizability Calculation                      ... off
GBWName                                         ... p-IO2.gbw
Electron density file                           ... p-IO2.scfp
The origin for moment calculation is the CENTER OF MASS  = (20.884279, -4.623835 -6.511533)

-------------
DIPOLE MOMENT
-------------
                                X             Y             Z
Electronic contribution:     11.00511      30.02608      56.89532
Nuclear contribution   :    -11.60895     -29.61927     -59.64403
                        -----------------------------------------
Total Dipole Moment    :     -0.60385       0.40681      -2.74871
                        -----------------------------------------
Magnitude (a.u.)       :      2.84351
Magnitude (Debye)      :      7.22762



--------------------
Rotational spectrum 
--------------------
 
Rotational constants in cm-1:     0.000938     0.000147     0.000142 
Rotational constants in MHz :    28.127019     4.408580     4.248278 

 Dipole components along the rotational axes: 
x,y,z [a.u.] :    -0.486377    -2.793067    -0.218492 
x,y,z [Debye]:    -1.236271    -7.099411    -0.555362 

 

Timings for individual modules:

Sum of individual times         ...   263084.477 sec (=4384.741 min)
GTO integral calculation        ...       14.906 sec (=   0.248 min)   0.0 %
SCF iterations                  ...    34322.114 sec (= 572.035 min)  13.0 %
CIS module                      ...   228747.457 sec (=3812.458 min)  86.9 %
                             ****ORCA TERMINATED NORMALLY****
TOTAL RUN TIME: 3 days 1 hours 4 minutes 47 seconds 184 msec
