
                                 *****************
                                 * O   R   C   A *
                                 *****************

           --- An Ab Initio, DFT and Semiempirical electronic structure package ---

                  #######################################################
                  #                        -***-                        #
                  #          Department of theory and spectroscopy      #
                  #               Directorship: Frank Neese             #
                  #        Max Planck Institute fuer Kohlenforschung    #
                  #                Kaiser Wilhelm Platz 1               #
                  #                 D-45470 Muelheim/Ruhr               #
                  #                      Germany                        #
                  #                                                     #
                  #                  All rights reserved                #
                  #                        -***-                        #
                  #######################################################


                         Program Version 4.2.0 -  RELEASE  -


 With contributions from (in alphabetic order):
   Daniel Aravena         : Magnetic Suceptibility
   Michael Atanasov       : Ab Initio Ligand Field Theory (pilot matlab implementation)
   Alexander A. Auer      : GIAO ZORA, VPT2
   Ute Becker             : Parallelization
   Giovanni Bistoni       : ED, misc. LED, open-shell LED, HFLED
   Martin Brehm           : Molecular dynamics
   Dmytro Bykov           : SCF Hessian
   Vijay G. Chilkuri      : MRCI spin determinant printing, contributions to CSF-ICE
   Dipayan Datta          : RHF DLPNO-CCSD density
   Achintya Kumar Dutta   : EOM-CC, STEOM-CC
   Dmitry Ganyushin       : Spin-Orbit,Spin-Spin,Magnetic field MRCI
   Miquel Garcia          : C-PCM Hessian, Gaussian charge scheme
   Yang Guo               : DLPNO-NEVPT2, CIM, IAO-localization
   Andreas Hansen         : Spin unrestricted coupled pair/coupled cluster methods
   Benjamin Helmich-Paris : CASSCF linear response (MC-RPA)
   Lee Huntington         : MR-EOM, pCC
   Robert Izsak           : Overlap fitted RIJCOSX, COSX-SCS-MP3, EOM
   Christian Kollmar      : KDIIS, OOCD, Brueckner-CCSD(T), CCSD density
   Simone Kossmann        : Meta GGA functionals, TD-DFT gradient, OOMP2, MP2 Hessian
   Martin Krupicka        : AUTO-CI
   Lucas Lang             : DCDCAS
   Dagmar Lenk            : GEPOL surface, SMD
   Dimitrios Liakos       : Extrapolation schemes; Compound Job, initial MDCI parallelization
   Dimitrios Manganas     : Further ROCIS development; embedding schemes
   Dimitrios Pantazis     : SARC Basis sets
   Taras Petrenko         : DFT Hessian,TD-DFT gradient, ASA, ECA, R-Raman, ABS, FL, XAS/XES, NRVS
   Peter Pinski           : DLPNO-MP2, DLPNO-MP2 Gradient
   Christoph Reimann      : Effective Core Potentials
   Marius Retegan         : Local ZFS, SOC
   Christoph Riplinger    : Optimizer, TS searches, QM/MM, DLPNO-CCSD(T), (RO)-DLPNO pert. Triples
   Tobias Risthaus        : Range-separated hybrids, TD-DFT gradient, RPA, STAB
   Michael Roemelt        : Original ROCIS implementation
   Masaaki Saitow         : Open-shell DLPNO-CCSD energy and density
   Barbara Sandhoefer     : DKH picture change effects
   Avijit Sen             : IP-ROCIS
   Kantharuban Sivalingam : CASSCF convergence, NEVPT2, FIC-MRCI
   Bernardo de Souza      : ESD, SOC TD-DFT
   Georgi Stoychev        : AutoAux, RI-MP2 NMR
   Willem Van den Heuvel  : Paramagnetic NMR
   Boris Wezisla          : Elementary symmetry handling
   Frank Wennmohs         : Technical directorship


 We gratefully acknowledge several colleagues who have allowed us to
 interface, adapt or use parts of their codes:
   Stefan Grimme, W. Hujo, H. Kruse,             : VdW corrections, initial TS optimization,
                  C. Bannwarth                     DFT functionals, gCP, sTDA/sTD-DF
   Ed Valeev, F. Pavosevic, A. Kumar             : LibInt (2-el integral package), F12 methods
   Garnet Chan, S. Sharma, J. Yang, R. Olivares  : DMRG
   Ulf Ekstrom                                   : XCFun DFT Library
   Mihaly Kallay                                 : mrcc  (arbitrary order and MRCC methods)
   Andreas Klamt, Michael Diedenhofen            : otool_cosmo (COSMO solvation model)
   Jiri Pittner, Ondrej Demel                    : Mk-CCSD
   Frank Weinhold                                : gennbo (NPA and NBO analysis)
   Christopher J. Cramer and Donald G. Truhlar   : smd solvation model
   Lars Goerigk                                  : TD-DFT with DH, B97 family of functionals
   V. Asgeirsson, H. Jonsson                     : NEB implementation
   FAccTs GmbH                                   : IRC, NEB, NEB-TS, Multilevel, MM, QM/MM, CI optimization
   S Lehtola, MJT Oliveira, MAL Marques          : LibXC Library


 Your calculation uses the libint2 library for the computation of 2-el integrals
 For citations please refer to: http://libint.valeyev.net

 Your ORCA version has been built with support for libXC version: 4.2.3
 For citations please refer to: https://tddft.org/programs/libxc/

 This ORCA versions uses:
   CBLAS   interface :  Fast vector & matrix operations
   LAPACKE interface :  Fast linear algebra routines
   SCALAPACK package :  Parallel linear algebra routines


----- Orbital basis set information -----
Your calculation utilizes the basis: def2-TZVP
   F. Weigend and R. Ahlrichs, Phys. Chem. Chem. Phys. 7, 3297 (2005).

----- AuxJ basis set information -----
Your calculation utilizes the auxiliary basis: def2/J
   F. Weigend, Phys. Chem. Chem. Phys. 8, 1057 (2006).

================================================================================
                                        WARNINGS
                       Please study these warnings very carefully!
================================================================================

INFO   : Checking CIS options ...

WARNING: CIS/ROCIS methods need fully converged wavefunctions
  ===> : Setting SCFConvForced true
         You can overwrite this default with %scf ConvForced false 


INFO   : the flag for use of LIBINT has been found!

================================================================================
                                       INPUT FILE
================================================================================
NAME = PCBM.inp
|  1> # ORCA input file
|  2> # PCBM.out: Geometry 9
|  3> ! B3LYP def2-TZVP def2/J RIJCOSX Grid4 TightSCF
|  4> 
|  5> %maxcore 6000
|  6> %tddft
|  7>   maxdim 5
|  8>   nroots 50
|  9>   end
| 10> %pal
| 11>   nprocs 6
| 12>   end
| 13> 
| 14> 
| 15> * xyz 0 1
| 16>    C        0.36771        -2.43092         1.23868
| 17>    C        0.77804        -2.29688        -0.14141
| 18>    C        1.53282        -1.01517        -0.28437
| 19>    C        1.30375        -0.28798         0.99795
| 20>    C        0.69255        -1.19859         1.93664
| 21>    C       -0.14043        -0.72974         2.95907
| 22>    C       -0.43291         0.68521         3.04127
| 23>    C        0.12358         1.56128         2.09921
| 24>    C        1.00770         1.06518         1.06048
| 25>    C        0.73328         1.83598        -0.16923
| 26>    C        0.76733         1.22475        -1.41408
| 27>    C        1.23331        -0.17886        -1.62404
| 28>    C        0.23405        -0.78204        -2.55338
| 29>    C       -0.30239        -2.04967        -2.37377
| 30>    C       -0.02488        -2.82182        -1.14467
| 31>    C       -1.23553        -3.54624        -0.79898
| 32>    C       -2.25226        -3.23978        -1.79374
| 33>    C       -1.67720        -2.31663        -2.75950
| 34>    C       -2.47181        -1.30244        -3.31001
| 35>    C       -1.92048         0.02616        -3.47135
| 36>    C       -0.60218         0.27600        -3.07301
| 37>    C       -0.27430         1.50760        -2.37425
| 38>    C       -1.27676         2.44595        -2.10031
| 39>    C       -1.29825         3.10464        -0.81225
| 40>    C       -0.31610         2.79231         0.13813
| 41>    C       -0.69073         2.62720         1.53504
| 42>    C       -2.02377         2.77482         1.92787
| 43>    C       -2.60348         1.85585         2.89818
| 44>    C       -1.82370         0.83234         3.44356
| 45>    C       -2.38835        -0.50097         3.61276
| 46>    C       -3.70775        -0.75645         3.22645
| 47>    C       -4.51798         0.31151         2.65995
| 48>    C       -3.97676         1.59105         2.50046
| 49>    C       -4.24886         2.35183         1.28723
| 50>    C       -3.04448         3.08617         0.93604
| 51>    C       -2.68887         3.24959        -0.40603
| 52>    C       -3.52629         2.67715        -1.45268
| 53>    C       -2.65150         2.17925        -2.50313
| 54>    C       -2.96654         0.99613        -3.17510
| 55>    C       -4.17094         0.25738        -2.82658
| 56>    C       -3.86402        -1.16537        -2.90938
| 57>    C       -4.41302        -2.05330        -1.97990
| 58>    C       -3.59207        -3.11601        -1.41446
| 59>    C       -3.97251        -3.28550        -0.01809
| 60>    C       -5.01846        -2.32034         0.28164
| 61>    C       -5.29031        -1.55900        -0.93135
| 62>    C       -5.58230        -0.19393        -0.84929
| 63>    C       -5.01096         0.73287        -1.81530
| 64>    C       -4.68323         1.96782        -1.11530
| 65>    C       -5.05169         1.80244         0.28292
| 66>    C       -5.60918         0.46754         0.44722
| 67>    C       -5.34878        -0.26219         1.61050
| 68>    C       -5.04959        -1.68471         1.52693
| 69>    C       -4.03575        -1.99107         2.52534
| 70>    C       -3.03207        -2.92221         2.23914
| 71>    C       -2.99855        -3.58208         0.94000
| 72>    C       -1.60524        -3.72155         0.54157
| 73>    C       -0.78362        -3.14711         1.58535
| 74>    C       -1.65894        -2.65272         2.63943
| 75>    C       -1.34451        -1.46962         3.31181
| 76>    C        2.60837        -0.71219        -1.29726
| 77>    C        3.13968        -1.88572        -2.11697
| 78>    C        3.65192         0.30575        -0.91521
| 79>    C        4.34371         0.21802         0.29967
| 80>    C        5.33534         1.14913         0.62002
| 81>    C        5.64864         2.17637        -0.27410
| 82>    C        4.96508         2.26887        -1.49086
| 83>    C        3.97331         1.33823        -1.80744
| 84>    H        5.86254         1.07281         1.57340
| 85>    H        6.42113         2.90630        -0.02042
| 86>    H        4.09706        -0.57775         1.00494
| 87>    H        3.42902         1.41840        -2.75156
| 88>    H        5.20201         3.07014        -2.19483
| 89>    C        3.94343        -2.87170        -1.27207
| 90>    H        3.75971        -1.47648        -2.93214
| 91>    H        2.30584        -2.41540        -2.59955
| 92>    H        3.31155        -3.26133        -0.45853
| 93>    C        4.47418        -4.04597        -2.08483
| 94>    H        4.78310        -2.35818        -0.77756
| 95>    H        5.18379        -3.72405        -2.86523
| 96>    H        3.65713        -4.55708        -2.62604
| 97>    C        5.15888        -5.08414        -1.22338
| 98>    O        5.15402        -5.10418        -0.01655
| 99>    O        5.77912        -6.01188        -1.97492
|100>    C        6.45141        -7.04878        -1.26138
|101>    H        6.95116        -7.66889        -2.01610
|102>    H        5.73566        -7.65397        -0.68331
|103>    H        7.18900        -6.62654        -0.56256
|104> *
|105> 
|106>                          ****END OF INPUT****
================================================================================

                       ****************************
                       * Single Point Calculation *
                       ****************************

---------------------------------
CARTESIAN COORDINATES (ANGSTROEM)
---------------------------------
  C      0.367710   -2.430920    1.238680
  C      0.778040   -2.296880   -0.141410
  C      1.532820   -1.015170   -0.284370
  C      1.303750   -0.287980    0.997950
  C      0.692550   -1.198590    1.936640
  C     -0.140430   -0.729740    2.959070
  C     -0.432910    0.685210    3.041270
  C      0.123580    1.561280    2.099210
  C      1.007700    1.065180    1.060480
  C      0.733280    1.835980   -0.169230
  C      0.767330    1.224750   -1.414080
  C      1.233310   -0.178860   -1.624040
  C      0.234050   -0.782040   -2.553380
  C     -0.302390   -2.049670   -2.373770
  C     -0.024880   -2.821820   -1.144670
  C     -1.235530   -3.546240   -0.798980
  C     -2.252260   -3.239780   -1.793740
  C     -1.677200   -2.316630   -2.759500
  C     -2.471810   -1.302440   -3.310010
  C     -1.920480    0.026160   -3.471350
  C     -0.602180    0.276000   -3.073010
  C     -0.274300    1.507600   -2.374250
  C     -1.276760    2.445950   -2.100310
  C     -1.298250    3.104640   -0.812250
  C     -0.316100    2.792310    0.138130
  C     -0.690730    2.627200    1.535040
  C     -2.023770    2.774820    1.927870
  C     -2.603480    1.855850    2.898180
  C     -1.823700    0.832340    3.443560
  C     -2.388350   -0.500970    3.612760
  C     -3.707750   -0.756450    3.226450
  C     -4.517980    0.311510    2.659950
  C     -3.976760    1.591050    2.500460
  C     -4.248860    2.351830    1.287230
  C     -3.044480    3.086170    0.936040
  C     -2.688870    3.249590   -0.406030
  C     -3.526290    2.677150   -1.452680
  C     -2.651500    2.179250   -2.503130
  C     -2.966540    0.996130   -3.175100
  C     -4.170940    0.257380   -2.826580
  C     -3.864020   -1.165370   -2.909380
  C     -4.413020   -2.053300   -1.979900
  C     -3.592070   -3.116010   -1.414460
  C     -3.972510   -3.285500   -0.018090
  C     -5.018460   -2.320340    0.281640
  C     -5.290310   -1.559000   -0.931350
  C     -5.582300   -0.193930   -0.849290
  C     -5.010960    0.732870   -1.815300
  C     -4.683230    1.967820   -1.115300
  C     -5.051690    1.802440    0.282920
  C     -5.609180    0.467540    0.447220
  C     -5.348780   -0.262190    1.610500
  C     -5.049590   -1.684710    1.526930
  C     -4.035750   -1.991070    2.525340
  C     -3.032070   -2.922210    2.239140
  C     -2.998550   -3.582080    0.940000
  C     -1.605240   -3.721550    0.541570
  C     -0.783620   -3.147110    1.585350
  C     -1.658940   -2.652720    2.639430
  C     -1.344510   -1.469620    3.311810
  C      2.608370   -0.712190   -1.297260
  C      3.139680   -1.885720   -2.116970
  C      3.651920    0.305750   -0.915210
  C      4.343710    0.218020    0.299670
  C      5.335340    1.149130    0.620020
  C      5.648640    2.176370   -0.274100
  C      4.965080    2.268870   -1.490860
  C      3.973310    1.338230   -1.807440
  H      5.862540    1.072810    1.573400
  H      6.421130    2.906300   -0.020420
  H      4.097060   -0.577750    1.004940
  H      3.429020    1.418400   -2.751560
  H      5.202010    3.070140   -2.194830
  C      3.943430   -2.871700   -1.272070
  H      3.759710   -1.476480   -2.932140
  H      2.305840   -2.415400   -2.599550
  H      3.311550   -3.261330   -0.458530
  C      4.474180   -4.045970   -2.084830
  H      4.783100   -2.358180   -0.777560
  H      5.183790   -3.724050   -2.865230
  H      3.657130   -4.557080   -2.626040
  C      5.158880   -5.084140   -1.223380
  O      5.154020   -5.104180   -0.016550
  O      5.779120   -6.011880   -1.974920
  C      6.451410   -7.048780   -1.261380
  H      6.951160   -7.668890   -2.016100
  H      5.735660   -7.653970   -0.683310
  H      7.189000   -6.626540   -0.562560

----------------------------
CARTESIAN COORDINATES (A.U.)
----------------------------
  NO LB      ZA    FRAG     MASS         X           Y           Z
   0 C     6.0000    0    12.011    0.694871   -4.593773    2.340766
   1 C     6.0000    0    12.011    1.470283   -4.340474   -0.267226
   2 C     6.0000    0    12.011    2.896610   -1.918393   -0.537381
   3 C     6.0000    0    12.011    2.463730   -0.544203    1.885852
   4 C     6.0000    0    12.011    1.308730   -2.265007    3.659719
   5 C     6.0000    0    12.011   -0.265374   -1.379009    5.591832
   6 C     6.0000    0    12.011   -0.818081    1.294859    5.747167
   7 C     6.0000    0    12.011    0.233532    2.950392    3.966932
   8 C     6.0000    0    12.011    1.904277    2.012898    2.004017
   9 C     6.0000    0    12.011    1.385698    3.469499   -0.319798
  10 C     6.0000    0    12.011    1.450044    2.314442   -2.672224
  11 C     6.0000    0    12.011    2.330618   -0.337996   -3.068991
  12 C     6.0000    0    12.011    0.442290   -1.477841   -4.825189
  13 C     6.0000    0    12.011   -0.571434   -3.873315   -4.485775
  14 C     6.0000    0    12.011   -0.047016   -5.332467   -2.163113
  15 C     6.0000    0    12.011   -2.334813   -6.701422   -1.509853
  16 C     6.0000    0    12.011   -4.256155   -6.122297   -3.389677
  17 C     6.0000    0    12.011   -3.169449   -4.377796   -5.214699
  18 C     6.0000    0    12.011   -4.671044   -2.461255   -6.255012
  19 C     6.0000    0    12.011   -3.629181    0.049435   -6.559901
  20 C     6.0000    0    12.011   -1.137955    0.521564   -5.807147
  21 C     6.0000    0    12.011   -0.518352    2.848951   -4.486682
  22 C     6.0000    0    12.011   -2.412727    4.622176   -3.969011
  23 C     6.0000    0    12.011   -2.453337    5.866919   -1.534930
  24 C     6.0000    0    12.011   -0.597342    5.276701    0.261028
  25 C     6.0000    0    12.011   -1.305291    4.964688    2.900805
  26 C     6.0000    0    12.011   -3.824371    5.243650    3.643146
  27 C     6.0000    0    12.011   -4.919864    3.507048    5.476766
  28 C     6.0000    0    12.011   -3.446294    1.572895    6.507385
  29 C     6.0000    0    12.011   -4.513327   -0.946696    6.827127
  30 C     6.0000    0    12.011   -7.006632   -1.429483    6.097107
  31 C     6.0000    0    12.011   -8.537745    0.588669    5.026577
  32 C     6.0000    0    12.011   -7.514987    3.006649    4.725185
  33 C     6.0000    0    12.011   -8.029182    4.444315    2.432512
  34 C     6.0000    0    12.011   -5.753233    5.832016    1.768859
  35 C     6.0000    0    12.011   -5.081228    6.140835   -0.767286
  36 C     6.0000    0    12.011   -6.663722    5.059080   -2.745167
  37 C     6.0000    0    12.011   -5.010609    4.118186   -4.730230
  38 C     6.0000    0    12.011   -5.605948    1.882413   -6.000069
  39 C     6.0000    0    12.011   -7.881934    0.486378   -5.341462
  40 C     6.0000    0    12.011   -7.301940   -2.202230   -5.497931
  41 C     6.0000    0    12.011   -8.339399   -3.880175   -3.741469
  42 C     6.0000    0    12.011   -6.788029   -5.888406   -2.672942
  43 C     6.0000    0    12.011   -7.506956   -6.208695   -0.034185
  44 C     6.0000    0    12.011   -9.483515   -4.384807    0.532222
  45 C     6.0000    0    12.011   -9.997237   -2.946083   -1.759996
  46 C     6.0000    0    12.011  -10.549018   -0.366475   -1.604926
  47 C     6.0000    0    12.011   -9.469342    1.384924   -3.430420
  48 C     6.0000    0    12.011   -8.850022    3.718641   -2.107612
  49 C     6.0000    0    12.011   -9.546311    3.406118    0.534641
  50 C     6.0000    0    12.011  -10.599814    0.883523    0.845123
  51 C     6.0000    0    12.011  -10.107729   -0.495467    3.043404
  52 C     6.0000    0    12.011   -9.542342   -3.183641    2.885480
  53 C     6.0000    0    12.011   -7.626462   -3.762577    4.772201
  54 C     6.0000    0    12.011   -5.729782   -5.522177    4.231361
  55 C     6.0000    0    12.011   -5.666438   -6.769150    1.776343
  56 C     6.0000    0    12.011   -3.033464   -7.032710    1.023419
  57 C     6.0000    0    12.011   -1.480827   -5.947176    2.995877
  58 C     6.0000    0    12.011   -3.134942   -5.012914    4.987800
  59 C     6.0000    0    12.011   -2.540756   -2.777179    6.258414
  60 C     6.0000    0    12.011    4.929105   -1.345844   -2.451466
  61 C     6.0000    0    12.011    5.933135   -3.563494   -4.000494
  62 C     6.0000    0    12.011    6.901129    0.577784   -1.729496
  63 C     6.0000    0    12.011    8.208422    0.411998    0.566294
  64 C     6.0000    0    12.011   10.082331    2.171541    1.171668
  65 C     6.0000    0    12.011   10.674383    4.112743   -0.517974
  66 C     6.0000    0    12.011    9.382641    4.287543   -2.817317
  67 C     6.0000    0    12.011    7.508468    2.528888   -3.415567
  68 H     1.0000    0     1.008   11.078595    2.027317    2.973295
  69 H     1.0000    0     1.008   12.134177    5.492111   -0.038588
  70 H     1.0000    0     1.008    7.742321   -1.091789    1.899061
  71 H     1.0000    0     1.008    6.479909    2.680388   -5.199695
  72 H     1.0000    0     1.008    9.830374    5.801724   -4.147628
  73 C     6.0000    0    12.011    7.452003   -5.426727   -2.403864
  74 H     1.0000    0     1.008    7.104822   -2.790143   -5.540942
  75 H     1.0000    0     1.008    4.357406   -4.564445   -4.912438
  76 H     1.0000    0     1.008    6.257923   -6.163021   -0.866496
  77 C     6.0000    0    12.011    8.454975   -7.645775   -3.939758
  78 H     1.0000    0     1.008    9.038749   -4.456314   -1.469375
  79 H     1.0000    0     1.008    9.795943   -7.037435   -5.414500
  80 H     1.0000    0     1.008    6.910974   -8.611633   -4.962496
  81 C     6.0000    0    12.011    9.748870   -9.607632   -2.311853
  82 O     8.0000    0    15.999    9.739686   -9.645502   -0.031275
  83 O     8.0000    0    15.999   10.920954  -11.360807   -3.732058
  84 C     6.0000    0    12.011   12.191398  -13.320264   -2.383663
  85 H     1.0000    0     1.008   13.135789  -14.492102   -3.809877
  86 H     1.0000    0     1.008   10.838827  -14.463907   -1.291269
  87 H     1.0000    0     1.008   13.585241  -12.522346   -1.063084

--------------------------------
INTERNAL COORDINATES (ANGSTROEM)
--------------------------------
 C      0   0   0     0.000000000000     0.00000000     0.00000000
 C      1   0   0     1.446024148692     0.00000000     0.00000000
 C      2   1   0     1.494292787274   108.30941915     0.00000000
 C      3   2   1     1.491852185506   104.96947721   348.86497580
 C      4   3   2     1.443577129287   108.44876858    11.22856336
 C      5   4   3     1.399656782143   121.04241483   207.73700181
 C      6   5   4     1.447198981792   119.29315055     2.43886289
 C      7   6   5     1.401662159224   119.51695426   359.88131157
 C      4   3   2     1.386577653433   123.17788451   223.80466056
 C      9   4   3     1.477032721540   120.75733274     7.80800983
 C     10   9   4     1.387232149966   120.83761078   359.90498308
 C     11  10   9     1.493767583696   123.21659046   352.45162814
 C     12  11  10     1.491985085582   104.98120968   135.76472495
 C     13  12  11     1.388133078130   123.18973389   224.37614983
 C      2   1   3     1.388082547113   119.38104814   212.00382813
 C     15   2   1     1.452569907096   119.91379674   357.44073025
 C     16  15   2     1.455061882567   108.33917676   143.54356930
 C     14  13  12     1.452638224266   119.94755202   145.87808652
 C     18  14  13     1.401088030175   120.53457948   359.82712242
 C     19  18  14     1.447471355330   119.48466942   358.89927330
 C     20  19  18     1.399646266454   119.39812274   359.93010981
 C     11  10   9     1.444618845336   119.50283210   135.94542405
 C     22  11  10     1.400167810550   121.15887698     3.68566238
 C     23  22  11     1.446870035560   119.33422167   357.56373053
 C     24  23  22     1.401923962203   119.45063574     0.00000000
 C      8   7   6     1.455188651481   119.75073937   138.14880872
 C     26   8   7     1.397534512955   120.14317344   359.81581073
 C     27  26   8     1.456733002681   120.01195396   359.63794250
 C     28  27  26     1.397522419462   119.99375652     0.46129408
 C     29  28  27     1.457797591780   119.93439910   221.86259620
 C     30  29  28     1.398328218445   120.03342947     0.17043996
 C     31  30  29     1.455312153629   119.91932912   359.77168999
 C     32  31  30     1.398420094285   120.02493928     0.09338444
 C     33  32  31     1.457652788321   120.01541984   138.39958983
 C     34  33  32     1.453657743797   108.06394805   217.24528632
 C     35  34  33     1.397968688276   120.11508664   143.02330041
 C     36  35  34     1.457544521618   119.82267107   359.76249073
 C     37  36  35     1.454856404117   107.90424475   217.69771695
 C     38  37  36     1.396626942637   120.11098501   142.55913978
 C     39  38  37     1.455265306705   120.09893146     0.00000000
 C     19  18  14     1.455177400147   120.17253509   221.26634954
 C     41  19  18     1.397767418171   119.93472453   359.55623024
 C     17  16  15     1.397949629779   120.18919698   216.32996692
 C     43  17  16     1.457158409577   119.99472966     0.39539647
 C     44  43  17     1.454435732853   107.94193947   142.06946887
 C     42  41  19     1.453763163861   120.04309305   138.07272551
 C     46  42  41     1.398359077133   120.01681279   359.79859276
 C     40  39  38     1.398002710620   119.85931469   359.85877358
 C     37  36  35     1.398386383265   120.08669126     0.08015394
 C     34  33  32     1.398214560466   119.99637947     0.02973412
 C     47  46  42     1.455748355795   119.97932194   221.92473463
 C     51  47  46     1.397688946547   120.03799896   359.73389369
 C     45  44  43     1.398478372339   120.07475492   217.64556405
 C     53  45  44     1.455524140404   119.97588696   359.88183558
 C     54  53  45     1.398679978408   119.97347892   359.92071264
 C     44  43  17     1.398032269334   119.96768785   359.50528304
 C     16  15   2     1.401603860832   120.65333274     0.05400834
 C      1   2   3     1.399524552804   121.15049357   151.74262831
 C     55  54  53     1.455452830256   119.83214690   137.98303978
 C     59  55  54     1.396669860525   120.10877450     0.22391899
 C      3   2   1     1.508161408802   126.64009602   152.30313713
 C     61   3   2     1.526888162604   117.02021653   349.67329598
 C     61   3   2     1.507037042876   117.33935565   207.75020388
 C     63  61   3     1.400786697324   121.30108587    50.62988522
 C     64  63  61     1.397469145098   120.49882406   178.14563325
 C     65  64  63     1.397436754204   120.14518546   359.80193016
 C     66  65  64     1.398683459972   119.71283562     0.02311668
 C     67  66  65     1.396395874707   120.01673762     0.07142166
 H     65  64  63     1.092107140715   119.74228640   179.61185839
 H     66  65  64     1.092653717973   120.06747803   179.73004828
 H     64  63  61     1.091554803159   119.63218470   357.45594937
 H     68  67  66     1.092722017441   120.05006283   179.12392481
 H     67  66  65     1.092585556696   120.20080003   179.85997890
 C     62  61   3     1.527097453635   112.47975835   291.34728780
 H     62  61   3     1.102912828559   107.89212129   169.03086928
 H     62  61   3     1.099424169463   109.99982009    53.47342163
 H     74  62  61     1.101331559023   109.58111362    58.68740346
 C     74  62  61     1.523543374177   112.69592735   179.91027899
 H     74  62  61     1.101493821771   110.40170119   302.65948472
 H     78  74  62     1.102815940445   112.12778866    63.09972297
 H     78  74  62     1.105310996372   111.10637997   305.54533567
 C     78  74  62     1.512847362228   112.50811626   185.31674051
 O     82  78  74     1.207006159926   125.37399191     9.18960006
 O     82  78  74     1.345441019443   111.33134733   188.63054193
 C     84  82  78     1.426981003973   116.03533044   180.46086996
 H     85  84  82     1.097218644118   106.33825842   183.72038871
 H     85  84  82     1.101234726795   110.83028306    63.86037376
 H     85  84  82     1.100306783629   110.76605511   303.68491393

---------------------------
INTERNAL COORDINATES (A.U.)
---------------------------
 C      0   0   0     0.000000000000     0.00000000     0.00000000
 C      1   0   0     2.732589624064     0.00000000     0.00000000
 C      2   1   0     2.823804131842   108.30941915     0.00000000
 C      3   2   1     2.819192062899   104.96947721   348.86497580
 C      4   3   2     2.727965427544   108.44876858    11.22856336
 C      5   4   3     2.644967999736   121.04241483   207.73700181
 C      6   5   4     2.734809736877   119.29315055     2.43886289
 C      7   6   5     2.648757613214   119.51695426   359.88131157
 C      4   3   2     2.620252028404   123.17788451   223.80466056
 C      9   4   3     2.791187334551   120.75733274     7.80800983
 C     10   9   4     2.621488847607   120.83761078   359.90498308
 C     11  10   9     2.822811640914   123.21659046   352.45162814
 C     12  11  10     2.819443207646   104.98120968   135.76472495
 C     13  12  11     2.623191355104   123.18973389   224.37614983
 C      2   1   3     2.623095865320   119.38104814   212.00382813
 C     15   2   1     2.744959314786   119.91379674   357.44073025
 C     16  15   2     2.749668465960   108.33917676   143.54356930
 C     14  13  12     2.745088415529   119.94755202   145.87808652
 C     18  14  13     2.647672666546   120.53457948   359.82712242
 C     19  18  14     2.735324448269   119.48466942   358.89927330
 C     20  19  18     2.644948127964   119.39812274   359.93010981
 C     11  10   9     2.729933985587   119.50283210   135.94542405
 C     22  11  10     2.645933703471   121.15887698     3.68566238
 C     23  22  11     2.734188118584   119.33422167   357.56373053
 C     24  23  22     2.649252349146   119.45063574     0.00000000
 C      8   7   6     2.749908024490   119.75073937   138.14880872
 C     26   8   7     2.640957492188   120.14317344   359.81581073
 C     27  26   8     2.752826425312   120.01195396   359.63794250
 C     28  27  26     2.640934638799   119.99375652     0.46129408
 C     29  28  27     2.754838207154   119.93439910   221.86259620
 C     30  29  28     2.642457378195   120.03342947     0.17043996
 C     31  30  29     2.750141409726   119.91932912   359.77168999
 C     32  31  30     2.642630998371   120.02493928     0.09338444
 C     33  32  31     2.754564568273   120.01541984   138.39958983
 C     34  33  32     2.747015028230   108.06394805   217.24528632
 C     35  34  33     2.641777964639   120.11508664   143.02330041
 C     36  35  34     2.754359973856   119.82267107   359.76249073
 C     37  36  35     2.749280167962   107.90424475   217.69771695
 C     38  37  36     2.639242432840   120.11098501   142.55913978
 C     39  38  37     2.750052881870   120.09893146     0.00000000
 C     19  18  14     2.749886762550   120.17253509   221.26634954
 C     41  19  18     2.641397619261   119.93472453   359.55623024
 C     17  16  15     2.641741949299   120.18919698   216.32996692
 C     43  17  16     2.753630327840   119.99472966     0.39539647
 C     44  43  17     2.748485214481   107.94193947   142.06946887
 C     42  41  19     2.747214243281   120.04309305   138.07272551
 C     46  42  41     2.642515692664   120.01681279   359.79859276
 C     40  39  38     2.641842257551   119.85931469   359.85877358
 C     37  36  35     2.642567293775   120.08669126     0.08015394
 C     34  33  32     2.642242595742   119.99637947     0.02973412
 C     47  46  42     2.750965712359   119.97932194   221.92473463
 C     51  47  46     2.641249329383   120.03799896   359.73389369
 C     45  44  43     2.642741127933   120.07475492   217.64556405
 C     53  45  44     2.750542006675   119.97588696   359.88183558
 C     54  53  45     2.643122108190   119.97347892   359.92071264
 C     44  43  17     2.641898115426   119.96768785   359.50528304
 C     16  15   2     2.648647445220   120.65333274     0.05400834
 C      1   2   3     2.644718122497   121.15049357   151.74262831
 C     55  54  53     2.750407250024   119.83214690   137.98303978
 C     59  55  54     2.639323535895   120.10877450     0.22391899
 C      3   2   1     2.850012028385   126.64009602   152.30313713
 C     61   3   2     2.885400464448   117.02021653   349.67329598
 C     61   3   2     2.847887284710   117.33935565   207.75020388
 C     63  61   3     2.647103229982   121.30108587    50.62988522
 C     64  63  61     2.640833964840   120.49882406   178.14563325
 C     65  64  63     2.640772754921   120.14518546   359.80193016
 C     66  65  64     2.643128687393   119.71283562     0.02311668
 C     67  66  65     2.638805777735   120.01673762     0.07142166
 H     65  64  63     2.063783404851   119.74228640   179.61185839
 H     66  65  64     2.064816286180   120.06747803   179.73004828
 H     64  63  61     2.062739638137   119.63218470   357.45594937
 H     68  67  66     2.064945353469   120.05006283   179.12392481
 H     67  66  65     2.064687480033   120.20080003   179.85997890
 C     62  61   3     2.885795967180   112.47975835   291.34728780
 H     62  61   3     2.084203195565   107.89212129   169.03086928
 H     62  61   3     2.077610585299   109.99982009    53.47342163
 H     74  62  61     2.081215029198   109.58111362    58.68740346
 C     74  62  61     2.879079730346   112.69592735   179.91027899
 H     74  62  61     2.081521661354   110.40170119   302.65948472
 H     78  74  62     2.084020103564   112.12778866    63.09972297
 H     78  74  62     2.088735075954   111.10637997   305.54533567
 C     78  74  62     2.858867197036   112.50811626   185.31674051
 O     82  78  74     2.280911084217   125.37399191     9.18960006
 O     82  78  74     2.542515056091   111.33134733   188.63054193
 C     84  82  78     2.696603295817   116.03533044   180.46086996
 H     85  84  82     2.073442746415   106.33825842   183.72038871
 H     85  84  82     2.081032042807   110.83028306    63.86037376
 H     85  84  82     2.079278484355   110.76605511   303.68491393

---------------------
BASIS SET INFORMATION
---------------------
There are 3 groups of distinct atoms

 Group   1 Type C   : 11s6p2d1f contracted to 5s3p2d1f pattern {62111/411/11/1}
 Group   2 Type H   : 5s1p contracted to 3s1p pattern {311/1}
 Group   3 Type O   : 11s6p2d1f contracted to 5s3p2d1f pattern {62111/411/11/1}

Atom   0C    basis set group =>   1
Atom   1C    basis set group =>   1
Atom   2C    basis set group =>   1
Atom   3C    basis set group =>   1
Atom   4C    basis set group =>   1
Atom   5C    basis set group =>   1
Atom   6C    basis set group =>   1
Atom   7C    basis set group =>   1
Atom   8C    basis set group =>   1
Atom   9C    basis set group =>   1
Atom  10C    basis set group =>   1
Atom  11C    basis set group =>   1
Atom  12C    basis set group =>   1
Atom  13C    basis set group =>   1
Atom  14C    basis set group =>   1
Atom  15C    basis set group =>   1
Atom  16C    basis set group =>   1
Atom  17C    basis set group =>   1
Atom  18C    basis set group =>   1
Atom  19C    basis set group =>   1
Atom  20C    basis set group =>   1
Atom  21C    basis set group =>   1
Atom  22C    basis set group =>   1
Atom  23C    basis set group =>   1
Atom  24C    basis set group =>   1
Atom  25C    basis set group =>   1
Atom  26C    basis set group =>   1
Atom  27C    basis set group =>   1
Atom  28C    basis set group =>   1
Atom  29C    basis set group =>   1
Atom  30C    basis set group =>   1
Atom  31C    basis set group =>   1
Atom  32C    basis set group =>   1
Atom  33C    basis set group =>   1
Atom  34C    basis set group =>   1
Atom  35C    basis set group =>   1
Atom  36C    basis set group =>   1
Atom  37C    basis set group =>   1
Atom  38C    basis set group =>   1
Atom  39C    basis set group =>   1
Atom  40C    basis set group =>   1
Atom  41C    basis set group =>   1
Atom  42C    basis set group =>   1
Atom  43C    basis set group =>   1
Atom  44C    basis set group =>   1
Atom  45C    basis set group =>   1
Atom  46C    basis set group =>   1
Atom  47C    basis set group =>   1
Atom  48C    basis set group =>   1
Atom  49C    basis set group =>   1
Atom  50C    basis set group =>   1
Atom  51C    basis set group =>   1
Atom  52C    basis set group =>   1
Atom  53C    basis set group =>   1
Atom  54C    basis set group =>   1
Atom  55C    basis set group =>   1
Atom  56C    basis set group =>   1
Atom  57C    basis set group =>   1
Atom  58C    basis set group =>   1
Atom  59C    basis set group =>   1
Atom  60C    basis set group =>   1
Atom  61C    basis set group =>   1
Atom  62C    basis set group =>   1
Atom  63C    basis set group =>   1
Atom  64C    basis set group =>   1
Atom  65C    basis set group =>   1
Atom  66C    basis set group =>   1
Atom  67C    basis set group =>   1
Atom  68H    basis set group =>   2
Atom  69H    basis set group =>   2
Atom  70H    basis set group =>   2
Atom  71H    basis set group =>   2
Atom  72H    basis set group =>   2
Atom  73C    basis set group =>   1
Atom  74H    basis set group =>   2
Atom  75H    basis set group =>   2
Atom  76H    basis set group =>   2
Atom  77C    basis set group =>   1
Atom  78H    basis set group =>   2
Atom  79H    basis set group =>   2
Atom  80H    basis set group =>   2
Atom  81C    basis set group =>   1
Atom  82O    basis set group =>   3
Atom  83O    basis set group =>   3
Atom  84C    basis set group =>   1
Atom  85H    basis set group =>   2
Atom  86H    basis set group =>   2
Atom  87H    basis set group =>   2
---------------------------------
AUXILIARY/J BASIS SET INFORMATION
---------------------------------
There are 3 groups of distinct atoms

 Group   1 Type C   : 12s5p4d2f1g contracted to 6s4p3d1f1g pattern {711111/2111/211/2/1}
 Group   2 Type H   : 5s2p1d contracted to 3s1p1d pattern {311/2/1}
 Group   3 Type O   : 12s5p4d2f1g contracted to 6s4p3d1f1g pattern {711111/2111/211/2/1}

Atom   0C    basis set group =>   1
Atom   1C    basis set group =>   1
Atom   2C    basis set group =>   1
Atom   3C    basis set group =>   1
Atom   4C    basis set group =>   1
Atom   5C    basis set group =>   1
Atom   6C    basis set group =>   1
Atom   7C    basis set group =>   1
Atom   8C    basis set group =>   1
Atom   9C    basis set group =>   1
Atom  10C    basis set group =>   1
Atom  11C    basis set group =>   1
Atom  12C    basis set group =>   1
Atom  13C    basis set group =>   1
Atom  14C    basis set group =>   1
Atom  15C    basis set group =>   1
Atom  16C    basis set group =>   1
Atom  17C    basis set group =>   1
Atom  18C    basis set group =>   1
Atom  19C    basis set group =>   1
Atom  20C    basis set group =>   1
Atom  21C    basis set group =>   1
Atom  22C    basis set group =>   1
Atom  23C    basis set group =>   1
Atom  24C    basis set group =>   1
Atom  25C    basis set group =>   1
Atom  26C    basis set group =>   1
Atom  27C    basis set group =>   1
Atom  28C    basis set group =>   1
Atom  29C    basis set group =>   1
Atom  30C    basis set group =>   1
Atom  31C    basis set group =>   1
Atom  32C    basis set group =>   1
Atom  33C    basis set group =>   1
Atom  34C    basis set group =>   1
Atom  35C    basis set group =>   1
Atom  36C    basis set group =>   1
Atom  37C    basis set group =>   1
Atom  38C    basis set group =>   1
Atom  39C    basis set group =>   1
Atom  40C    basis set group =>   1
Atom  41C    basis set group =>   1
Atom  42C    basis set group =>   1
Atom  43C    basis set group =>   1
Atom  44C    basis set group =>   1
Atom  45C    basis set group =>   1
Atom  46C    basis set group =>   1
Atom  47C    basis set group =>   1
Atom  48C    basis set group =>   1
Atom  49C    basis set group =>   1
Atom  50C    basis set group =>   1
Atom  51C    basis set group =>   1
Atom  52C    basis set group =>   1
Atom  53C    basis set group =>   1
Atom  54C    basis set group =>   1
Atom  55C    basis set group =>   1
Atom  56C    basis set group =>   1
Atom  57C    basis set group =>   1
Atom  58C    basis set group =>   1
Atom  59C    basis set group =>   1
Atom  60C    basis set group =>   1
Atom  61C    basis set group =>   1
Atom  62C    basis set group =>   1
Atom  63C    basis set group =>   1
Atom  64C    basis set group =>   1
Atom  65C    basis set group =>   1
Atom  66C    basis set group =>   1
Atom  67C    basis set group =>   1
Atom  68H    basis set group =>   2
Atom  69H    basis set group =>   2
Atom  70H    basis set group =>   2
Atom  71H    basis set group =>   2
Atom  72H    basis set group =>   2
Atom  73C    basis set group =>   1
Atom  74H    basis set group =>   2
Atom  75H    basis set group =>   2
Atom  76H    basis set group =>   2
Atom  77C    basis set group =>   1
Atom  78H    basis set group =>   2
Atom  79H    basis set group =>   2
Atom  80H    basis set group =>   2
Atom  81C    basis set group =>   1
Atom  82O    basis set group =>   3
Atom  83O    basis set group =>   3
Atom  84C    basis set group =>   1
Atom  85H    basis set group =>   2
Atom  86H    basis set group =>   2
Atom  87H    basis set group =>   2


           ************************************************************
           *        Program running with 6 parallel MPI-processes     *
           *              working on a common directory               *
           ************************************************************
------------------------------------------------------------------------------
                           ORCA GTO INTEGRAL CALCULATION
                           -- RI-GTO INTEGRALS CHOSEN --
------------------------------------------------------------------------------

                         BASIS SET STATISTICS AND STARTUP INFO

Gaussian basis set:
 # of primitive gaussian shells          ... 1564
 # of primitive gaussian functions       ... 3516
 # of contracted shells                  ...  870
 # of contracted basis functions         ... 2378
 Highest angular momentum                ...    3
 Maximum contraction depth               ...    6
Auxiliary gaussian basis set:
 # of primitive gaussian shells          ... 1888
 # of primitive gaussian functions       ... 5404
 # of contracted shells                  ... 1180
 # of contracted aux-basis functions     ... 3780
 Highest angular momentum                ...    4
 Maximum contraction depth               ...    7
Ratio of auxiliary to basis functions    ...  1.59
Integral package used                  ... LIBINT
 One Electron integrals                  ... done
 Ordering auxiliary basis shells         ... done
 Integral threshhold             Thresh  ...  2.500e-11
 Primitive cut-off               TCut    ...  2.500e-12
 Pre-screening matrix                    ... done
 Shell pair data                         ... 
 Ordering of the shell pairs             ... done (   0.051 sec) 222797 of 378885 pairs
 Determination of significant pairs      ... done (   0.001 sec)
 Creation of shell pair data             ... done (   0.023 sec)
 Storage of shell pair data              ... done (   0.036 sec)
 Shell pair data done in (   0.112 sec)
 Computing two index integrals           ... done
 Cholesky decomposition of the V-matrix  ... done


Timings:
 Total evaluation time                   ...   7.411 sec (  0.124 min)
 One electron matrix time                ...   3.076 sec (  0.051 min) = 41.5%
 Schwartz matrix evaluation time         ...   3.348 sec (  0.056 min) = 45.2%
 Two index repulsion integral time       ...   0.333 sec (  0.006 min) =  4.5%
 Cholesky decomposition of V             ...   0.526 sec (  0.009 min) =  7.1%
 Three index repulsion integral time     ...   0.000 sec (  0.000 min) =  0.0%



           ************************************************************
           *        Program running with 6 parallel MPI-processes     *
           *              working on a common directory               *
           ************************************************************
-------------------------------------------------------------------------------
                                 ORCA SCF
-------------------------------------------------------------------------------

------------
SCF SETTINGS
------------
Hamiltonian:
 Density Functional     Method          .... DFT(GTOs)
 Exchange Functional    Exchange        .... B88
   X-Alpha parameter    XAlpha          ....  0.666667
   Becke's b parameter  XBeta           ....  0.004200
 Correlation Functional Correlation     .... LYP
 LDA part of GGA corr.  LDAOpt          .... VWN-5
 Gradients option       PostSCFGGA      .... off
 Hybrid DFT is turned on
   Fraction HF Exchange ScalHFX         ....  0.200000
   Scaling of DF-GGA-X  ScalDFX         ....  0.720000
   Scaling of DF-GGA-C  ScalDFC         ....  0.810000
   Scaling of DF-LDA-C  ScalLDAC        ....  1.000000
   Perturbative correction              ....  0.000000
   Density functional embedding theory  .... OFF
   NL short-range parameter             ....  4.800000
 RI-approximation to the Coulomb term is turned on
   Number of auxiliary basis functions  .... 3780
   RIJ-COSX (HFX calculated with COS-X)).... on


General Settings:
 Integral files         IntName         .... PCBM
 Hartree-Fock type      HFTyp           .... RHF
 Total Charge           Charge          ....    0
 Multiplicity           Mult            ....    1
 Number of Electrons    NEL             ....  462
 Basis Dimension        Dim             .... 2378
 Nuclear Repulsion      ENuc            ....  11717.7800994621 Eh

Convergence Acceleration:
 DIIS                   CNVDIIS         .... on
   Start iteration      DIISMaxIt       ....    12
   Startup error        DIISStart       ....  0.200000
   # of expansion vecs  DIISMaxEq       ....     5
   Bias factor          DIISBfac        ....   1.050
   Max. coefficient     DIISMaxC        ....  10.000
 Newton-Raphson         CNVNR           .... off
 SOSCF                  CNVSOSCF        .... on
   Start iteration      SOSCFMaxIt      ....   150
   Startup grad/error   SOSCFStart      ....  0.003300
 Level Shifting         CNVShift        .... on
   Level shift para.    LevelShift      ....    0.2500
   Turn off err/grad.   ShiftErr        ....    0.0010
 Zerner damping         CNVZerner       .... off
 Static damping         CNVDamp         .... on
   Fraction old density DampFac         ....    0.7000
   Max. Damping (<1)    DampMax         ....    0.9800
   Min. Damping (>=0)   DampMin         ....    0.0000
   Turn off err/grad.   DampErr         ....    0.1000
 Fernandez-Rico         CNVRico         .... off

SCF Procedure:
 Maximum # iterations   MaxIter         ....   125
 SCF integral mode      SCFMode         .... Direct
   Integral package                     .... LIBINT
 Reset frequency        DirectResetFreq ....    20
 Integral Threshold     Thresh          ....  2.500e-11 Eh
 Primitive CutOff       TCut            ....  2.500e-12 Eh

Convergence Tolerance:
 Convergence Check Mode ConvCheckMode   .... Total+1el-Energy
 Convergence forced     ConvForced      .... 1
 Energy Change          TolE            ....  1.000e-08 Eh
 1-El. energy change                    ....  1.000e-05 Eh
 Orbital Gradient       TolG            ....  1.000e-05
 Orbital Rotation angle TolX            ....  1.000e-05
 DIIS Error             TolErr          ....  5.000e-07


Diagonalization of the overlap matrix:
Smallest eigenvalue                        ... 1.064e-06
Time for diagonalization                   ...    0.959 sec
Threshold for overlap eigenvalues          ... 1.000e-08
Number of eigenvalues below threshold      ... 0
Time for construction of square roots      ...    0.705 sec
Total time needed                          ...    1.676 sec

-------------------
DFT GRID GENERATION
-------------------

General Integration Accuracy     IntAcc      ...  4.670
Radial Grid Type                 RadialGrid  ... Gauss-Chebyshev
Angular Grid (max. acc.)         AngularGrid ... Lebedev-302
Angular grid pruning method      GridPruning ... 3 (G Style)
Weight generation scheme         WeightScheme... Becke
Basis function cutoff            BFCut       ...    1.0000e-11
Integration weight cutoff        WCut        ...    1.0000e-14
Grids for H and He will be reduced by one unit

# of grid points (after initial pruning)     ... 507204 (   0.0 sec)
# of grid points (after weights+screening)   ... 411306 (   2.8 sec)
nearest neighbour list constructed           ...    0.0 sec
Grid point re-assignment to atoms done       ...    0.1 sec
Grid point division into batches done        ...    1.4 sec
Reduced shell lists constructed in    4.5 sec

Total number of grid points                  ...   411306
Total number of batches                      ...     6473
Average number of points per batch           ...       63
Average number of grid points per atom       ...     4674
Average number of shells per batch           ...   353.08 (40.58%)
Average number of basis functions per batch  ...   919.32 (38.66%)
Average number of large shells per batch     ...   211.23 (59.83%)
Average number of large basis fcns per batch ...   546.56 (59.45%)
Maximum spatial batch extension              ...  18.89, 15.21, 20.54 au
Average spatial batch extension              ...   0.28,  0.26,  0.27 au

Time for grid setup =    7.472 sec

------------------------------
INITIAL GUESS: MODEL POTENTIAL
------------------------------
Loading Hartree-Fock densities                     ... done
Calculating cut-offs                               ... done
Setting up the integral package                    ... done
Initializing the effective Hamiltonian             ... done
Starting the Coulomb interaction                   ... done (   6.7 sec)
Reading the grid                                   ... done
Mapping shells                                     ... done
Starting the XC term evaluation                    ... done (   8.5 sec)
  promolecular density results
     # of electrons  =    461.996307938
     EX              =   -391.443989208
     EC              =    -16.194212042
     EX+EC           =   -407.638201250
Transforming the Hamiltonian                       ... done (   0.5 sec)
Diagonalizing the Hamiltonian                      ... done (   1.0 sec)
Back transforming the eigenvectors                 ... done (   0.3 sec)
Now organizing SCF variables                       ... done
                      ------------------
                      INITIAL GUESS DONE (  24.7 sec)
                      ------------------
--------------------
COSX GRID GENERATION
--------------------

General Integration Accuracy     IntAcc      ...  3.340
Radial Grid Type                 RadialGrid  ... Gauss-Chebyshev
Angular Grid (max. acc.)         AngularGrid ... Lebedev-50
Angular grid pruning method      GridPruning ... 3 (G Style)
Weight generation scheme         WeightScheme... Becke
Basis function cutoff            BFCut       ...    1.0000e-11
Integration weight cutoff        WCut        ...    1.0000e-14
Grids for H and He will be reduced by one unit

# of grid points (after initial pruning)     ...  47400 (   0.0 sec)
# of grid points (after weights+screening)   ...  41056 (   0.3 sec)
nearest neighbour list constructed           ...    0.0 sec
Grid point re-assignment to atoms done       ...    0.0 sec
Grid point division into batches done        ...    0.0 sec
Reduced shell lists constructed in    0.4 sec

Total number of grid points                  ...    41056
Total number of batches                      ...      675
Average number of points per batch           ...       60
Average number of grid points per atom       ...      467
Average number of shells per batch           ...   414.22 (47.61%)
Average number of basis functions per batch  ...  1108.03 (46.59%)
Average number of large shells per batch     ...   251.02 (60.60%)
Average number of large basis fcns per batch ...   658.61 (59.44%)
Maximum spatial batch extension              ...  14.59, 13.33, 13.97 au
Average spatial batch extension              ...   0.58,  0.56,  0.59 au

Overlap Fitting                  UseSFitting ... on
Constructing numerical overlap ... done (      0.9 sec)
Inverting numerical overlap    ... done (      0.2 sec)
Obtaining analytic overlap     ... done (      0.0 sec)
Final contraction and storage  ... done (      0.4 sec)


General Integration Accuracy     IntAcc      ...  3.670
Radial Grid Type                 RadialGrid  ... Gauss-Chebyshev
Angular Grid (max. acc.)         AngularGrid ... Lebedev-50
Angular grid pruning method      GridPruning ... 3 (G Style)
Weight generation scheme         WeightScheme... Becke
Basis function cutoff            BFCut       ...    1.0000e-11
Integration weight cutoff        WCut        ...    1.0000e-14
Grids for H and He will be reduced by one unit

# of grid points (after initial pruning)     ...  58396 (   0.0 sec)
# of grid points (after weights+screening)   ...  50313 (   0.3 sec)
nearest neighbour list constructed           ...    0.0 sec
Grid point re-assignment to atoms done       ...    0.0 sec
Grid point division into batches done        ...    0.0 sec
Reduced shell lists constructed in    0.5 sec

Total number of grid points                  ...    50313
Total number of batches                      ...      825
Average number of points per batch           ...       60
Average number of grid points per atom       ...      572
Average number of shells per batch           ...   409.29 (47.04%)
Average number of basis functions per batch  ...  1092.99 (45.96%)
Average number of large shells per batch     ...   247.06 (60.36%)
Average number of large basis fcns per batch ...   647.79 (59.27%)
Maximum spatial batch extension              ...  15.64, 13.78, 19.68 au
Average spatial batch extension              ...   0.54,  0.50,  0.56 au

Overlap Fitting                  UseSFitting ... on
Constructing numerical overlap ... done (      1.0 sec)
Inverting numerical overlap    ... done (      0.2 sec)
Obtaining analytic overlap     ... done (      0.0 sec)
Final contraction and storage  ... done (      0.4 sec)


General Integration Accuracy     IntAcc      ...  4.010
Radial Grid Type                 RadialGrid  ... Gauss-Chebyshev
Angular Grid (max. acc.)         AngularGrid ... Lebedev-110
Angular grid pruning method      GridPruning ... 3 (G Style)
Weight generation scheme         WeightScheme... Becke
Basis function cutoff            BFCut       ...    1.0000e-11
Integration weight cutoff        WCut        ...    1.0000e-14
Grids for H and He will be reduced by one unit

# of grid points (after initial pruning)     ... 117892 (   0.0 sec)
# of grid points (after weights+screening)   ...  99630 (   0.7 sec)
nearest neighbour list constructed           ...    0.0 sec
Grid point re-assignment to atoms done       ...    0.0 sec
Grid point division into batches done        ...    0.1 sec
Reduced shell lists constructed in    1.0 sec

Total number of grid points                  ...    99630
Total number of batches                      ...     1605
Average number of points per batch           ...       62
Average number of grid points per atom       ...     1132
Average number of shells per batch           ...   386.30 (44.40%)
Average number of basis functions per batch  ...  1022.53 (43.00%)
Average number of large shells per batch     ...   234.68 (60.75%)
Average number of large basis fcns per batch ...   612.22 (59.87%)
Maximum spatial batch extension              ...  15.15, 18.20, 16.91 au
Average spatial batch extension              ...   0.44,  0.42,  0.44 au

Overlap Fitting                  UseSFitting ... on
Constructing numerical overlap ... done (      1.7 sec)
Inverting numerical overlap    ... done (      0.3 sec)
Obtaining analytic overlap     ... done (      0.0 sec)
Final contraction and storage  ... done (      0.4 sec)

Time for X-Grid setup             =    9.186 sec
--------------
SCF ITERATIONS
--------------
ITER       Energy         Delta-E        Max-DP      RMS-DP      [F,P]     Damp
               ***  Starting incremental Fock matrix formation  ***
  0  -2900.5553532782   0.000000000000 0.09906177  0.00076677  0.3022577 0.7000
  1  -2900.9898946026  -0.434541324377 0.09748756  0.00068290  0.1129161 0.7000
                               ***Turning on DIIS***
  2  -2901.1799108411  -0.190016238505 0.19458990  0.00145252  0.0337905 0.0000
  3  -2901.5007329687  -0.320822127638 0.09807627  0.00045863  0.0520872 0.0000
  4  -2901.5485488337  -0.047815865011 0.02868671  0.00013273  0.0298774 0.0000
  5  -2901.5527802293  -0.004231395535 0.00794360  0.00005056  0.0034458 0.0000
  6  -2901.5529587210  -0.000178491695 0.00315695  0.00002336  0.0059556 0.0000
                      *** Initiating the SOSCF procedure ***
                           *** Shutting down DIIS ***
                      *** Re-Reading the Fockian *** 
                      *** Removing any level shift *** 
ITER      Energy       Delta-E        Grad      Rot      Max-DP    RMS-DP
  7  -2901.55301336  -0.0000546425  0.000109  0.000109  0.001510  0.000008
               *** Restarting incremental Fock matrix formation ***
  8  -2901.55304591  -0.0000325461  0.000100  0.000319  0.051853  0.000249
  9  -2901.55304472   0.0000011924  0.000211  0.000410  0.026228  0.000117
 10  -2901.55304395   0.0000007667  0.000128  0.000279  0.026373  0.000118
 11  -2901.55304539  -0.0000014405  0.000031  0.000126  0.010675  0.000047
 12  -2901.55304572  -0.0000003299  0.000102  0.000113  0.011302  0.000051
 13  -2901.55304551   0.0000002146  0.000016  0.000040  0.002784  0.000011
 14  -2901.55304534   0.0000001682  0.000014  0.000034  0.002609  0.000012
 15  -2901.55304556  -0.0000002257  0.000005  0.000025  0.001254  0.000005
 16  -2901.55304540   0.0000001623  0.000009  0.000016  0.000740  0.000003
                  ***Gradient check signals convergence***
              ***Rediagonalizing the Fockian in SOSCF/NRSCF***

               *****************************************************
               *                     SUCCESS                       *
               *           SCF CONVERGED AFTER  17 CYCLES          *
               *****************************************************

Setting up the final grid:

General Integration Accuracy     IntAcc      ...  5.010
Radial Grid Type                 RadialGrid  ... Gauss-Chebyshev
Angular Grid (max. acc.)         AngularGrid ... Lebedev-434
Angular grid pruning method      GridPruning ... 3 (G Style)
Weight generation scheme         WeightScheme... Becke
Basis function cutoff            BFCut       ...    1.0000e-11
Integration weight cutoff        WCut        ...    1.0000e-14
Grids for H and He will be reduced by one unit

# of grid points (after initial pruning)     ... 885628 (   0.0 sec)
# of grid points (after weights+screening)   ... 715570 (   4.8 sec)
nearest neighbour list constructed           ...    0.0 sec
Grid point re-assignment to atoms done       ...    0.1 sec
Grid point division into batches done        ...    4.4 sec
Reduced shell lists constructed in   10.3 sec

Total number of grid points                  ...   715570
Total number of batches                      ...    11231
Average number of points per batch           ...       63
Average number of grid points per atom       ...     8131
Average number of shells per batch           ...   343.53 (39.49%)
Average number of basis functions per batch  ...   889.39 (37.40%)
Average number of large shells per batch     ...   204.70 (59.59%)
Average number of large basis fcns per batch ...   528.62 (59.44%)
Maximum spatial batch extension              ...  20.13, 19.44, 21.02 au
Average spatial batch extension              ...   0.22,  0.21,  0.21 au

Final grid set up in   15.5 sec
Final integration                            ... done (  24.5 sec)
Change in XC energy                          ...     0.000216061
Integrated number of electrons               ...   462.001187485
Previous integrated no of electrons          ...   462.001622075
Old exchange energy                            =    -79.066153999 Eh
New exchange energy                            =    -79.065288471 Eh
Exchange energy change after final integration =      0.000865528 Eh
Total energy after final integration           =  -2901.551963861 Eh
Final COS-X integration done in                =   400.134 sec

----------------
TOTAL SCF ENERGY
----------------

Total Energy       :        -2901.55196386 Eh          -78955.24294 eV

Components:
Nuclear Repulsion  :        11717.78009946 Eh          318857.00688 eV
Electronic Energy  :       -14619.33206332 Eh         -397812.24983 eV
One Electron Energy:       -27282.87976880 Eh         -742404.90164 eV
Two Electron Energy:        12663.54770548 Eh          344592.65182 eV

Virial components:
Potential Energy   :        -5788.70863349 Eh         -157518.77002 eV
Kinetic Energy     :         2887.15666963 Eh           78563.52707 eV
Virial Ratio       :            2.00498598


DFT components:
N(Alpha)           :      231.000593742633 electrons
N(Beta)            :      231.000593742633 electrons
N(Total)           :      462.001187485266 electrons
E(X)               :     -314.350346482701 Eh       
E(C)               :      -18.959090193824 Eh       
E(XC)              :     -333.309436676524 Eh       
DFET-embed. en.    :        0.000000000000 Eh       

---------------
SCF CONVERGENCE
---------------

  Last Energy change         ...   -4.9020e-08  Tolerance :   1.0000e-08
  Last MAX-Density change    ...    3.6637e-15  Tolerance :   1.0000e-07
  Last RMS-Density change    ...    1.1913e-17  Tolerance :   5.0000e-09
  Last Orbital Gradient      ...    1.5313e-06  Tolerance :   1.0000e-05
  Last Orbital Rotation      ...    6.0119e-06  Tolerance :   1.0000e-05

             **** THE GBW FILE WAS UPDATED (PCBM.gbw) ****
             **** DENSITY FILE WAS UPDATED (PCBM.scfp) ****
             **** ENERGY FILE WAS UPDATED (PCBM.en.tmp) ****
             **** THE GBW FILE WAS UPDATED (PCBM.gbw) ****
             **** DENSITY FILE WAS UPDATED (PCBM.scfp) ****
----------------
ORBITAL ENERGIES
----------------

  NO   OCC          E(Eh)            E(eV) 
   0   2.0000     -19.176795      -521.8271 
   1   2.0000     -19.116595      -520.1890 
   2   2.0000     -10.303069      -280.3608 
   3   2.0000     -10.237092      -278.5654 
   4   2.0000     -10.236341      -278.5450 
   5   2.0000     -10.231013      -278.4000 
   6   2.0000     -10.230101      -278.3752 
   7   2.0000     -10.223434      -278.1938 
   8   2.0000     -10.223089      -278.1844 
   9   2.0000     -10.221716      -278.1470 
  10   2.0000     -10.221213      -278.1333 
  11   2.0000     -10.220358      -278.1101 
  12   2.0000     -10.220084      -278.1026 
  13   2.0000     -10.219986      -278.1000 
  14   2.0000     -10.219730      -278.0930 
  15   2.0000     -10.219704      -278.0923 
  16   2.0000     -10.219691      -278.0919 
  17   2.0000     -10.219531      -278.0876 
  18   2.0000     -10.219513      -278.0871 
  19   2.0000     -10.219364      -278.0830 
  20   2.0000     -10.219284      -278.0809 
  21   2.0000     -10.219240      -278.0797 
  22   2.0000     -10.219225      -278.0792 
  23   2.0000     -10.219168      -278.0777 
  24   2.0000     -10.219154      -278.0773 
  25   2.0000     -10.219123      -278.0765 
  26   2.0000     -10.218991      -278.0729 
  27   2.0000     -10.218973      -278.0724 
  28   2.0000     -10.218947      -278.0717 
  29   2.0000     -10.218940      -278.0715 
  30   2.0000     -10.218896      -278.0703 
  31   2.0000     -10.218854      -278.0692 
  32   2.0000     -10.218728      -278.0657 
  33   2.0000     -10.218688      -278.0646 
  34   2.0000     -10.218665      -278.0640 
  35   2.0000     -10.218604      -278.0624 
  36   2.0000     -10.218539      -278.0606 
  37   2.0000     -10.218513      -278.0599 
  38   2.0000     -10.218501      -278.0595 
  39   2.0000     -10.218485      -278.0591 
  40   2.0000     -10.218438      -278.0578 
  41   2.0000     -10.218382      -278.0563 
  42   2.0000     -10.218364      -278.0558 
  43   2.0000     -10.218301      -278.0541 
  44   2.0000     -10.218278      -278.0535 
  45   2.0000     -10.218183      -278.0509 
  46   2.0000     -10.218173      -278.0506 
  47   2.0000     -10.218151      -278.0500 
  48   2.0000     -10.218137      -278.0497 
  49   2.0000     -10.218096      -278.0485 
  50   2.0000     -10.218076      -278.0480 
  51   2.0000     -10.217990      -278.0456 
  52   2.0000     -10.217846      -278.0417 
  53   2.0000     -10.217720      -278.0383 
  54   2.0000     -10.217522      -278.0329 
  55   2.0000     -10.217256      -278.0257 
  56   2.0000     -10.216919      -278.0165 
  57   2.0000     -10.216791      -278.0130 
  58   2.0000     -10.216584      -278.0074 
  59   2.0000     -10.216364      -278.0014 
  60   2.0000     -10.216192      -277.9967 
  61   2.0000     -10.216168      -277.9961 
  62   2.0000     -10.215811      -277.9863 
  63   2.0000     -10.215647      -277.9819 
  64   2.0000     -10.215222      -277.9703 
  65   2.0000     -10.199256      -277.5359 
  66   2.0000     -10.193591      -277.3817 
  67   2.0000     -10.191575      -277.3269 
  68   2.0000     -10.188170      -277.2342 
  69   2.0000     -10.187469      -277.2151 
  70   2.0000     -10.186958      -277.2012 
  71   2.0000     -10.186382      -277.1855 
  72   2.0000     -10.185887      -277.1721 
  73   2.0000     -10.180378      -277.0222 
  74   2.0000      -1.113425       -30.2978 
  75   2.0000      -1.024375       -27.8747 
  76   2.0000      -0.971455       -26.4346 
  77   2.0000      -0.955951       -26.0128 
  78   2.0000      -0.950022       -25.8514 
  79   2.0000      -0.949159       -25.8279 
  80   2.0000      -0.924908       -25.1680 
  81   2.0000      -0.912980       -24.8435 
  82   2.0000      -0.911788       -24.8110 
  83   2.0000      -0.911499       -24.8032 
  84   2.0000      -0.911173       -24.7943 
  85   2.0000      -0.885175       -24.0868 
  86   2.0000      -0.872917       -23.7533 
  87   2.0000      -0.871500       -23.7147 
  88   2.0000      -0.868543       -23.6343 
  89   2.0000      -0.856728       -23.3128 
  90   2.0000      -0.841819       -22.9071 
  91   2.0000      -0.840178       -22.8624 
  92   2.0000      -0.840026       -22.8583 
  93   2.0000      -0.823805       -22.4169 
  94   2.0000      -0.808658       -22.0047 
  95   2.0000      -0.791172       -21.5289 
  96   2.0000      -0.791032       -21.5251 
  97   2.0000      -0.790175       -21.5018 
  98   2.0000      -0.789524       -21.4840 
  99   2.0000      -0.783212       -21.3123 
 100   2.0000      -0.774077       -21.0637 
 101   2.0000      -0.773918       -21.0594 
 102   2.0000      -0.773144       -21.0383 
 103   2.0000      -0.768133       -20.9020 
 104   2.0000      -0.756371       -20.5819 
 105   2.0000      -0.752630       -20.4801 
 106   2.0000      -0.737169       -20.0594 
 107   2.0000      -0.719311       -19.5735 
 108   2.0000      -0.719003       -19.5651 
 109   2.0000      -0.716701       -19.5024 
 110   2.0000      -0.716487       -19.4966 
 111   2.0000      -0.709460       -19.3054 
 112   2.0000      -0.705529       -19.1984 
 113   2.0000      -0.704090       -19.1593 
 114   2.0000      -0.702526       -19.1167 
 115   2.0000      -0.674684       -18.3591 
 116   2.0000      -0.662648       -18.0316 
 117   2.0000      -0.660473       -17.9724 
 118   2.0000      -0.650341       -17.6967 
 119   2.0000      -0.632022       -17.1982 
 120   2.0000      -0.626822       -17.0567 
 121   2.0000      -0.625656       -17.0250 
 122   2.0000      -0.625448       -17.0193 
 123   2.0000      -0.624192       -16.9851 
 124   2.0000      -0.623520       -16.9668 
 125   2.0000      -0.621799       -16.9200 
 126   2.0000      -0.621556       -16.9134 
 127   2.0000      -0.616700       -16.7812 
 128   2.0000      -0.612282       -16.6610 
 129   2.0000      -0.598969       -16.2988 
 130   2.0000      -0.568511       -15.4700 
 131   2.0000      -0.566482       -15.4148 
 132   2.0000      -0.559834       -15.2339 
 133   2.0000      -0.556152       -15.1337 
 134   2.0000      -0.555586       -15.1183 
 135   2.0000      -0.554577       -15.0908 
 136   2.0000      -0.539483       -14.6801 
 137   2.0000      -0.538601       -14.6561 
 138   2.0000      -0.533071       -14.5056 
 139   2.0000      -0.532135       -14.4801 
 140   2.0000      -0.531214       -14.4551 
 141   2.0000      -0.522448       -14.2165 
 142   2.0000      -0.518074       -14.0975 
 143   2.0000      -0.517749       -14.0887 
 144   2.0000      -0.514730       -14.0065 
 145   2.0000      -0.504857       -13.7379 
 146   2.0000      -0.504470       -13.7273 
 147   2.0000      -0.494266       -13.4497 
 148   2.0000      -0.491802       -13.3826 
 149   2.0000      -0.490029       -13.3344 
 150   2.0000      -0.485199       -13.2029 
 151   2.0000      -0.483705       -13.1623 
 152   2.0000      -0.478354       -13.0167 
 153   2.0000      -0.475185       -12.9304 
 154   2.0000      -0.470017       -12.7898 
 155   2.0000      -0.468302       -12.7431 
 156   2.0000      -0.466678       -12.6989 
 157   2.0000      -0.463903       -12.6234 
 158   2.0000      -0.462533       -12.5862 
 159   2.0000      -0.460027       -12.5180 
 160   2.0000      -0.459519       -12.5042 
 161   2.0000      -0.455804       -12.4030 
 162   2.0000      -0.454515       -12.3680 
 163   2.0000      -0.449318       -12.2266 
 164   2.0000      -0.448410       -12.2019 
 165   2.0000      -0.447320       -12.1722 
 166   2.0000      -0.445988       -12.1360 
 167   2.0000      -0.438984       -11.9454 
 168   2.0000      -0.438406       -11.9296 
 169   2.0000      -0.436993       -11.8912 
 170   2.0000      -0.434655       -11.8276 
 171   2.0000      -0.432167       -11.7599 
 172   2.0000      -0.431213       -11.7339 
 173   2.0000      -0.427353       -11.6289 
 174   2.0000      -0.425384       -11.5753 
 175   2.0000      -0.423979       -11.5370 
 176   2.0000      -0.423476       -11.5234 
 177   2.0000      -0.417926       -11.3724 
 178   2.0000      -0.415686       -11.3114 
 179   2.0000      -0.415597       -11.3090 
 180   2.0000      -0.415122       -11.2960 
 181   2.0000      -0.413326       -11.2472 
 182   2.0000      -0.409344       -11.1388 
 183   2.0000      -0.406731       -11.0677 
 184   2.0000      -0.404897       -11.0178 
 185   2.0000      -0.403951       -10.9921 
 186   2.0000      -0.403388       -10.9767 
 187   2.0000      -0.392528       -10.6812 
 188   2.0000      -0.382027       -10.3955 
 189   2.0000      -0.378393       -10.2966 
 190   2.0000      -0.375952       -10.2302 
 191   2.0000      -0.369785       -10.0624 
 192   2.0000      -0.367255        -9.9935 
 193   2.0000      -0.367033        -9.9875 
 194   2.0000      -0.363728        -9.8975 
 195   2.0000      -0.362721        -9.8701 
 196   2.0000      -0.362016        -9.8510 
 197   2.0000      -0.361292        -9.8313 
 198   2.0000      -0.361047        -9.8246 
 199   2.0000      -0.358999        -9.7689 
 200   2.0000      -0.357104        -9.7173 
 201   2.0000      -0.355033        -9.6609 
 202   2.0000      -0.353832        -9.6282 
 203   2.0000      -0.353600        -9.6219 
 204   2.0000      -0.350983        -9.5507 
 205   2.0000      -0.350044        -9.5252 
 206   2.0000      -0.346999        -9.4423 
 207   2.0000      -0.342994        -9.3334 
 208   2.0000      -0.341880        -9.3030 
 209   2.0000      -0.341512        -9.2930 
 210   2.0000      -0.339421        -9.2361 
 211   2.0000      -0.335777        -9.1369 
 212   2.0000      -0.324807        -8.8385 
 213   2.0000      -0.313579        -8.5329 
 214   2.0000      -0.288138        -7.8406 
 215   2.0000      -0.285420        -7.7667 
 216   2.0000      -0.278127        -7.5682 
 217   2.0000      -0.275372        -7.4932 
 218   2.0000      -0.274573        -7.4715 
 219   2.0000      -0.274290        -7.4638 
 220   2.0000      -0.274238        -7.4624 
 221   2.0000      -0.273796        -7.4504 
 222   2.0000      -0.273359        -7.4385 
 223   2.0000      -0.265902        -7.2355 
 224   2.0000      -0.259536        -7.0623 
 225   2.0000      -0.257780        -7.0145 
 226   2.0000      -0.232895        -6.3374 
 227   2.0000      -0.225969        -6.1489 
 228   2.0000      -0.224204        -6.1009 
 229   2.0000      -0.223978        -6.0947 
 230   2.0000      -0.218423        -5.9436 
 231   0.0000      -0.126655        -3.4465 
 232   0.0000      -0.124690        -3.3930 
 233   0.0000      -0.116086        -3.1589 
 234   0.0000      -0.082108        -2.2343 
 235   0.0000      -0.079925        -2.1749 
 236   0.0000      -0.071485        -1.9452 
 237   0.0000      -0.061302        -1.6681 
 238   0.0000      -0.044345        -1.2067 
 239   0.0000      -0.043576        -1.1858 
 240   0.0000      -0.043423        -1.1816 
 241   0.0000      -0.039668        -1.0794 
 242   0.0000      -0.039102        -1.0640 
 243   0.0000      -0.037680        -1.0253 
 244   0.0000      -0.027156        -0.7390 
 245   0.0000      -0.024320        -0.6618 
 246   0.0000      -0.022129        -0.6022 
 247   0.0000      -0.000409        -0.0111 
 248   0.0000       0.017720         0.4822 
 249   0.0000       0.020936         0.5697 
 250   0.0000       0.022636         0.6159 
 251   0.0000       0.023343         0.6352 
 252   0.0000       0.025224         0.6864 
 253   0.0000       0.028528         0.7763 
 254   0.0000       0.035704         0.9715 
 255   0.0000       0.038831         1.0566 
 256   0.0000       0.039388         1.0718 
 257   0.0000       0.041315         1.1242 
 258   0.0000       0.043964         1.1963 
 259   0.0000       0.049689         1.3521 
 260   0.0000       0.053337         1.4514 
 261   0.0000       0.057212         1.5568 
 262   0.0000       0.065666         1.7869 
 263   0.0000       0.066947         1.8217 
 264   0.0000       0.068314         1.8589 
 265   0.0000       0.069330         1.8866 
 266   0.0000       0.070604         1.9212 
 267   0.0000       0.076925         2.0932 
 268   0.0000       0.079387         2.1602 
 269   0.0000       0.082940         2.2569 
 270   0.0000       0.088507         2.4084 
 271   0.0000       0.088739         2.4147 
 272   0.0000       0.091286         2.4840 
 273   0.0000       0.092724         2.5231 
 274   0.0000       0.094978         2.5845 
 275   0.0000       0.099400         2.7048 
 276   0.0000       0.100307         2.7295 
 277   0.0000       0.106045         2.8856 
 278   0.0000       0.107135         2.9153 
 279   0.0000       0.109284         2.9738 
 280   0.0000       0.114379         3.1124 
 281   0.0000       0.115991         3.1563 
 282   0.0000       0.118145         3.2149 
 283   0.0000       0.121177         3.2974 
 284   0.0000       0.122743         3.3400 
 285   0.0000       0.125434         3.4132 
 286   0.0000       0.127257         3.4628 
 287   0.0000       0.131791         3.5862 
 288   0.0000       0.133198         3.6245 
 289   0.0000       0.135927         3.6988 
 290   0.0000       0.137423         3.7395 
 291   0.0000       0.139366         3.7923 
 292   0.0000       0.140428         3.8212 
 293   0.0000       0.140642         3.8271 
 294   0.0000       0.144291         3.9264 
 295   0.0000       0.144773         3.9395 
 296   0.0000       0.146676         3.9912 
 297   0.0000       0.148098         4.0299 
 298   0.0000       0.149775         4.0756 
 299   0.0000       0.154017         4.1910 
 300   0.0000       0.155340         4.2270 
 301   0.0000       0.156295         4.2530 
 302   0.0000       0.157311         4.2807 
 303   0.0000       0.159358         4.3363 
 304   0.0000       0.160398         4.3646 
 305   0.0000       0.162516         4.4223 
 306   0.0000       0.164018         4.4631 
 307   0.0000       0.167291         4.5522 
 308   0.0000       0.168652         4.5893 
 309   0.0000       0.171096         4.6558 
 310   0.0000       0.173314         4.7161 
 311   0.0000       0.173580         4.7234 
 312   0.0000       0.175945         4.7877 
 313   0.0000       0.176634         4.8064 
 314   0.0000       0.178920         4.8687 
 315   0.0000       0.181600         4.9416 
 316   0.0000       0.182920         4.9775 
 317   0.0000       0.184044         5.0081 
 318   0.0000       0.187250         5.0953 
 319   0.0000       0.187903         5.1131 
 320   0.0000       0.188951         5.1416 
 321   0.0000       0.194211         5.2848 
 322   0.0000       0.195235         5.3126 
 323   0.0000       0.196627         5.3505 
 324   0.0000       0.198098         5.3905 
 325   0.0000       0.200191         5.4475 
 326   0.0000       0.201552         5.4845 
 327   0.0000       0.202712         5.5161 
 328   0.0000       0.203119         5.5272 
 329   0.0000       0.205175         5.5831 
 330   0.0000       0.206626         5.6226 
 331   0.0000       0.209157         5.6915 
 332   0.0000       0.209538         5.7018 
 333   0.0000       0.211388         5.7522 
 334   0.0000       0.214036         5.8242 
 335   0.0000       0.215429         5.8621 
 336   0.0000       0.218075         5.9341 
 337   0.0000       0.218735         5.9521 
 338   0.0000       0.219962         5.9855 
 339   0.0000       0.221142         6.0176 
 340   0.0000       0.222927         6.0661 
 341   0.0000       0.224029         6.0961 
 342   0.0000       0.225359         6.1323 
 343   0.0000       0.227090         6.1794 
 344   0.0000       0.227700         6.1960 
 345   0.0000       0.228184         6.2092 
 346   0.0000       0.229296         6.2395 
 347   0.0000       0.229861         6.2548 
 348   0.0000       0.231102         6.2886 
 349   0.0000       0.232792         6.3346 
 350   0.0000       0.234491         6.3808 
 351   0.0000       0.235832         6.4173 
 352   0.0000       0.236274         6.4293 
 353   0.0000       0.240143         6.5346 
 354   0.0000       0.241536         6.5725 
 355   0.0000       0.244324         6.6484 
 356   0.0000       0.245194         6.6721 
 357   0.0000       0.247724         6.7409 
 358   0.0000       0.252124         6.8606 
 359   0.0000       0.255700         6.9579 
 360   0.0000       0.260862         7.0984 
 361   0.0000       0.266419         7.2496 
 362   0.0000       0.267539         7.2801 
 363   0.0000       0.271974         7.4008 
 364   0.0000       0.274188         7.4610 
 365   0.0000       0.277346         7.5470 
 366   0.0000       0.279284         7.5997 
 367   0.0000       0.279700         7.6110 
 368   0.0000       0.282616         7.6904 
 369   0.0000       0.286894         7.8068 
 370   0.0000       0.288563         7.8522 
 371   0.0000       0.291205         7.9241 
 372   0.0000       0.292189         7.9509 
 373   0.0000       0.293407         7.9840 
 374   0.0000       0.295556         8.0425 
 375   0.0000       0.296699         8.0736 
 376   0.0000       0.298640         8.1264 
 377   0.0000       0.301311         8.1991 
 378   0.0000       0.307898         8.3783 
 379   0.0000       0.309659         8.4262 
 380   0.0000       0.311645         8.4803 
 381   0.0000       0.312820         8.5123 
 382   0.0000       0.314269         8.5517 
 383   0.0000       0.315196         8.5769 
 384   0.0000       0.317891         8.6503 
 385   0.0000       0.321822         8.7572 
 386   0.0000       0.322195         8.7674 
 387   0.0000       0.324171         8.8211 
 388   0.0000       0.325226         8.8499 
 389   0.0000       0.327190         8.9033 
 390   0.0000       0.327531         8.9126 
 391   0.0000       0.328262         8.9325 
[...]
   228a -> 236a  :     0.036178 (c= -0.19020412)
   229a -> 236a  :     0.562358 (c= -0.74990509)

STATE 45:  E=   0.130546 au      3.552 eV    28651.4 cm**-1
   216a -> 233a  :     0.083874 (c= -0.28961078)
   217a -> 231a  :     0.017399 (c= -0.13190635)
   217a -> 232a  :     0.081280 (c= -0.28509597)
   218a -> 232a  :     0.134840 (c= -0.36720571)
   221a -> 231a  :     0.083560 (c= -0.28906663)
   223a -> 233a  :     0.192021 (c=  0.43820254)
   226a -> 234a  :     0.010764 (c=  0.10374941)
   226a -> 235a  :     0.056930 (c= -0.23859957)
   227a -> 236a  :     0.207174 (c=  0.45516344)
   229a -> 236a  :     0.037566 (c=  0.19381935)

STATE 46:  E=   0.131048 au      3.566 eV    28761.7 cm**-1
   216a -> 231a  :     0.386793 (c=  0.62192645)
   217a -> 232a  :     0.087154 (c=  0.29521840)
   218a -> 231a  :     0.013000 (c= -0.11401798)
   220a -> 231a  :     0.015757 (c= -0.12552640)
   220a -> 232a  :     0.011339 (c=  0.10648529)
   220a -> 233a  :     0.010222 (c= -0.10110354)
   221a -> 231a  :     0.031842 (c= -0.17844378)
   221a -> 232a  :     0.023874 (c=  0.15451316)
   222a -> 232a  :     0.015570 (c= -0.12478015)
   223a -> 231a  :     0.053107 (c=  0.23045041)
   223a -> 233a  :     0.035848 (c= -0.18933537)
   226a -> 234a  :     0.014765 (c=  0.12151269)
   226a -> 235a  :     0.111704 (c= -0.33422219)
   228a -> 234a  :     0.016409 (c= -0.12809745)
   228a -> 236a  :     0.042002 (c= -0.20494427)
   229a -> 236a  :     0.030369 (c=  0.17426667)

STATE 47:  E=   0.131363 au      3.575 eV    28830.9 cm**-1
   216a -> 231a  :     0.331618 (c= -0.57586268)
   217a -> 231a  :     0.048138 (c= -0.21940444)
   217a -> 232a  :     0.106033 (c=  0.32562685)
   218a -> 231a  :     0.051371 (c= -0.22665242)
   219a -> 233a  :     0.022827 (c= -0.15108705)
   220a -> 231a  :     0.011245 (c= -0.10604254)
   221a -> 231a  :     0.047596 (c= -0.21816608)
   221a -> 232a  :     0.021986 (c=  0.14827785)
   222a -> 232a  :     0.013167 (c=  0.11474749)
   223a -> 231a  :     0.036575 (c= -0.19124711)
   223a -> 233a  :     0.011399 (c= -0.10676707)
   226a -> 234a  :     0.016467 (c= -0.12832477)
   226a -> 235a  :     0.124081 (c= -0.35225178)
   228a -> 234a  :     0.016522 (c= -0.12853719)
   228a -> 236a  :     0.052791 (c= -0.22976333)
   230a -> 236a  :     0.012028 (c=  0.10967302)

STATE 48:  E=   0.132988 au      3.619 eV    29187.5 cm**-1
   216a -> 233a  :     0.015048 (c= -0.12266996)
   217a -> 231a  :     0.026033 (c= -0.16134886)
   217a -> 232a  :     0.057327 (c=  0.23942971)
   218a -> 231a  :     0.034959 (c=  0.18697331)
   219a -> 231a  :     0.013418 (c=  0.11583692)
   219a -> 232a  :     0.027079 (c=  0.16455825)
   220a -> 232a  :     0.034592 (c= -0.18598968)
   221a -> 231a  :     0.050399 (c=  0.22449696)
   222a -> 233a  :     0.042363 (c= -0.20582159)
   223a -> 233a  :     0.043628 (c=  0.20887295)
   226a -> 235a  :     0.166421 (c= -0.40794772)
   227a -> 236a  :     0.020793 (c= -0.14419661)
   228a -> 236a  :     0.364709 (c=  0.60391164)
   229a -> 236a  :     0.019325 (c= -0.13901385)

STATE 49:  E=   0.133252 au      3.626 eV    29245.4 cm**-1
   216a -> 232a  :     0.473584 (c=  0.68817475)
   217a -> 233a  :     0.010293 (c=  0.10145308)
   218a -> 233a  :     0.032693 (c=  0.18081193)
   220a -> 233a  :     0.017688 (c=  0.13299650)
   221a -> 233a  :     0.032126 (c= -0.17923588)
   223a -> 232a  :     0.020667 (c=  0.14376117)
   227a -> 235a  :     0.010977 (c=  0.10476926)
   228a -> 236a  :     0.023728 (c=  0.15403923)
   230a -> 237a  :     0.317582 (c= -0.56354447)

STATE 50:  E=   0.133966 au      3.645 eV    29402.1 cm**-1
   214a -> 231a  :     0.010638 (c=  0.10313871)
   216a -> 232a  :     0.016853 (c= -0.12981791)
   217a -> 231a  :     0.013394 (c= -0.11573267)
   217a -> 232a  :     0.026443 (c= -0.16261285)
   218a -> 233a  :     0.018298 (c=  0.13526845)
   219a -> 233a  :     0.012743 (c= -0.11288622)
   221a -> 231a  :     0.019317 (c= -0.13898657)
   222a -> 233a  :     0.062239 (c= -0.24947819)
   223a -> 233a  :     0.400342 (c= -0.63272547)
   227a -> 236a  :     0.220620 (c=  0.46970207)
   228a -> 236a  :     0.117667 (c=  0.34302589)
   230a -> 237a  :     0.012309 (c=  0.11094791)


-----------------------------
TD-DFT/TDA-EXCITATION SPECTRA
-----------------------------

Center of mass = ( -1.3573, -1.1454, -0.3275)
Calculating the Dipole integrals                  ... done
Transforming integrals                            ... done
Calculating the Linear Momentum integrals         ... done
Transforming integrals                            ... done
Calculating angular momentum integrals            ... done
Transforming integrals                            ... done

-----------------------------------------------------------------------------
         ABSORPTION SPECTRUM VIA TRANSITION ELECTRIC DIPOLE MOMENTS
-----------------------------------------------------------------------------
State   Energy    Wavelength  fosc         T2        TX        TY        TZ  
        (cm-1)      (nm)                 (au**2)    (au)      (au)      (au) 
-----------------------------------------------------------------------------
   1   15224.3    656.8   0.002080740   0.04499  -0.03459   0.11437  -0.17526
   2   15806.2    632.7   0.000004895   0.00010   0.00771  -0.00567   0.00323
   3   16293.9    613.7   0.000003667   0.00007   0.00758  -0.00296   0.00281
   4   16550.0    604.2   0.000003924   0.00008  -0.00547  -0.00564  -0.00404
   5   16946.5    590.1   0.000001151   0.00002  -0.00167   0.00274  -0.00348
   6   17113.3    584.3   0.000385307   0.00741  -0.08455  -0.00110   0.01619
   7   17689.5    565.3   0.000004548   0.00008   0.00616   0.00298  -0.00615
   8   18090.9    552.8   0.000198355   0.00361   0.00001   0.02808  -0.05312
   9   18630.7    536.7   0.000208852   0.00369  -0.05202   0.02038   0.02385
  10   18767.6    532.8   0.002813781   0.04936   0.21709   0.04702  -0.00432
  11   19094.1    523.7   0.000016942   0.00029  -0.00088   0.01340   0.01057
  12   19205.4    520.7   0.002839315   0.04867   0.03048   0.18822   0.11097
  13   19664.0    508.5   0.000443159   0.00742   0.08338  -0.00655  -0.02061
  14   20070.3    498.2   0.001012136   0.01660  -0.02795  -0.10893  -0.06289
  15   21028.3    475.5   0.006941152   0.10867   0.06127  -0.17189   0.27453
  16   24276.6    411.9   0.006486961   0.08797   0.01964  -0.16740   0.24405
  17   24308.9    411.4   0.000409449   0.00555   0.01162  -0.04205   0.06034
  18   25392.0    393.8   0.002566914   0.03328  -0.07001  -0.14846  -0.07961
  19   25442.3    393.0   0.003737543   0.04836   0.17256  -0.10042  -0.09219
  20   25490.9    392.3   0.001724374   0.02227  -0.04439  -0.12083  -0.07550
  21   25789.6    387.8   0.003863935   0.04932   0.07005   0.18915   0.09294
  22   25926.5    385.7   0.005381777   0.06834  -0.20113  -0.15486  -0.06247
  23   26069.8    383.6   0.000886791   0.01120   0.01857  -0.05690   0.08727
  24   26283.6    380.5   0.001535713   0.01924  -0.13426  -0.00582   0.03427
  25   26493.1    377.5   0.000590195   0.00733  -0.05371   0.03276  -0.05810
  26   26525.5    377.0   0.000762489   0.00946  -0.07632  -0.04283   0.04247
  27   26825.3    372.8   0.003222615   0.03955   0.03540  -0.09674   0.17011
  28   26990.3    370.5   0.006599809   0.08050  -0.27622  -0.04541   0.04630
  29   27113.9    368.8   0.000352045   0.00427   0.05430   0.01192   0.03441
  30   27338.2    365.8   0.001065381   0.01283   0.00970   0.06049  -0.09527
  31   27447.4    364.3   0.001086888   0.01304   0.10374  -0.04619  -0.01187
  32   27522.5    363.3   0.001465160   0.01753  -0.05770   0.07085  -0.09580
  33   27676.5    361.3   0.000091855   0.00109  -0.01021  -0.00095  -0.03143
  34   27827.1    359.4   0.000148561   0.00176  -0.04123  -0.00051   0.00757
  35   27883.2    358.6   0.002832795   0.03345  -0.17664   0.02627   0.03944
  36   27958.6    357.7   0.006024125   0.07093  -0.26492  -0.02700  -0.00465
  37   28087.1    356.0   0.005865733   0.06875  -0.01822   0.07920  -0.24929
  38   28093.4    356.0   0.002567775   0.03009  -0.04315   0.14187   0.09000
  39   28105.3    355.8   0.002153697   0.02523   0.00642  -0.15156   0.04706
  40   28283.5    353.6   0.000526731   0.00613   0.02380  -0.06103   0.04290
  41   28414.8    351.9   0.000437579   0.00507   0.01210  -0.06983   0.00685
  42   28507.4    350.8   0.011924378   0.13771   0.05976  -0.21997   0.29283
  43   28528.4    350.5   0.002653740   0.03062  -0.03734  -0.06143   0.15955
  44   28591.8    349.8   0.002995198   0.03449   0.00312  -0.14452   0.11659
  45   28651.4    349.0   0.006446406   0.07407  -0.18087  -0.16408  -0.12014
  46   28761.7    347.7   0.003236743   0.03705   0.18155  -0.02303   0.05966
  47   28830.9    346.9   0.000711734   0.00813   0.03848   0.03766  -0.07231
  48   29187.5    342.6   0.000154904   0.00175  -0.01347  -0.03942   0.00343
  49   29245.4    341.9   0.000916175   0.01031  -0.02882   0.03159  -0.09211
  50   29402.1    340.1   0.001438453   0.01611   0.11919  -0.03503  -0.02596

-----------------------------------------------------------------------------
         ABSORPTION SPECTRUM VIA TRANSITION VELOCITY DIPOLE MOMENTS
-----------------------------------------------------------------------------
State   Energy    Wavelength   fosc        P2         PX        PY        PZ  
        (cm-1)      (nm)                 (au**2)     (au)      (au)      (au) 
-----------------------------------------------------------------------------
   1   15224.3    656.8   0.033576912   0.00349  -0.01050   0.03135  -0.04900
   2   15806.2    632.7   0.000004665   0.00000  -0.00039   0.00033   0.00049
   3   16293.9    613.7   0.000009811   0.00000  -0.00008  -0.00005   0.00104
   4   16550.0    604.2   0.000000570   0.00000  -0.00003  -0.00024   0.00009
   5   16946.5    590.1   0.000114727   0.00001   0.00021   0.00171  -0.00321
   6   17113.3    584.3   0.001568690   0.00018  -0.01307  -0.00028   0.00354
   7   17689.5    565.3   0.000010493   0.00000  -0.00043  -0.00011   0.00103
   8   18090.9    552.8   0.000240604   0.00003  -0.00302   0.00035   0.00453
   9   18630.7    536.7   0.000203588   0.00003   0.00279   0.00379   0.00193
  10   18767.6    532.8   0.002273962   0.00029  -0.00678   0.01433   0.00635
  11   19094.1    523.7   0.000098076   0.00001   0.00140   0.00285   0.00164
  12   19205.4    520.7   0.023534603   0.00309   0.01557   0.04528   0.02822
  13   19664.0    508.5   0.000122160   0.00002  -0.00146  -0.00326  -0.00191
  14   20070.3    498.2   0.005511185   0.00076  -0.00704  -0.02376  -0.01191
  15   21028.3    475.5   0.043685127   0.00628   0.01520  -0.04208   0.06539
  16   24276.6    411.9   0.034819057   0.00578   0.01230  -0.04084   0.06291
  17   24308.9    411.4   0.001823475   0.00030   0.00048  -0.00729   0.01580
  18   25392.0    393.8   0.009311695   0.00162  -0.00550  -0.03413  -0.02052
  19   25442.3    393.0   0.007062785   0.00123  -0.00746  -0.03060  -0.01536
  20   25490.9    392.3   0.007140785   0.00124  -0.00605  -0.02882  -0.01942
  21   25789.6    387.8   0.014212337   0.00251   0.01339   0.04199   0.02372
  22   25926.5    385.7   0.009893111   0.00175  -0.01229  -0.03449  -0.02030
  23   26069.8    383.6   0.004014347   0.00072   0.00301  -0.01387   0.02267
  24   26283.6    380.5   0.000627977   0.00011   0.01001  -0.00173   0.00311
  25   26493.1    377.5   0.001474147   0.00027  -0.00895   0.00725  -0.01159
  26   26525.5    377.0   0.001770803   0.00032  -0.01332  -0.00911   0.00780
  27   26825.3    372.8   0.009848824   0.00181   0.00917  -0.02101   0.03578
  28   26990.3    370.5   0.002125412   0.00039  -0.01631  -0.01080   0.00306
  29   27113.9    368.8   0.000342293   0.00006   0.00543   0.00188   0.00551
  30   27338.2    365.8   0.003752068   0.00070  -0.00469   0.01138  -0.02344
  31   27447.4    364.3   0.000889774   0.00017   0.00076  -0.01285  -0.00112
  32   27522.5    363.3   0.006752090   0.00127  -0.00632   0.01938  -0.02923
  33   27676.5    361.3   0.000083775   0.00002   0.00014  -0.00149  -0.00369
  34   27827.1    359.4   0.000064140   0.00001  -0.00298   0.00139  -0.00118
  35   27883.2    358.6   0.001825857   0.00035  -0.01712   0.00417   0.00613
  36   27958.6    357.7   0.003857804   0.00074  -0.02644  -0.00457  -0.00417
  37   28087.1    356.0   0.019146012   0.00368  -0.00750   0.01890  -0.05711
  38   28093.4    356.0   0.006278913   0.00121   0.00145   0.02914   0.01882
  39   28105.3    355.8   0.006925292   0.00133   0.00503  -0.03437   0.01113
  40   28283.5    353.6   0.002191129   0.00042   0.00376  -0.01467   0.01393
  41   28414.8    351.9   0.002554145   0.00050   0.01560  -0.01588  -0.00068
  42   28507.4    350.8   0.032589736   0.00635   0.00569  -0.04871   0.06280
  43   28528.4    350.5   0.008737291   0.00170   0.02381  -0.00706   0.03297
  44   28591.8    349.8   0.007544435   0.00147   0.00161  -0.02909   0.02501
  45   28651.4    349.0   0.008947175   0.00175  -0.01138  -0.02705  -0.02984
  46   28761.7    347.7   0.003993061   0.00078   0.02082  -0.01046   0.01555
  47   28830.9    346.9   0.002897212   0.00057   0.01489   0.00721  -0.01724
  48   29187.5    342.6   0.000753165   0.00015   0.00193  -0.01086  -0.00534
  49   29245.4    341.9   0.001014485   0.00020  -0.00321   0.00207  -0.01372
  50   29402.1    340.1   0.001023786   0.00021   0.00487  -0.01210  -0.00596

-------------------------------------------------------------------
                             CD SPECTRUM
-------------------------------------------------------------------
State  Energy     Wavelength     R         MX        MY        MZ   
       (cm-1)       (nm)     (1e40*cgs)   (au)      (au)      (au)  
-------------------------------------------------------------------
   1   15224.3    656.8      1.97676   0.17142   0.88445   0.51941
   2   15806.2    632.7     -4.22139  -1.20449   0.15789   0.37838
   3   16293.9    613.7     -4.63313  -1.42057   0.11528   0.45582
   4   16550.0    604.2      1.02154  -0.31161   0.71721  -1.11594
   5   16946.5    590.1     -0.14701  -0.47481  -1.33537  -0.73305
   6   17113.3    584.3      1.02468  -0.02892  -0.01852  -0.01806
   7   17689.5    565.3      3.02572   0.84040  -0.09325  -0.24691
   8   18090.9    552.8     -0.50096  -0.20653   0.20575   0.12874
   9   18630.7    536.7      0.46428  -0.12366   0.31329  -0.49611
  10   18767.6    532.8     -4.50833  -0.10569   0.24610  -0.41839
  11   19094.1    523.7      2.10579  -0.99661   0.12302   0.18330
  12   19205.4    520.7      1.19436  -0.20729   0.75418  -1.19937
  13   19664.0    508.5     -0.53313   0.00610  -0.04459   0.09374
  14   20070.3    498.2     -0.58899   0.08365  -0.15915   0.25835
  15   21028.3    475.5      2.46973   0.24698   0.92167   0.54105
  16   24276.6    411.9     -3.20054   0.06126   0.41704   0.25332
  17   24308.9    411.4     -0.43671   0.09831   0.07332   0.01681
  18   25392.0    393.8      1.25971  -0.11330   0.03258   0.00532
  19   25442.3    393.0     -4.11294  -0.04168   0.08390  -0.07479
  20   25490.9    392.3      1.48088   0.18259  -0.02545  -0.10823
  21   25789.6    387.8      0.37240  -0.00646  -0.00356   0.02061
  22   25926.5    385.7      0.51941  -0.00489   0.01613  -0.04187
  23   26069.8    383.6     -0.45802   0.06384   0.13348   0.06231
  24   26283.6    380.5      0.16968  -0.00544   0.03580  -0.00475
  25   26493.1    377.5      1.48844  -0.06144   0.00768   0.00679
  26   26525.5    377.0     -1.01295   0.02508  -0.01170  -0.01732
  27   26825.3    372.8      0.22072  -0.12208   0.04868   0.05584
  28   26990.3    370.5     -4.37580   0.02548   0.02708  -0.02190
  29   27113.9    368.8      1.29806   0.15358  -0.10057  -0.12748
  30   27338.2    365.8     -2.56835  -0.15602  -0.11937  -0.03451
  31   27447.4    364.3      3.95470   0.08408  -0.01073   0.06991
  32   27522.5    363.3      1.37140  -0.04967  -0.05101  -0.03817
  33   27676.5    361.3     -0.37270  -0.00545   0.03989   0.02573
  34   27827.1    359.4      1.57903  -0.06217   0.08413   0.10943
  35   27883.2    358.6     -1.12443   0.00397  -0.02670  -0.02489
  36   27958.6    357.7      1.21770  -0.00976   0.00122  -0.00664
  37   28087.1    356.0      3.85116  -0.03138  -0.06258  -0.05036
  38   28093.4    356.0     -1.34990  -0.01393  -0.04434   0.03140
  39   28105.3    355.8     -3.96325  -0.01614   0.05654   0.00566
  40   28283.5    353.6     -1.19228  -0.15306   0.03920   0.08174
  41   28414.8    351.9      2.27168   0.03560  -0.05670   0.06254
  42   28507.4    350.8      3.62568  -0.19629   0.09591   0.13837
  43   28528.4    350.5     -2.29553  -0.06198   0.09813  -0.00724
  44   28591.8    349.8     -2.30690   0.50208  -0.02844  -0.09067
  45   28651.4    349.0      7.34779  -0.08537  -0.07993   0.10795
  46   28761.7    347.7     -3.75582  -0.06803   0.02405   0.08277
  47   28830.9    346.9      0.26041   0.09058  -0.03566   0.02200
  48   29187.5    342.6     -3.10122  -0.04424   0.16872  -0.15240
  49   29245.4    341.9      6.12087  -0.08774  -0.34926  -0.23329
  50   29402.1    340.1     -0.86723   0.02367   0.04280   0.12180

Total run time:    16391.915 sec

           *** ORCA-CIS/TD-DFT FINISHED WITHOUT ERROR ***

-----------------------
CIS/TD-DFT TOTAL ENERGY
-----------------------

    E(SCF)  =  -2901.551963861 Eh
    DE(CIS) =      0.069366923 Eh (Root  1)
    ----------------------------- ---------
    E(tot)  =  -2901.482596938 Eh


-------------------------   --------------------
FINAL SINGLE POINT ENERGY     -2901.482596937981
-------------------------   --------------------


                            ***************************************
                            *     ORCA property calculations      *
                            ***************************************

                                    ---------------------
                                    Active property flags
                                    ---------------------
   (+) Dipole Moment


------------------------------------------------------------------------------
                       ORCA ELECTRIC PROPERTIES CALCULATION
------------------------------------------------------------------------------

Dipole Moment Calculation                       ... on
Quadrupole Moment Calculation                   ... off
Polarizability Calculation                      ... off
GBWName                                         ... PCBM.gbw
Electron density file                           ... PCBM.scfp
The origin for moment calculation is the CENTER OF MASS  = (-1.357300, -1.145389 -0.327508)

-------------
DIPOLE MOMENT
-------------
                                X             Y             Z
Electronic contribution:    -71.82998      21.85714      13.73857
Nuclear contribution   :     73.30838     -22.06830     -14.55025
                        -----------------------------------------
Total Dipole Moment    :      1.47840      -0.21116      -0.81169
                        -----------------------------------------
Magnitude (a.u.)       :      1.69974
Magnitude (Debye)      :      4.32038



--------------------
Rotational spectrum 
--------------------
 
Rotational constants in cm-1:     0.002147     0.001169     0.001064 
Rotational constants in MHz :    64.362280    35.060487    31.902290 

 Dipole components along the rotational axes: 
x,y,z [a.u.] :     1.568506     0.297341     0.583504 
x,y,z [Debye]:     3.986826     0.755782     1.483150 

 

Timings for individual modules:

Sum of individual times         ...    20156.997 sec (= 335.950 min)
GTO integral calculation        ...       10.071 sec (=   0.168 min)   0.0 %
SCF iterations                  ...     3754.225 sec (=  62.570 min)  18.6 %
CIS module                      ...    16392.701 sec (= 273.212 min)  81.3 %
                             ****ORCA TERMINATED NORMALLY****
TOTAL RUN TIME: 0 days 5 hours 35 minutes 58 seconds 918 msec
