
                                 *****************
                                 * O   R   C   A *
                                 *****************

           --- An Ab Initio, DFT and Semiempirical electronic structure package ---

                  #######################################################
                  #                        -***-                        #
                  #          Department of theory and spectroscopy      #
                  #               Directorship: Frank Neese             #
                  #        Max Planck Institute fuer Kohlenforschung    #
                  #                Kaiser Wilhelm Platz 1               #
                  #                 D-45470 Muelheim/Ruhr               #
                  #                      Germany                        #
                  #                                                     #
                  #                  All rights reserved                #
                  #                        -***-                        #
                  #######################################################


                         Program Version 4.2.0 -  RELEASE  -


 With contributions from (in alphabetic order):
   Daniel Aravena         : Magnetic Suceptibility
   Michael Atanasov       : Ab Initio Ligand Field Theory (pilot matlab implementation)
   Alexander A. Auer      : GIAO ZORA, VPT2
   Ute Becker             : Parallelization
   Giovanni Bistoni       : ED, misc. LED, open-shell LED, HFLED
   Martin Brehm           : Molecular dynamics
   Dmytro Bykov           : SCF Hessian
   Vijay G. Chilkuri      : MRCI spin determinant printing, contributions to CSF-ICE
   Dipayan Datta          : RHF DLPNO-CCSD density
   Achintya Kumar Dutta   : EOM-CC, STEOM-CC
   Dmitry Ganyushin       : Spin-Orbit,Spin-Spin,Magnetic field MRCI
   Miquel Garcia          : C-PCM Hessian, Gaussian charge scheme
   Yang Guo               : DLPNO-NEVPT2, CIM, IAO-localization
   Andreas Hansen         : Spin unrestricted coupled pair/coupled cluster methods
   Benjamin Helmich-Paris : CASSCF linear response (MC-RPA)
   Lee Huntington         : MR-EOM, pCC
   Robert Izsak           : Overlap fitted RIJCOSX, COSX-SCS-MP3, EOM
   Christian Kollmar      : KDIIS, OOCD, Brueckner-CCSD(T), CCSD density
   Simone Kossmann        : Meta GGA functionals, TD-DFT gradient, OOMP2, MP2 Hessian
   Martin Krupicka        : AUTO-CI
   Lucas Lang             : DCDCAS
   Dagmar Lenk            : GEPOL surface, SMD
   Dimitrios Liakos       : Extrapolation schemes; Compound Job, initial MDCI parallelization
   Dimitrios Manganas     : Further ROCIS development; embedding schemes
   Dimitrios Pantazis     : SARC Basis sets
   Taras Petrenko         : DFT Hessian,TD-DFT gradient, ASA, ECA, R-Raman, ABS, FL, XAS/XES, NRVS
   Peter Pinski           : DLPNO-MP2, DLPNO-MP2 Gradient
   Christoph Reimann      : Effective Core Potentials
   Marius Retegan         : Local ZFS, SOC
   Christoph Riplinger    : Optimizer, TS searches, QM/MM, DLPNO-CCSD(T), (RO)-DLPNO pert. Triples
   Tobias Risthaus        : Range-separated hybrids, TD-DFT gradient, RPA, STAB
   Michael Roemelt        : Original ROCIS implementation
   Masaaki Saitow         : Open-shell DLPNO-CCSD energy and density
   Barbara Sandhoefer     : DKH picture change effects
   Avijit Sen             : IP-ROCIS
   Kantharuban Sivalingam : CASSCF convergence, NEVPT2, FIC-MRCI
   Bernardo de Souza      : ESD, SOC TD-DFT
   Georgi Stoychev        : AutoAux, RI-MP2 NMR
   Willem Van den Heuvel  : Paramagnetic NMR
   Boris Wezisla          : Elementary symmetry handling
   Frank Wennmohs         : Technical directorship


 We gratefully acknowledge several colleagues who have allowed us to
 interface, adapt or use parts of their codes:
   Stefan Grimme, W. Hujo, H. Kruse,             : VdW corrections, initial TS optimization,
                  C. Bannwarth                     DFT functionals, gCP, sTDA/sTD-DF
   Ed Valeev, F. Pavosevic, A. Kumar             : LibInt (2-el integral package), F12 methods
   Garnet Chan, S. Sharma, J. Yang, R. Olivares  : DMRG
   Ulf Ekstrom                                   : XCFun DFT Library
   Mihaly Kallay                                 : mrcc  (arbitrary order and MRCC methods)
   Andreas Klamt, Michael Diedenhofen            : otool_cosmo (COSMO solvation model)
   Jiri Pittner, Ondrej Demel                    : Mk-CCSD
   Frank Weinhold                                : gennbo (NPA and NBO analysis)
   Christopher J. Cramer and Donald G. Truhlar   : smd solvation model
   Lars Goerigk                                  : TD-DFT with DH, B97 family of functionals
   V. Asgeirsson, H. Jonsson                     : NEB implementation
   FAccTs GmbH                                   : IRC, NEB, NEB-TS, Multilevel, MM, QM/MM, CI optimization
   S Lehtola, MJT Oliveira, MAL Marques          : LibXC Library


 Your calculation uses the libint2 library for the computation of 2-el integrals
 For citations please refer to: http://libint.valeyev.net

 Your ORCA version has been built with support for libXC version: 4.2.3
 For citations please refer to: https://tddft.org/programs/libxc/

 This ORCA versions uses:
   CBLAS   interface :  Fast vector & matrix operations
   LAPACKE interface :  Fast linear algebra routines
   SCALAPACK package :  Parallel linear algebra routines


----- Orbital basis set information -----
Your calculation utilizes the basis: def2-TZVP
   F. Weigend and R. Ahlrichs, Phys. Chem. Chem. Phys. 7, 3297 (2005).

----- AuxJ basis set information -----
Your calculation utilizes the auxiliary basis: def2/J
   F. Weigend, Phys. Chem. Chem. Phys. 8, 1057 (2006).

================================================================================
                                        WARNINGS
                       Please study these warnings very carefully!
================================================================================

INFO   : Checking CIS options ...

WARNING: CIS/ROCIS methods need fully converged wavefunctions
  ===> : Setting SCFConvForced true
         You can overwrite this default with %scf ConvForced false 


INFO   : the flag for use of LIBINT has been found!

================================================================================
                                       INPUT FILE
================================================================================
NAME = TPIC-4Cl.inp
|  1> # ORCA input file
|  2> # TPIC-4Cl.out: Geometry 73
|  3> ! B3LYP def2-TZVP def2/J RIJCOSX Grid4 TightSCF
|  4> 
|  5> %maxcore 6000
|  6> %tddft
|  7>   maxdim 5
|  8>   nroots 50
|  9>   end
| 10> %pal
| 11>   nprocs 6
| 12>   end
| 13> 
| 14> 
| 15> * xyz 0 1
| 16>    C        0.30221        -3.08066        -1.47869
| 17>    C       -0.38364        -3.73397        -0.46566
| 18>    C       -1.44103        -4.73401        -0.66978
| 19>    C       -1.91739        -5.16414         0.66948
| 20>    C       -1.19563        -4.46242         1.64871
| 21>    C       -0.21714        -3.55596         1.00585
| 22>    C       -2.89018        -6.08126         1.07702
| 23>    C       -3.11232        -6.26764         2.44730
| 24>    C       -2.37751        -5.55107         3.41678
| 25>    C       -1.40506        -4.63420         3.00785
| 26>   Cl       -2.66396        -5.79406         5.10719
| 27>   Cl       -4.31996        -7.40870         2.93346
| 28>    O        0.54348        -2.83374         1.62939
| 29>    C       -1.95015        -5.22486        -1.86094
| 30>    C       -2.99562        -6.19949        -1.90803
| 31>    C       -1.50461        -4.81949        -3.15744
| 32>    N       -3.84579        -6.99014        -1.96494
| 33>    N       -1.16360        -4.51367        -4.22614
| 34>    C        1.32052        -2.09854        -1.44969
| 35>    S        1.88573        -1.46352        -3.02054
| 36>    C        2.96212        -0.39219        -2.22436
| 37>    C        2.91047        -0.51860        -0.83239
| 38>    C        1.99791        -1.46965        -0.39063
| 39>    C       12.82537         7.70480        -5.55367
| 40>    C       13.87929         8.29580        -4.87883
| 41>    C       15.09387         8.85535        -5.47192
| 42>    C       15.89498         9.43862        -4.36322
| 43>    C       15.21334         9.22233        -3.15094
| 44>    C       13.94818         8.49591        -3.41397
| 45>    C       17.12611        10.09857        -4.33845
| 46>    C       17.63771        10.53354        -3.10772
| 47>    C       16.93006        10.32158        -1.90410
| 48>    C       15.70371         9.65081        -1.92901
| 49>   Cl       17.55976        10.87815        -0.39046
| 50>   Cl       19.16950        11.34146        -3.08842
| 51>    O       13.13981         8.15013        -2.56868
| 52>    C       15.48367         8.84563        -6.80236
| 53>    C       16.68831         9.45837        -7.26938
| 54>    C       14.73490         8.21134        -7.84232
| 55>    N       17.65563         9.94983        -7.68685
| 56>    N       14.14720         7.69549        -8.70325
| 57>    C        3.90950         0.62891        -2.60478
| 58>    C        4.44705         1.16259        -1.39774
| 59>    C        3.87956         0.44576        -0.16321
| 60>    C        4.32885         1.08609        -3.86608
| 61>    C        5.30949         2.06311        -3.90721
| 62>    C        5.81967         2.61577        -2.69940
| 63>    C        5.37909         2.18565        -1.43891
| 64>    C        6.05404         2.64782        -5.13737
| 65>    C        6.97152         3.65956        -4.44623
| 66>    C        6.82474         3.58017        -3.06631
| 67>    C        7.99945         4.57264        -4.78339
| 68>    C        8.62851         5.12999        -3.63069
| 69>    S        7.92127         4.56301        -2.13737
| 70>    N        8.65508         5.00922        -5.91951
| 71>    C        9.69850         5.82440        -5.50170
| 72>    C        9.70850         5.90485        -4.07899
| 73>    C       10.76571         6.49604        -6.09439
| 74>    C       11.62769         7.07956        -5.13699
| 75>    S       11.05110         6.80442        -3.46990
| 76>    C        3.16310         1.42502         0.78824
| 77>    C        8.19013         4.88230        -7.29386
| 78>    C        7.17151         5.95401        -7.66497
| 79>    C        4.94060        -0.34685         0.62470
| 80>    C        6.86141         1.49725        -5.76931
| 81>    C        5.10289         3.37038        -6.10803
| 82>    C        6.30207        -0.34103         0.31200
| 83>    C        7.23213        -0.95787         1.15798
| 84>    C        6.83387        -1.59952         2.33478
| 85>    C        5.45640        -1.66468         2.60589
| 86>    C        4.52970        -1.05297         1.76957
| 87>    C        1.81314         1.75129         0.61074
| 88>    C        1.14196         2.54841         1.54043
| 89>    C        1.79289         3.04141         2.67993
| 90>    C        3.16191         2.77133         2.81501
| 91>    C        3.83697         1.97942         1.88689
| 92>    C        4.23525         4.34656        -5.59366
| 93>    C        3.41875         5.10117        -6.43450
| 94>    C        3.42817         4.90330        -7.82425
| 95>    C        4.28080         3.91493        -8.33159
| 96>    C        5.11063         3.16602        -7.49338
| 97>    C        8.24814         1.39145        -5.59955
| 98>    C        8.95327         0.29099        -6.09314
| 99>    C        8.30564        -0.74459        -6.77631
|100>    C        6.91706        -0.63559        -6.95258
|101>    C        6.21010         0.45885        -6.45764
|102>    C        7.83569        -2.19744         3.29328
|103>    C        7.93748        -3.72345         3.20891
|104>    C        1.05377         3.83440         3.73158
|105>    C        1.20210         5.35076         3.57400
|106>    C        9.07967        -1.90990        -7.34464
|107>    C        9.63179        -1.62001        -8.74973
|108>    C        2.59430         5.75755        -8.75121
|109>    C        3.44065         6.74495        -9.56618
|110>    H        0.00959        -3.35439        -2.49213
|111>    H       -3.48828        -6.66178         0.38077
|112>    H       -0.82188        -4.06725         3.73453
|113>    H        1.77422        -1.72560         0.63972
|114>    H       12.91280         7.68023        -6.64009
|115>    H       17.70870        10.29533        -5.23500
|116>    H       15.14608         9.46389        -1.01052
|117>    H        3.90400         0.65797        -4.77407
|118>    H        5.78181         2.62322        -0.52405
|119>    H       10.97518         6.55811        -7.16264
|120>    H        7.76651         3.87539        -7.41377
|121>    H        9.07534         4.94186        -7.94464
|122>    H        6.27790         5.88407        -7.02799
|123>    H        6.84549         5.82819        -8.70786
|124>    H        7.61222         6.95769        -7.55295
|125>    H        6.65967         0.16828        -0.58221
|126>    H        8.29475        -0.90907         0.90188
|127>    H        5.10561        -2.17584         3.50705
|128>    H        3.47378        -1.08020         2.04368
|129>    H        1.26486         1.34648        -0.24173
|130>    H        0.07974         2.76309         1.39188
|131>    H        3.70397         3.15668         3.68346
|132>    H        4.88895         1.74391         2.05342
|133>    H        4.21151         4.53098        -4.51675
|134>    H        2.76053         5.86038        -6.00380
|135>    H        4.30546         3.72470        -9.40879
|136>    H        5.77513         2.42408        -7.93520
|137>    H        8.79232         2.16442        -5.05773
|138>    H       10.03289         0.23582        -5.92779
|139>    H        6.37926        -1.42848        -7.48030
|140>    H        5.13187         0.50334        -6.61683
|141>    H        7.55462        -1.90943         4.32109
|142>    H        8.82509        -1.75005         3.10668
|143>    H        6.96758        -4.19966         3.42382
|144>    H        8.66953        -4.11004         3.93434
|145>    H        8.25213        -4.04457         2.20343
|146>    H        1.42237         3.53517         4.72720
|147>    H       -0.01419         3.56271         3.70354
|148>    H        2.25743         5.65648         3.65299
|149>    H        0.63540         5.88810         4.34964
|150>    H        0.83091         5.68503         2.59200
|151>    H        8.42974        -2.80012        -7.37434
|152>    H        9.91475        -2.15808        -6.66905
|153>    H        8.81853        -1.37214        -9.44971
|154>    H       10.17847        -2.48734        -9.15315
|155>    H       10.32264        -0.76199        -8.73137
|156>    H        1.84536         6.31090        -8.16177
|157>    H        2.02988         5.10633        -9.44155
|158>    H        4.00459         7.42298        -8.90555
|159>    H        2.80842         7.35981       -10.22682
|160>    H        4.17096         6.21370       -10.19723
|161> *
|162> 
|163>                          ****END OF INPUT****
================================================================================

                       ****************************
                       * Single Point Calculation *
                       ****************************

---------------------------------
CARTESIAN COORDINATES (ANGSTROEM)
---------------------------------
  C      0.302210   -3.080660   -1.478690
  C     -0.383640   -3.733970   -0.465660
  C     -1.441030   -4.734010   -0.669780
  C     -1.917390   -5.164140    0.669480
  C     -1.195630   -4.462420    1.648710
  C     -0.217140   -3.555960    1.005850
  C     -2.890180   -6.081260    1.077020
  C     -3.112320   -6.267640    2.447300
  C     -2.377510   -5.551070    3.416780
  C     -1.405060   -4.634200    3.007850
  Cl    -2.663960   -5.794060    5.107190
  Cl    -4.319960   -7.408700    2.933460
  O      0.543480   -2.833740    1.629390
  C     -1.950150   -5.224860   -1.860940
  C     -2.995620   -6.199490   -1.908030
  C     -1.504610   -4.819490   -3.157440
  N     -3.845790   -6.990140   -1.964940
  N     -1.163600   -4.513670   -4.226140
  C      1.320520   -2.098540   -1.449690
  S      1.885730   -1.463520   -3.020540
  C      2.962120   -0.392190   -2.224360
  C      2.910470   -0.518600   -0.832390
  C      1.997910   -1.469650   -0.390630
  C     12.825370    7.704800   -5.553670
  C     13.879290    8.295800   -4.878830
  C     15.093870    8.855350   -5.471920
  C     15.894980    9.438620   -4.363220
  C     15.213340    9.222330   -3.150940
  C     13.948180    8.495910   -3.413970
  C     17.126110   10.098570   -4.338450
  C     17.637710   10.533540   -3.107720
  C     16.930060   10.321580   -1.904100
  C     15.703710    9.650810   -1.929010
  Cl    17.559760   10.878150   -0.390460
  Cl    19.169500   11.341460   -3.088420
  O     13.139810    8.150130   -2.568680
  C     15.483670    8.845630   -6.802360
  C     16.688310    9.458370   -7.269380
  C     14.734900    8.211340   -7.842320
  N     17.655630    9.949830   -7.686850
  N     14.147200    7.695490   -8.703250
  C      3.909500    0.628910   -2.604780
  C      4.447050    1.162590   -1.397740
  C      3.879560    0.445760   -0.163210
  C      4.328850    1.086090   -3.866080
  C      5.309490    2.063110   -3.907210
  C      5.819670    2.615770   -2.699400
  C      5.379090    2.185650   -1.438910
  C      6.054040    2.647820   -5.137370
  C      6.971520    3.659560   -4.446230
  C      6.824740    3.580170   -3.066310
  C      7.999450    4.572640   -4.783390
  C      8.628510    5.129990   -3.630690
  S      7.921270    4.563010   -2.137370
  N      8.655080    5.009220   -5.919510
  C      9.698500    5.824400   -5.501700
  C      9.708500    5.904850   -4.078990
  C     10.765710    6.496040   -6.094390
  C     11.627690    7.079560   -5.136990
  S     11.051100    6.804420   -3.469900
  C      3.163100    1.425020    0.788240
  C      8.190130    4.882300   -7.293860
  C      7.171510    5.954010   -7.664970
  C      4.940600   -0.346850    0.624700
  C      6.861410    1.497250   -5.769310
  C      5.102890    3.370380   -6.108030
  C      6.302070   -0.341030    0.312000
  C      7.232130   -0.957870    1.157980
  C      6.833870   -1.599520    2.334780
  C      5.456400   -1.664680    2.605890
  C      4.529700   -1.052970    1.769570
  C      1.813140    1.751290    0.610740
  C      1.141960    2.548410    1.540430
  C      1.792890    3.041410    2.679930
  C      3.161910    2.771330    2.815010
  C      3.836970    1.979420    1.886890
  C      4.235250    4.346560   -5.593660
  C      3.418750    5.101170   -6.434500
  C      3.428170    4.903300   -7.824250
  C      4.280800    3.914930   -8.331590
  C      5.110630    3.166020   -7.493380
  C      8.248140    1.391450   -5.599550
  C      8.953270    0.290990   -6.093140
  C      8.305640   -0.744590   -6.776310
  C      6.917060   -0.635590   -6.952580
  C      6.210100    0.458850   -6.457640
  C      7.835690   -2.197440    3.293280
  C      7.937480   -3.723450    3.208910
  C      1.053770    3.834400    3.731580
  C      1.202100    5.350760    3.574000
  C      9.079670   -1.909900   -7.344640
  C      9.631790   -1.620010   -8.749730
  C      2.594300    5.757550   -8.751210
  C      3.440650    6.744950   -9.566180
  H      0.009590   -3.354390   -2.492130
  H     -3.488280   -6.661780    0.380770
  H     -0.821880   -4.067250    3.734530
  H      1.774220   -1.725600    0.639720
  H     12.912800    7.680230   -6.640090
  H     17.708700   10.295330   -5.235000
  H     15.146080    9.463890   -1.010520
  H      3.904000    0.657970   -4.774070
  H      5.781810    2.623220   -0.524050
  H     10.975180    6.558110   -7.162640
  H      7.766510    3.875390   -7.413770
  H      9.075340    4.941860   -7.944640
  H      6.277900    5.884070   -7.027990
  H      6.845490    5.828190   -8.707860
  H      7.612220    6.957690   -7.552950
  H      6.659670    0.168280   -0.582210
  H      8.294750   -0.909070    0.901880
  H      5.105610   -2.175840    3.507050
  H      3.473780   -1.080200    2.043680
  H      1.264860    1.346480   -0.241730
  H      0.079740    2.763090    1.391880
  H      3.703970    3.156680    3.683460
  H      4.888950    1.743910    2.053420
  H      4.211510    4.530980   -4.516750
  H      2.760530    5.860380   -6.003800
  H      4.305460    3.724700   -9.408790
  H      5.775130    2.424080   -7.935200
  H      8.792320    2.164420   -5.057730
  H     10.032890    0.235820   -5.927790
  H      6.379260   -1.428480   -7.480300
  H      5.131870    0.503340   -6.616830
  H      7.554620   -1.909430    4.321090
  H      8.825090   -1.750050    3.106680
  H      6.967580   -4.199660    3.423820
  H      8.669530   -4.110040    3.934340
  H      8.252130   -4.044570    2.203430
  H      1.422370    3.535170    4.727200
  H     -0.014190    3.562710    3.703540
  H      2.257430    5.656480    3.652990
  H      0.635400    5.888100    4.349640
  H      0.830910    5.685030    2.592000
  H      8.429740   -2.800120   -7.374340
  H      9.914750   -2.158080   -6.669050
  H      8.818530   -1.372140   -9.449710
  H     10.178470   -2.487340   -9.153150
  H     10.322640   -0.761990   -8.731370
  H      1.845360    6.310900   -8.161770
  H      2.029880    5.106330   -9.441550
  H      4.004590    7.422980   -8.905550
  H      2.808420    7.359810  -10.226820
  H      4.170960    6.213700  -10.197230

----------------------------
CARTESIAN COORDINATES (A.U.)
----------------------------
  NO LB      ZA    FRAG     MASS         X           Y           Z
   0 C     6.0000    0    12.011    0.571094   -5.821604   -2.794319
   1 C     6.0000    0    12.011   -0.724975   -7.056181   -0.879970
   2 C     6.0000    0    12.011   -2.723152   -8.945982   -1.265701
   3 C     6.0000    0    12.011   -3.623342   -9.758810    1.265134
   4 C     6.0000    0    12.011   -2.259413   -8.432752    3.115610
   5 C     6.0000    0    12.011   -0.410335   -6.719791    1.900781
   6 C     6.0000    0    12.011   -5.461649  -11.491916    2.035273
   7 C     6.0000    0    12.011   -5.881432  -11.844123    4.624727
   8 C     6.0000    0    12.011   -4.492843  -10.490002    6.456778
   9 C     6.0000    0    12.011   -2.655179   -8.757369    5.684013
  10 Cl   17.0000    0    35.453   -5.034155  -10.949187    9.651190
  11 Cl   17.0000    0    35.453   -8.163541  -14.000414    5.543436
  12 O     8.0000    0    15.999    1.027028   -5.354993    3.079101
  13 C     6.0000    0    12.011   -3.685249   -9.873554   -3.516667
  14 C     6.0000    0    12.011   -5.660901  -11.715338   -3.605654
  15 C     6.0000    0    12.011   -2.843301   -9.107516   -5.966697
  16 N     7.0000    0    14.007   -7.267490  -13.209450   -3.713198
  17 N     7.0000    0    14.007   -2.198885   -8.529600   -7.986247
  18 C     6.0000    0    12.011    2.495421   -3.965666   -2.739517
  19 S    16.0000    0    32.060    3.563513   -2.765652   -5.707993
  20 C     6.0000    0    12.011    5.597596   -0.741132   -4.203431
  21 C     6.0000    0    12.011    5.499991   -0.980012   -1.572989
  22 C     6.0000    0    12.011    3.775503   -2.777236   -0.738184
  23 C     6.0000    0    12.011   24.236437   14.559962  -10.494915
  24 C     6.0000    0    12.011   26.228057   15.676790   -9.219653
  25 C     6.0000    0    12.011   28.523281   16.734186  -10.340430
  26 C     6.0000    0    12.011   30.037159   17.836407   -8.245291
  27 C     6.0000    0    12.011   28.749046   17.427678   -5.954414
  28 C     6.0000    0    12.011   26.358240   16.054943   -6.451468
  29 C     6.0000    0    12.011   32.363658   19.083532   -8.198482
  30 C     6.0000    0    12.011   33.330442   19.905506   -5.872740
  31 C     6.0000    0    12.011   31.993177   19.504959   -3.598228
  32 C     6.0000    0    12.011   29.675711   18.237388   -3.645301
  33 Cl   17.0000    0    35.453   33.183137   20.556724   -0.737862
  34 Cl   17.0000    0    35.453   36.225105   21.432253   -5.836268
  35 O     8.0000    0    15.999   24.830642   15.401514   -4.854102
  36 C     6.0000    0    12.011   29.259896   16.715818  -12.854597
  37 C     6.0000    0    12.011   31.536336   17.873729  -13.737137
  38 C     6.0000    0    12.011   27.844926   15.517184  -14.819837
  39 N     7.0000    0    14.007   33.364305   18.802454  -14.526041
  40 N     7.0000    0    14.007   26.734334   14.542369  -16.446759
  41 C     6.0000    0    12.011    7.387884    1.188468   -4.922321
  42 C     6.0000    0    12.011    8.403707    2.196977   -2.641346
  43 C     6.0000    0    12.011    7.331306    0.842364   -0.308422
  44 C     6.0000    0    12.011    8.180341    2.052413   -7.305832
  45 C     6.0000    0    12.011   10.033482    3.898713   -7.383557
  46 C     6.0000    0    12.011   10.997582    4.943089   -5.101127
  47 C     6.0000    0    12.011   10.165007    4.130280   -2.719146
  48 C     6.0000    0    12.011   11.440478    5.003655   -9.708222
  49 C     6.0000    0    12.011   13.174264    6.915566   -8.402157
  50 C     6.0000    0    12.011   12.896890    6.765541   -5.794486
  51 C     6.0000    0    12.011   15.116770    8.641037   -9.039297
  52 C     6.0000    0    12.011   16.305521    9.694276   -6.861010
  53 S    16.0000    0    32.060   14.969031    8.622839   -4.039044
  54 N     7.0000    0    14.007   16.355731    9.466054  -11.186253
  55 C     6.0000    0    12.011   18.327509   11.006521  -10.396706
  56 C     6.0000    0    12.011   18.346406   11.158549   -7.708174
  57 C     6.0000    0    12.011   20.344244   12.275737  -11.516728
  58 C     6.0000    0    12.011   21.973150   13.378430   -9.707504
  59 S    16.0000    0    32.060   20.883552   12.858490   -6.557161
  60 C     6.0000    0    12.011    5.977393    2.692898    1.489558
  61 C     6.0000    0    12.011   15.477103    9.226210  -13.783398
  62 C     6.0000    0    12.011   13.552190   11.251448  -14.484694
  63 C     6.0000    0    12.011    9.336381   -0.655452    1.180512
  64 C     6.0000    0    12.011   12.966186    2.829392  -10.902416
  65 C     6.0000    0    12.011    9.643065    6.369095  -11.542504
  66 C     6.0000    0    12.011   11.909186   -0.644453    0.589595
  67 C     6.0000    0    12.011   13.666745   -1.810112    2.188265
  68 C     6.0000    0    12.011   12.914143   -3.022655    4.412095
  69 C     6.0000    0    12.011   10.311102   -3.145789    4.924418
  70 C     6.0000    0    12.011    8.559892   -1.989825    3.344003
  71 C     6.0000    0    12.011    3.426338    3.309458    1.154131
  72 C     6.0000    0    12.011    2.157992    4.815797    2.910991
  73 C     6.0000    0    12.011    3.388071    5.747432    5.064334
  74 C     6.0000    0    12.011    5.975144    5.237055    5.319598
  75 C     6.0000    0    12.011    7.250822    3.740562    3.565705
  76 C     6.0000    0    12.011    8.003463    8.213808  -10.570485
  77 C     6.0000    0    12.011    6.460501    9.639814  -12.159443
  78 C     6.0000    0    12.011    6.478302    9.265894  -14.785690
  79 C     6.0000    0    12.011    8.089540    7.398146  -15.744423
  80 C     6.0000    0    12.011    9.657691    5.982911  -14.160436
  81 C     6.0000    0    12.011   15.586726    2.629459  -10.581616
  82 C     6.0000    0    12.011   16.919228    0.549891  -11.514366
  83 C     6.0000    0    12.011   15.695385   -1.407071  -12.805370
  84 C     6.0000    0    12.011   13.071349   -1.201091  -13.138472
  85 C     6.0000    0    12.011   11.735388    0.867101  -12.203171
  86 C     6.0000    0    12.011   14.807308   -4.152560    6.223397
  87 C     6.0000    0    12.011   14.999663   -7.036301    6.063961
  88 C     6.0000    0    12.011    1.991337    7.245966    7.051664
  89 C     6.0000    0    12.011    2.271640   10.111471    6.753881
  90 C     6.0000    0    12.011   17.158090   -3.609188  -13.879358
  91 C     6.0000    0    12.011   18.201445   -3.061375  -16.534593
  92 C     6.0000    0    12.011    4.902517   10.880193  -16.537390
  93 C     6.0000    0    12.011    6.501886   12.746108  -18.077460
  94 H     1.0000    0     1.008    0.018122   -6.338878   -4.709443
  95 H     1.0000    0     1.008   -6.591894  -12.588940    0.719551
  96 H     1.0000    0     1.008   -1.553128   -7.685989    7.057239
  97 H     1.0000    0     1.008    3.352790   -3.260911    1.208896
  98 H     1.0000    0     1.008   24.401656   14.513531  -12.547952
  99 H     1.0000    0     1.008   33.464593   19.455354   -9.892716
 100 H     1.0000    0     1.008   28.621943   17.884160   -1.909606
 101 H     1.0000    0     1.008    7.377491    1.243383   -9.021685
 102 H     1.0000    0     1.008   10.926037    4.957167   -0.990311
 103 H     1.0000    0     1.008   20.740084   12.393032  -13.535428
 104 H     1.0000    0     1.008   14.676577    7.323426  -14.009995
 105 H     1.0000    0     1.008   17.149907    9.338762  -15.013194
 106 H     1.0000    0     1.008   11.863512   11.119281  -13.280976
 107 H     1.0000    0     1.008   12.936101   11.013683  -16.455471
 108 H     1.0000    0     1.008   14.385011   13.148129  -14.273007
 109 H     1.0000    0     1.008   12.584952    0.318003   -1.100217
 110 H     1.0000    0     1.008   15.674806   -1.717893    1.704306
 111 H     1.0000    0     1.008    9.648205   -4.111742    6.627364
 112 H     1.0000    0     1.008    6.564493   -2.041282    3.861996
 113 H     1.0000    0     1.008    2.390239    2.544478   -0.456803
 114 H     1.0000    0     1.008    0.150687    5.221483    2.630272
 115 H     1.0000    0     1.008    6.999489    5.965261    6.960731
 116 H     1.0000    0     1.008    9.238777    3.295512    3.880401
 117 H     1.0000    0     1.008    7.958601    8.562311   -8.535421
 118 H     1.0000    0     1.008    5.216646   11.074513  -11.345538
 119 H     1.0000    0     1.008    8.136140    7.038663  -17.780036
 120 H     1.0000    0     1.008   10.913414    4.580847  -14.995355
 121 H     1.0000    0     1.008   16.615077    4.090161   -9.557725
 122 H     1.0000    0     1.008   18.959414    0.445635  -11.201900
 123 H     1.0000    0     1.008   12.055054   -2.699436  -14.135718
 124 H     1.0000    0     1.008    9.697829    0.951175  -12.503997
 125 H     1.0000    0     1.008   14.276163   -3.608300    8.165677
 126 H     1.0000    0     1.008   16.677003   -3.307115    5.870774
 127 H     1.0000    0     1.008   13.166818   -7.936207    6.470082
 128 H     1.0000    0     1.008   16.383037   -7.766850    7.434825
 129 H     1.0000    0     1.008   15.594266   -7.643130    4.163879
 130 H     1.0000    0     1.008    2.687890    6.680503    8.933113
 131 H     1.0000    0     1.008   -0.026815    6.732546    6.998676
 132 H     1.0000    0     1.008    4.265924   10.689198    6.903151
 133 H     1.0000    0     1.008    1.200732   11.126896    8.219628
 134 H     1.0000    0     1.008    1.570192   10.743150    4.898170
 135 H     1.0000    0     1.008   15.929900   -5.291460  -13.935483
 136 H     1.0000    0     1.008   18.736162   -4.078180  -12.602678
 137 H     1.0000    0     1.008   16.664607   -2.592969  -17.857364
 138 H     1.0000    0     1.008   19.234521   -4.700391  -17.296947
 139 H     1.0000    0     1.008   19.506963   -1.439952  -16.499898
 140 H     1.0000    0     1.008    3.487225   11.925873  -15.423510
 141 H     1.0000    0     1.008    3.835917    9.649565  -17.841944
 142 H     1.0000    0     1.008    7.567578   14.027399  -16.829051
 143 H     1.0000    0     1.008    5.307145   13.908025  -19.325889
 144 H     1.0000    0     1.008    7.881972   11.742191  -19.269972

--------------------------------
INTERNAL COORDINATES (ANGSTROEM)
--------------------------------
 C      0   0   0     0.000000000000     0.00000000     0.00000000
 C      1   0   0     1.386879215902     0.00000000     0.00000000
 C      2   1   0     1.469632126792   125.09279798     0.00000000
 C      3   2   1     1.485108754974   107.61471441   180.77065431
 C      4   3   2     1.404364571221   108.61631197     0.22357411
 C      5   4   3     1.480669237642   110.04726795   359.63831711
 C      4   3   2     1.397683200908   132.55058893   180.22566464
 C      7   4   3     1.400625204114   118.87941041   180.06060778
 C      8   7   4     1.411846227958   121.44734834     0.02626070
 C      5   4   3     1.385868259576   122.97190556   179.83847289
 Cl     9   8   7     1.731641911799   120.86453210   180.03519652
 Cl     8   7   4     1.731116356228   118.23602410   180.05917277
 O      6   5   4     1.220224014024   123.53280831   180.32736334
 C      3   2   1     1.385279409542   128.68004803     0.53055391
 C     14   3   2     1.430079936892   122.58012962   180.44300141
 C     14   3   2     1.429595389787   124.38861485     0.14781207
 N     15  14   3     1.162392016275   179.07811513   175.12578684
 N     16  14   3     1.162726701551   178.27265930   175.64240292
 C      1   2   3     1.415046271505   131.90151528   179.27464802
 S     19   1   2     1.786136183778   117.15848853   182.65972748
 C     20  19   1     1.714720383444    90.71133220   178.16123146
 C     21  20  19     1.398652098093   112.48571848     0.70957439
 C     22  21  20     1.390112856462   113.72484399   359.50625174
 C     21  20  19    13.188224016095   137.37880552   170.50658451
 C     24  21  20     1.383993277440   135.12105839   199.71099038
 C     25  24  21     1.462893204236   126.71944837   160.89620369
 C     26  25  24     1.487009352694   107.16023732   177.08320680
 C     27  26  25     1.407493251174   108.72317991     1.04946860
 C     25  24  21     1.480069141561   125.15374833   339.39939484
 C     27  26  25     1.397078606343   132.31862780   180.16446201
 C     30  27  26     1.402009198900   118.92594136   180.45421982
 C     31  30  27     1.412231095997   121.24832276   359.70921775
 C     28  27  26     1.384619360041   122.75403985   180.03797610
 Cl    32  31  30     1.731299599867   120.97277471   180.72378627
 Cl    31  30  27     1.731902947772   118.50611398   179.61453914
 O     29  25  24     1.219647920262   128.07977058     2.52885927
 C     26  25  24     1.386401497403   128.30236624   355.86095924
 C     37  26  25     1.429935494209   123.18032034   178.43188711
 C     37  26  25     1.429859125439   123.63049017   357.65643038
 N     38  37  26     1.162549833297   178.01766278   188.47312410
 N     39  37  26     1.163053299467   178.71382603   198.76571177
 C     21  20  19     1.443916012377   137.00118965   181.57757389
 C     42  21  20     1.425033300137   106.80880124   178.34446934
 C     22  21  20     1.522145692797   110.90121185   179.92519551
 C     42  21  20     1.405612202885   131.46569712   357.23119686
 C     45  42  21     1.384887925754   117.86348054   182.49382102
 C     46  45  42     1.422856881102   120.17934902   357.24955690
 C     43  42  21     1.384574047893   120.36209264   180.95817002
 C     46  45  42     1.552267410017   128.97068315   173.42276563
 C     49  46  45     1.530706332906   100.29082562   179.94520840
 C     50  49  46     1.389973505827   110.31646909     3.53068671
 C     50  49  46     1.415638384935   138.93876595   176.80255126
 C     52  50  49     1.426559776560   112.31783205   188.45956155
 S     51  50  49     1.741057733132   115.52726510   174.19036291
 N     52  50  49     1.382469329750   138.05415244     1.63898390
 C     55  52  50     1.388455589819   107.12801040   187.26910867
 C     53  52  50     1.402768444791   107.28214687   174.08602301
 C     56  55  52     1.393312208301   136.93845989   174.86787842
 C     24  21  20     1.413854540750    11.63889795   111.24751687
 S     57  53  52     1.727076018304   140.67040521   186.33613056
 C     44  22  21     1.541921587403   112.19822988   120.50617245
 C     55  52  50     1.456408291449   126.62544486    19.07462850
 C     62  55  52     1.524425026231   112.44394565    80.48816017
 C     44  22  21     1.541051154829   109.71062883   242.24379243
 C     49  46  45     1.541105384262   107.15913157   296.29745178
 C     49  46  45     1.539142654759   112.34652348    62.97067418
 C     64  44  22     1.396930822661   123.67264729   115.53589181
 C     67  64  44     1.400423275156   120.67781358   172.59695683
 C     68  67  64     1.398278938588   121.42424174     0.16692256
 C     69  68  67     1.405407435088   117.56698713     3.22340058
 C     70  69  68     1.390105447979   121.12654304   356.73929664
 C     61  44  22     1.400125124587   121.18304028   334.94427481
 C     72  61  44     1.396497899354   120.79793773   174.52206770
 C     73  72  61     1.401862730406   121.24552101   359.72553104
 C     74  73  72     1.401929232593   117.64570336     3.62016857
 C     75  74  73     1.394357983482   121.20152816   356.59122163
 C     66  49  46     1.403674840873   118.51344785    51.45518002
 C     77  66  49     1.393958538731   121.16424284   175.41141931
 C     78  77  66     1.403797113475   121.12670289     0.52052162
 C     79  78  77     1.400445303966   117.52976381     0.41245654
 C     80  79  78     1.397168572900   121.50445046   358.92137153
 C     65  49  46     1.401082506671   121.68283807   256.10043287
 C     82  65  49     1.397086832162   121.07887289   175.17444451
 C     83  82  65     1.399489836405   121.45062864     0.11394851
 C     84  83  82     1.403961014167   117.48596569     0.20773423
 C     85  84  83     1.393756420183   121.20194024   359.58467790
 C     69  68  67     1.509925126885   121.80234394   183.60993352
 C     87  69  68     1.531726483776   113.80601251   256.67764551
 C     74  73  72     1.510330836936   121.56063684   183.72304754
 C     89  74  73     1.531724810434   113.62523775   262.66010614
 C     84  83  82     1.509989677415   121.16989620   178.07329803
 C     91  84  83     1.537254245270   112.49468839   274.17712838
 C     79  78  77     1.511402355761   121.58779644   182.81855057
 C     93  79  78     1.534745315484   112.64728268   107.54735195
 H      1   2   3     1.089777596989   115.35103238   359.96311313
 H      7   4   3     1.086043803398   123.16894888     0.04060352
 H     10   5   4     1.090685581320   120.54250389   180.05372105
 H     23  22  21     1.084974073930   126.76442690   181.20739731
 H     24  21  20     1.090209202951   107.32002188     3.07447400
 H     30  27  26     1.087164894669   122.89483856     0.67845699
 H     33  28  27     1.090648515059   120.60324939   180.02312686
 H     45  42  21     1.090059675889   120.22731731     1.02131207
 H     48  43  42     1.091155224017   121.32063821   178.41627063
 H     58  56  55     1.090361604377   126.25244543     4.28536047
 H     62  55  52     1.098954075747   107.81068617   317.68024366
 H     62  55  52     1.100299389303   107.25218180   202.56629755
 H     63  62  55     1.099624461396   110.93314557   298.96549300
 H     63  62  55     1.099881477660   110.39375403   179.87789001
 H     63  62  55     1.101883535996   110.38748606    59.78442719
 H     67  64  44     1.089442958672   120.37051740   354.26893497
 H     68  67  64     1.094134321918   118.94413515   181.90921347
 H     70  69  68     1.093813290877   119.66473064   178.80887399
 H     71  70  69     1.091258361434   118.87836417   183.29088845
 H     72  61  44     1.091415225934   119.79815676   357.02689304
 H     73  72  61     1.093830852234   119.23178547   181.79315162
 H     75  74  73     1.093859711572   119.50804936   178.91555926
 H     76  75  74     1.090806637952   119.20302955   183.40908335
 H     77  66  49     1.092844669704   119.46473282   356.49146844
 H     78  77  66     1.093231852125   119.40415653   180.56323009
 H     80  79  78     1.094145972208   119.54355779   179.26109731
 H     81  80  79     1.089605490992   118.94297199   181.46355602
 H     82  65  49     1.089579462775   120.06652482   356.43341266
 H     83  82  65     1.093601250822   118.98501484   180.93942677
 H     85  84  83     1.093796960363   119.37940322   180.12973139
 H     86  85  84     1.090825718940   118.78863254   180.01433362
 H     87  69  68     1.103785985189   108.59198055   134.88551474
 H     87  69  68     1.101766641399   109.11772712    19.43490071
 H     88  87  69     1.101666139173   111.18613710   300.65829774
 H     88  87  69     1.100725994742   110.96501150   180.72672998
 H     88  87  69     1.101413958192   111.08379861    60.55031214
 H     89  74  73     1.103024812640   108.81616381   140.75692296
 H     89  74  73     1.102334005327   109.08664865    25.24162695
 H     90  89  74     1.101555966531   111.10931093   299.24191438
 H     90  89  74     1.100681868298   111.15768492   179.07280860
 H     90  89  74     1.101745183334   111.06501856    58.98790415
 H     91  84  83     1.102625386657   109.33301738   151.86640134
 H     91  84  83     1.102439915324   109.35205534    35.81865236
 H     92  91  84     1.101273519567   110.98833893   301.44825320
 H     92  91  84     1.101756800614   111.37309509   180.93827508
 H     92  91  84     1.101730063355   110.90654020    60.69948113
 H     93  79  78     1.102064816470   109.31110994   345.42838209
 H     93  79  78     1.104186008062   109.39753437   229.23137843
 H     94  93  79     1.101900631364   111.08474668   300.79086751
 H     94  93  79     1.101913246177   111.15869034   180.44678999
 H     94  93  79     1.101727444108   111.06805088    60.39971888

---------------------------
INTERNAL COORDINATES (A.U.)
---------------------------
 C      0   0   0     0.000000000000     0.00000000     0.00000000
 C      1   0   0     2.620821898882     0.00000000     0.00000000
 C      2   1   0     2.777202237250   125.09279798     0.00000000
 C      3   2   1     2.806448825989   107.61471441   180.77065431
 C      4   3   2     2.653864431789   108.61631197     0.22357411
 C      5   4   3     2.798059354066   110.04726795   359.63831711
 C      4   3   2     2.641238471698   132.55058893   180.22566464
 C      7   4   3     2.646798052043   118.87941041   180.06060778
 C      8   7   4     2.668002714051   121.44734834     0.02626070
 C      5   4   3     2.618911468293   122.97190556   179.83847289
 Cl     9   8   7     3.272328975321   120.86453210   180.03519652
 Cl     8   7   4     3.271335819223   118.23602410   180.05917277
 O      6   5   4     2.305889208539   123.53280831   180.32736334
 C      3   2   1     2.617798702994   128.68004803     0.53055391
 C     14   3   2     2.702459430341   122.58012962   180.44300141
 C     14   3   2     2.701543769014   124.38861485     0.14781207
 N     15  14   3     2.196602571016   179.07811513   175.12578684
 N     16  14   3     2.197235034529   178.27265930   175.64240292
 C      1   2   3     2.674049919971   131.90151528   179.27464802
 S     19   1   2     3.375308225227   117.15848853   182.65972748
 C     20  19   1     3.240351920963    90.71133220   178.16123146
 C     21  20  19     2.643069422030   112.48571848     0.70957439
 C     22  21  20     2.626932593956   113.72484399   359.50625174
 C     21  20  19    24.922131583222   137.37880552   170.50658451
 C     24  21  20     2.615368265550   135.12105839   199.71099038
 C     25  24  21     2.764467519181   126.71944837   160.89620369
 C     26  25  24     2.810040435172   107.16023732   177.08320680
 C     27  26  25     2.659776780061   108.72317991     1.04946860
 C     25  24  21     2.796925336818   125.15374833   339.39939484
 C     27  26  25     2.640095953548   132.31862780   180.16446201
 C     30  27  26     2.649413423159   118.92594136   180.45421982
 C     31  30  27     2.668730009241   121.24832276   359.70921775
 C     28  27  26     2.616551390203   122.75403985   180.03797610
 Cl    32  31  30     3.271682099516   120.97277471   180.72378627
 Cl    31  30  27     3.272822261819   118.50611398   179.61453914
 O     29  25  24     2.304800549102   128.07977058     2.52885927
 C     26  25  24     2.619919141749   128.30236624   355.86095924
 C     37  26  25     2.702186473229   123.18032034   178.43188711
 C     37  26  25     2.702042157167   123.63049017   357.65643038
 N     38  37  26     2.196900801968   178.01766278   188.47312410
 N     39  37  26     2.197852215145   178.71382603   198.76571177
 C     21  20  19     2.728605823777   137.00118965   181.57757389
 C     42  21  20     2.692922668977   106.80880124   178.34446934
 C     22  21  20     2.876438495314   110.90121185   179.92519551
 C     42  21  20     2.656222113951   131.46569712   357.23119686
 C     45  42  21     2.617058905850   117.86348054   182.49382102
 C     46  45  42     2.688809833049   120.17934902   357.24955690
 C     43  42  21     2.616465762653   120.36209264   180.95817002
 C     46  45  42     2.933360291543   128.97068315   173.42276563
 C     49  46  45     2.892615760652   100.29082562   179.94520840
 C     50  49  46     2.626669259419   110.31646909     3.53068671
 C     50  49  46     2.675168852193   138.93876595   176.80255126
 C     52  50  49     2.695807291367   112.31783205   188.45956155
 S     51  50  49     3.290122298966   115.52726510   174.19036291
 N     52  50  49     2.612488421774   138.05415244     1.63898390
 C     55  52  50     2.623800813870   107.12801040   187.26910867
 C     53  52  50     2.650848189961   107.28214687   174.08602301
 C     56  55  52     2.632978492738   136.93845989   174.86787842
 C     24  21  20     2.671797875219    11.63889795   111.24751687
 S     57  53  52     3.263700687057   140.67040521   186.33613056
 C     44  22  21     2.913809520173   112.19822988   120.50617245
 C     55  52  50     2.752212810010   126.62544486    19.07462850
 C     62  55  52     2.880745811273   112.44394565    80.48816017
 C     44  22  21     2.912164640990   109.71062883   242.24379243
 C     49  46  45     2.912267119766   107.15913157   296.29745178
 C     49  46  45     2.908558098532   112.34652348    62.97067418
 C     64  44  22     2.639816682862   123.67264729   115.53589181
 C     67  64  44     2.646416461615   120.67781358   172.59695683
 C     68  67  64     2.642364252762   121.42424174     0.16692256
 C     69  68  67     2.655835158893   117.56698713     3.22340058
 C     70  69  68     2.626918593952   121.12654304   356.73929664
 C     61  44  22     2.645853038692   121.18304028   334.94427481
 C     72  61  44     2.638998576375   120.79793773   174.52206770
 C     73  72  61     2.649136637817   121.24552101   359.72553104
 C     74  73  72     2.649262308740   117.64570336     3.62016857
 C     75  74  73     2.634954721428   121.20152816   356.59122163
 C     66  49  46     2.652561030326   118.51344785    51.45518002
 C     77  66  49     2.634199880242   121.16424284   175.41141931
 C     78  77  66     2.652792092056   121.12670289     0.52052162
 C     79  78  77     2.646458090032   117.52976381     0.41245654
 C     80  79  78     2.640265965703   121.50445046   358.92137153
 C     65  49  46     2.647662228636   121.68283807   256.10043287
 C     82  65  49     2.640111498093   121.07887289   175.17444451
 C     83  82  65     2.644652518011   121.45062864     0.11394851
 C     84  83  82     2.653101819477   117.48596569     0.20773423
 C     85  84  83     2.633817931539   121.20194024   359.58467790
 C     69  68  67     2.853344972540   121.80234394   183.60993352
 C     87  69  68     2.894543566410   113.80601251   256.67764551
 C     74  73  72     2.854111653425   121.56063684   183.72304754
 C     89  74  73     2.894540404253   113.62523775   262.66010614
 C     84  83  82     2.853466955363   121.16989620   178.07329803
 C     91  84  83     2.904989521768   112.49468839   274.17712838
 C     79  78  77     2.856136530552   121.58779644   182.81855057
 C     93  79  78     2.900248331583   112.64728268   107.54735195
 H      1   2   3     2.059381205193   115.35103238   359.96311313
 H      7   4   3     2.052325357865   123.16894888     0.04060352
 H     10   5   4     2.061097046912   120.54250389   180.05372105
 H     23  22  21     2.050303862132   126.76442690   181.20739731
 H     24  21  20     2.060196822259   107.32002188     3.07447400
 H     30  27  26     2.054443913337   122.89483856     0.67845699
 H     33  28  27     2.061027001829   120.60324939   180.02312686
 H     45  42  21     2.059914257062   120.22731731     1.02131207
 H     48  43  42     2.061984542990   121.32063821   178.41627063
 H     58  56  55     2.060484819216   126.25244543     4.28536047
 H     62  55  52     2.076722236918   107.81068617   317.68024366
 H     62  55  52     2.079264511103   107.25218180   202.56629755
 H     63  62  55     2.077989082199   110.93314557   298.96549300
 H     63  62  55     2.078474772550   110.39375403   179.87789001
 H     63  62  55     2.082258114510   110.38748606    59.78442719
 H     67  64  44     2.058748830419   120.37051740   354.26893497
 H     68  67  64     2.067614222150   118.94413515   181.90921347
 H     70  69  68     2.067007561401   119.66473064   178.80887399
 H     71  70  69     2.062179444462   118.87836417   183.29088845
 H     72  61  44     2.062475875407   119.79815676   357.02689304
 H     73  72  61     2.067040747557   119.23178547   181.79315162
 H     75  74  73     2.067095283801   119.50804936   178.91555926
 H     76  75  74     2.061325810793   119.20302955   183.40908335
 H     77  66  49     2.065177132656   119.46473282   356.49146844
 H     78  77  66     2.065908801395   119.40415653   180.56323009
 H     80  79  78     2.067636238007   119.54355779   179.26109731
 H     81  80  79     2.059055971992   118.94297199   181.46355602
 H     82  65  49     2.059006785789   120.06652482   356.43341266
 H     83  82  65     2.066606863768   118.98501484   180.93942677
 H     85  84  83     2.066976701202   119.37940322   180.12973139
 H     86  85  84     2.061361868634   118.78863254   180.01433362
 H     87  69  68     2.085853222468   108.59198055   134.88551474
 H     87  69  68     2.082037215735   109.11772712    19.43490071
 H     88  87  69     2.081847294051   111.18613710   300.65829774
 H     88  87  69     2.080070678550   110.96501150   180.72672998
 H     88  87  69     2.081370741061   111.08379861    60.55031214
 H     89  74  73     2.084414814810   108.81616381   140.75692296
 H     89  74  73     2.083109378176   109.08664865    25.24162695
 H     90  89  74     2.081639097930   111.10931093   299.24191438
 H     90  89  74     2.079987291656   111.15768492   179.07280860
 H     90  89  74     2.081996665868   111.06501856    58.98790415
 H     91  84  83     2.083660009090   109.33301738   151.86640134
 H     91  84  83     2.083309519066   109.35205534    35.81865236
 H     92  91  84     2.081105350522   110.98833893   301.44825320
 H     92  91  84     2.082018619346   111.37309509   180.93827508
 H     92  91  84     2.081968093248   110.90654020    60.69948113
 H     93  79  78     2.082600684958   109.31110994   345.42838209
 H     93  79  78     2.086609156145   109.39753437   229.23137843
 H     94  93  79     2.082290420073   111.08474668   300.79086751
 H     94  93  79     2.082314258614   111.15869034   180.44678999
 H     94  93  79     2.081963143589   111.06805088    60.39971888

---------------------
BASIS SET INFORMATION
---------------------
There are 6 groups of distinct atoms

 Group   1 Type C   : 11s6p2d1f contracted to 5s3p2d1f pattern {62111/411/11/1}
 Group   2 Type Cl  : 14s9p3d1f contracted to 5s5p2d1f pattern {73211/51111/21/1}
 Group   3 Type O   : 11s6p2d1f contracted to 5s3p2d1f pattern {62111/411/11/1}
 Group   4 Type N   : 11s6p2d1f contracted to 5s3p2d1f pattern {62111/411/11/1}
 Group   5 Type S   : 14s9p3d1f contracted to 5s5p2d1f pattern {73211/51111/21/1}
 Group   6 Type H   : 5s1p contracted to 3s1p pattern {311/1}

Atom   0C    basis set group =>   1
Atom   1C    basis set group =>   1
Atom   2C    basis set group =>   1
Atom   3C    basis set group =>   1
Atom   4C    basis set group =>   1
Atom   5C    basis set group =>   1
Atom   6C    basis set group =>   1
Atom   7C    basis set group =>   1
Atom   8C    basis set group =>   1
Atom   9C    basis set group =>   1
Atom  10Cl   basis set group =>   2
Atom  11Cl   basis set group =>   2
Atom  12O    basis set group =>   3
Atom  13C    basis set group =>   1
Atom  14C    basis set group =>   1
Atom  15C    basis set group =>   1
Atom  16N    basis set group =>   4
Atom  17N    basis set group =>   4
Atom  18C    basis set group =>   1
Atom  19S    basis set group =>   5
Atom  20C    basis set group =>   1
Atom  21C    basis set group =>   1
Atom  22C    basis set group =>   1
Atom  23C    basis set group =>   1
Atom  24C    basis set group =>   1
Atom  25C    basis set group =>   1
Atom  26C    basis set group =>   1
Atom  27C    basis set group =>   1
Atom  28C    basis set group =>   1
Atom  29C    basis set group =>   1
Atom  30C    basis set group =>   1
Atom  31C    basis set group =>   1
Atom  32C    basis set group =>   1
Atom  33Cl   basis set group =>   2
Atom  34Cl   basis set group =>   2
Atom  35O    basis set group =>   3
Atom  36C    basis set group =>   1
Atom  37C    basis set group =>   1
Atom  38C    basis set group =>   1
Atom  39N    basis set group =>   4
Atom  40N    basis set group =>   4
Atom  41C    basis set group =>   1
Atom  42C    basis set group =>   1
Atom  43C    basis set group =>   1
Atom  44C    basis set group =>   1
Atom  45C    basis set group =>   1
Atom  46C    basis set group =>   1
Atom  47C    basis set group =>   1
Atom  48C    basis set group =>   1
Atom  49C    basis set group =>   1
Atom  50C    basis set group =>   1
Atom  51C    basis set group =>   1
Atom  52C    basis set group =>   1
Atom  53S    basis set group =>   5
Atom  54N    basis set group =>   4
Atom  55C    basis set group =>   1
Atom  56C    basis set group =>   1
Atom  57C    basis set group =>   1
Atom  58C    basis set group =>   1
Atom  59S    basis set group =>   5
Atom  60C    basis set group =>   1
Atom  61C    basis set group =>   1
Atom  62C    basis set group =>   1
Atom  63C    basis set group =>   1
Atom  64C    basis set group =>   1
Atom  65C    basis set group =>   1
Atom  66C    basis set group =>   1
Atom  67C    basis set group =>   1
Atom  68C    basis set group =>   1
Atom  69C    basis set group =>   1
Atom  70C    basis set group =>   1
Atom  71C    basis set group =>   1
Atom  72C    basis set group =>   1
Atom  73C    basis set group =>   1
Atom  74C    basis set group =>   1
Atom  75C    basis set group =>   1
Atom  76C    basis set group =>   1
Atom  77C    basis set group =>   1
Atom  78C    basis set group =>   1
Atom  79C    basis set group =>   1
Atom  80C    basis set group =>   1
Atom  81C    basis set group =>   1
Atom  82C    basis set group =>   1
Atom  83C    basis set group =>   1
Atom  84C    basis set group =>   1
Atom  85C    basis set group =>   1
Atom  86C    basis set group =>   1
Atom  87C    basis set group =>   1
Atom  88C    basis set group =>   1
Atom  89C    basis set group =>   1
Atom  90C    basis set group =>   1
Atom  91C    basis set group =>   1
Atom  92C    basis set group =>   1
Atom  93C    basis set group =>   1
Atom  94H    basis set group =>   6
Atom  95H    basis set group =>   6
Atom  96H    basis set group =>   6
Atom  97H    basis set group =>   6
Atom  98H    basis set group =>   6
Atom  99H    basis set group =>   6
Atom 100H    basis set group =>   6
Atom 101H    basis set group =>   6
Atom 102H    basis set group =>   6
Atom 103H    basis set group =>   6
Atom 104H    basis set group =>   6
Atom 105H    basis set group =>   6
Atom 106H    basis set group =>   6
Atom 107H    basis set group =>   6
Atom 108H    basis set group =>   6
Atom 109H    basis set group =>   6
Atom 110H    basis set group =>   6
Atom 111H    basis set group =>   6
Atom 112H    basis set group =>   6
Atom 113H    basis set group =>   6
Atom 114H    basis set group =>   6
Atom 115H    basis set group =>   6
Atom 116H    basis set group =>   6
Atom 117H    basis set group =>   6
Atom 118H    basis set group =>   6
Atom 119H    basis set group =>   6
Atom 120H    basis set group =>   6
Atom 121H    basis set group =>   6
Atom 122H    basis set group =>   6
Atom 123H    basis set group =>   6
Atom 124H    basis set group =>   6
Atom 125H    basis set group =>   6
Atom 126H    basis set group =>   6
Atom 127H    basis set group =>   6
Atom 128H    basis set group =>   6
Atom 129H    basis set group =>   6
Atom 130H    basis set group =>   6
Atom 131H    basis set group =>   6
Atom 132H    basis set group =>   6
Atom 133H    basis set group =>   6
Atom 134H    basis set group =>   6
Atom 135H    basis set group =>   6
Atom 136H    basis set group =>   6
Atom 137H    basis set group =>   6
Atom 138H    basis set group =>   6
Atom 139H    basis set group =>   6
Atom 140H    basis set group =>   6
Atom 141H    basis set group =>   6
Atom 142H    basis set group =>   6
Atom 143H    basis set group =>   6
Atom 144H    basis set group =>   6
---------------------------------
AUXILIARY/J BASIS SET INFORMATION
---------------------------------
There are 6 groups of distinct atoms

 Group   1 Type C   : 12s5p4d2f1g contracted to 6s4p3d1f1g pattern {711111/2111/211/2/1}
 Group   2 Type Cl  : 14s5p5d2f1g contracted to 8s4p3d1f1g pattern {71111111/2111/311/2/1}
 Group   3 Type O   : 12s5p4d2f1g contracted to 6s4p3d1f1g pattern {711111/2111/211/2/1}
 Group   4 Type N   : 12s5p4d2f1g contracted to 6s4p3d1f1g pattern {711111/2111/211/2/1}
 Group   5 Type S   : 14s5p5d2f1g contracted to 8s4p3d1f1g pattern {71111111/2111/311/2/1}
 Group   6 Type H   : 5s2p1d contracted to 3s1p1d pattern {311/2/1}

Atom   0C    basis set group =>   1
Atom   1C    basis set group =>   1
Atom   2C    basis set group =>   1
Atom   3C    basis set group =>   1
Atom   4C    basis set group =>   1
Atom   5C    basis set group =>   1
Atom   6C    basis set group =>   1
Atom   7C    basis set group =>   1
Atom   8C    basis set group =>   1
Atom   9C    basis set group =>   1
Atom  10Cl   basis set group =>   2
Atom  11Cl   basis set group =>   2
Atom  12O    basis set group =>   3
Atom  13C    basis set group =>   1
Atom  14C    basis set group =>   1
Atom  15C    basis set group =>   1
Atom  16N    basis set group =>   4
Atom  17N    basis set group =>   4
Atom  18C    basis set group =>   1
Atom  19S    basis set group =>   5
Atom  20C    basis set group =>   1
Atom  21C    basis set group =>   1
Atom  22C    basis set group =>   1
Atom  23C    basis set group =>   1
Atom  24C    basis set group =>   1
Atom  25C    basis set group =>   1
Atom  26C    basis set group =>   1
Atom  27C    basis set group =>   1
Atom  28C    basis set group =>   1
Atom  29C    basis set group =>   1
Atom  30C    basis set group =>   1
Atom  31C    basis set group =>   1
Atom  32C    basis set group =>   1
Atom  33Cl   basis set group =>   2
Atom  34Cl   basis set group =>   2
Atom  35O    basis set group =>   3
Atom  36C    basis set group =>   1
Atom  37C    basis set group =>   1
Atom  38C    basis set group =>   1
Atom  39N    basis set group =>   4
Atom  40N    basis set group =>   4
Atom  41C    basis set group =>   1
Atom  42C    basis set group =>   1
Atom  43C    basis set group =>   1
Atom  44C    basis set group =>   1
Atom  45C    basis set group =>   1
Atom  46C    basis set group =>   1
Atom  47C    basis set group =>   1
Atom  48C    basis set group =>   1
Atom  49C    basis set group =>   1
Atom  50C    basis set group =>   1
Atom  51C    basis set group =>   1
Atom  52C    basis set group =>   1
Atom  53S    basis set group =>   5
Atom  54N    basis set group =>   4
Atom  55C    basis set group =>   1
Atom  56C    basis set group =>   1
Atom  57C    basis set group =>   1
Atom  58C    basis set group =>   1
Atom  59S    basis set group =>   5
Atom  60C    basis set group =>   1
Atom  61C    basis set group =>   1
Atom  62C    basis set group =>   1
Atom  63C    basis set group =>   1
Atom  64C    basis set group =>   1
Atom  65C    basis set group =>   1
Atom  66C    basis set group =>   1
Atom  67C    basis set group =>   1
Atom  68C    basis set group =>   1
Atom  69C    basis set group =>   1
Atom  70C    basis set group =>   1
Atom  71C    basis set group =>   1
Atom  72C    basis set group =>   1
Atom  73C    basis set group =>   1
Atom  74C    basis set group =>   1
Atom  75C    basis set group =>   1
Atom  76C    basis set group =>   1
Atom  77C    basis set group =>   1
Atom  78C    basis set group =>   1
Atom  79C    basis set group =>   1
Atom  80C    basis set group =>   1
Atom  81C    basis set group =>   1
Atom  82C    basis set group =>   1
Atom  83C    basis set group =>   1
Atom  84C    basis set group =>   1
Atom  85C    basis set group =>   1
Atom  86C    basis set group =>   1
Atom  87C    basis set group =>   1
Atom  88C    basis set group =>   1
Atom  89C    basis set group =>   1
Atom  90C    basis set group =>   1
Atom  91C    basis set group =>   1
Atom  92C    basis set group =>   1
Atom  93C    basis set group =>   1
Atom  94H    basis set group =>   6
Atom  95H    basis set group =>   6
Atom  96H    basis set group =>   6
Atom  97H    basis set group =>   6
Atom  98H    basis set group =>   6
Atom  99H    basis set group =>   6
Atom 100H    basis set group =>   6
Atom 101H    basis set group =>   6
Atom 102H    basis set group =>   6
Atom 103H    basis set group =>   6
Atom 104H    basis set group =>   6
Atom 105H    basis set group =>   6
Atom 106H    basis set group =>   6
Atom 107H    basis set group =>   6
Atom 108H    basis set group =>   6
Atom 109H    basis set group =>   6
Atom 110H    basis set group =>   6
Atom 111H    basis set group =>   6
Atom 112H    basis set group =>   6
Atom 113H    basis set group =>   6
Atom 114H    basis set group =>   6
Atom 115H    basis set group =>   6
Atom 116H    basis set group =>   6
Atom 117H    basis set group =>   6
Atom 118H    basis set group =>   6
Atom 119H    basis set group =>   6
Atom 120H    basis set group =>   6
Atom 121H    basis set group =>   6
Atom 122H    basis set group =>   6
Atom 123H    basis set group =>   6
Atom 124H    basis set group =>   6
Atom 125H    basis set group =>   6
Atom 126H    basis set group =>   6
Atom 127H    basis set group =>   6
Atom 128H    basis set group =>   6
Atom 129H    basis set group =>   6
Atom 130H    basis set group =>   6
Atom 131H    basis set group =>   6
Atom 132H    basis set group =>   6
Atom 133H    basis set group =>   6
Atom 134H    basis set group =>   6
Atom 135H    basis set group =>   6
Atom 136H    basis set group =>   6
Atom 137H    basis set group =>   6
Atom 138H    basis set group =>   6
Atom 139H    basis set group =>   6
Atom 140H    basis set group =>   6
Atom 141H    basis set group =>   6
Atom 142H    basis set group =>   6
Atom 143H    basis set group =>   6
Atom 144H    basis set group =>   6


           ************************************************************
           *        Program running with 6 parallel MPI-processes     *
           *              working on a common directory               *
           ************************************************************
------------------------------------------------------------------------------
                           ORCA GTO INTEGRAL CALCULATION
                           -- RI-GTO INTEGRALS CHOSEN --
------------------------------------------------------------------------------

                         BASIS SET STATISTICS AND STARTUP INFO

Gaussian basis set:
 # of primitive gaussian shells          ... 2235
 # of primitive gaussian functions       ... 4851
 # of contracted shells                  ... 1252
 # of contracted basis functions         ... 3262
 Highest angular momentum                ...    3
 Maximum contraction depth               ...    7
Auxiliary gaussian basis set:
 # of primitive gaussian shells          ... 2685
 # of primitive gaussian functions       ... 7445
 # of contracted shells                  ... 1679
 # of contracted aux-basis functions     ... 5181
 Highest angular momentum                ...    4
 Maximum contraction depth               ...    7
Ratio of auxiliary to basis functions    ...  1.59
Integral package used                  ... LIBINT
 One Electron integrals                  ... done
 Ordering auxiliary basis shells         ... done
 Integral threshhold             Thresh  ...  2.500e-11
 Primitive cut-off               TCut    ...  2.500e-12
 Pre-screening matrix                    ... done
 Shell pair data                         ... 
 Ordering of the shell pairs             ... done (   0.052 sec) 224326 of 784378 pairs
 Determination of significant pairs      ... done (   0.001 sec)
 Creation of shell pair data             ... done (   0.023 sec)
 Storage of shell pair data              ... done (   0.037 sec)
 Shell pair data done in (   0.114 sec)
 Computing two index integrals           ... done
 Cholesky decomposition of the V-matrix  ... done


Timings:
 Total evaluation time                   ...  12.359 sec (  0.206 min)
 One electron matrix time                ...   4.578 sec (  0.076 min) = 37.0%
 Schwartz matrix evaluation time         ...   5.813 sec (  0.097 min) = 47.0%
 Two index repulsion integral time       ...   0.638 sec (  0.011 min) =  5.2%
 Cholesky decomposition of V             ...   1.198 sec (  0.020 min) =  9.7%
 Three index repulsion integral time     ...   0.000 sec (  0.000 min) =  0.0%



           ************************************************************
           *        Program running with 6 parallel MPI-processes     *
           *              working on a common directory               *
           ************************************************************
-------------------------------------------------------------------------------
                                 ORCA SCF
-------------------------------------------------------------------------------

------------
SCF SETTINGS
------------
Hamiltonian:
 Density Functional     Method          .... DFT(GTOs)
 Exchange Functional    Exchange        .... B88
   X-Alpha parameter    XAlpha          ....  0.666667
   Becke's b parameter  XBeta           ....  0.004200
 Correlation Functional Correlation     .... LYP
 LDA part of GGA corr.  LDAOpt          .... VWN-5
 Gradients option       PostSCFGGA      .... off
 Hybrid DFT is turned on
   Fraction HF Exchange ScalHFX         ....  0.200000
   Scaling of DF-GGA-X  ScalDFX         ....  0.720000
   Scaling of DF-GGA-C  ScalDFC         ....  0.810000
   Scaling of DF-LDA-C  ScalLDAC        ....  1.000000
   Perturbative correction              ....  0.000000
   Density functional embedding theory  .... OFF
   NL short-range parameter             ....  4.800000
 RI-approximation to the Coulomb term is turned on
   Number of auxiliary basis functions  .... 5181
   RIJ-COSX (HFX calculated with COS-X)).... on


General Settings:
 Integral files         IntName         .... TPIC-4Cl
 Hartree-Fock type      HFTyp           .... RHF
 Total Charge           Charge          ....    0
 Multiplicity           Mult            ....    1
 Number of Electrons    NEL             ....  698
 Basis Dimension        Dim             .... 3262
 Nuclear Repulsion      ENuc            ....  16913.9040221907 Eh

Convergence Acceleration:
 DIIS                   CNVDIIS         .... on
   Start iteration      DIISMaxIt       ....    12
   Startup error        DIISStart       ....  0.200000
   # of expansion vecs  DIISMaxEq       ....     5
   Bias factor          DIISBfac        ....   1.050
   Max. coefficient     DIISMaxC        ....  10.000
 Newton-Raphson         CNVNR           .... off
 SOSCF                  CNVSOSCF        .... on
   Start iteration      SOSCFMaxIt      ....   150
   Startup grad/error   SOSCFStart      ....  0.003300
 Level Shifting         CNVShift        .... on
   Level shift para.    LevelShift      ....    0.2500
   Turn off err/grad.   ShiftErr        ....    0.0010
 Zerner damping         CNVZerner       .... off
 Static damping         CNVDamp         .... on
   Fraction old density DampFac         ....    0.7000
   Max. Damping (<1)    DampMax         ....    0.9800
   Min. Damping (>=0)   DampMin         ....    0.0000
   Turn off err/grad.   DampErr         ....    0.1000
 Fernandez-Rico         CNVRico         .... off

SCF Procedure:
 Maximum # iterations   MaxIter         ....   125
 SCF integral mode      SCFMode         .... Direct
   Integral package                     .... LIBINT
 Reset frequency        DirectResetFreq ....    20
 Integral Threshold     Thresh          ....  2.500e-11 Eh
 Primitive CutOff       TCut            ....  2.500e-12 Eh

Convergence Tolerance:
 Convergence Check Mode ConvCheckMode   .... Total+1el-Energy
 Convergence forced     ConvForced      .... 1
 Energy Change          TolE            ....  1.000e-08 Eh
 1-El. energy change                    ....  1.000e-05 Eh
 Orbital Gradient       TolG            ....  1.000e-05
 Orbital Rotation angle TolX            ....  1.000e-05
 DIIS Error             TolErr          ....  5.000e-07


Diagonalization of the overlap matrix:
Smallest eigenvalue                        ... 1.560e-06
Time for diagonalization                   ...    2.257 sec
Threshold for overlap eigenvalues          ... 1.000e-08
Number of eigenvalues below threshold      ... 0
Time for construction of square roots      ...    1.418 sec
Total time needed                          ...    3.699 sec

-------------------
DFT GRID GENERATION
-------------------

General Integration Accuracy     IntAcc      ...  4.670
Radial Grid Type                 RadialGrid  ... Gauss-Chebyshev
Angular Grid (max. acc.)         AngularGrid ... Lebedev-302
Angular grid pruning method      GridPruning ... 3 (G Style)
Weight generation scheme         WeightScheme... Becke
Basis function cutoff            BFCut       ...    1.0000e-11
Integration weight cutoff        WCut        ...    1.0000e-14
Grids for H and He will be reduced by one unit

# of grid points (after initial pruning)     ... 761028 (   0.1 sec)
# of grid points (after weights+screening)   ... 639862 (  12.2 sec)
nearest neighbour list constructed           ...    0.0 sec
Grid point re-assignment to atoms done       ...    0.1 sec
Grid point division into batches done        ...    2.1 sec
Reduced shell lists constructed in    5.1 sec

Total number of grid points                  ...   639862
Total number of batches                      ...    10075
Average number of points per batch           ...       63
Average number of grid points per atom       ...     4413
Average number of shells per batch           ...   155.77 (12.44%)
Average number of basis functions per batch  ...   398.21 (12.21%)
Average number of large shells per batch     ...    91.33 (58.63%)
Average number of large basis fcns per batch ...   241.73 (60.70%)
Maximum spatial batch extension              ...  18.53, 19.31, 16.76 au
Average spatial batch extension              ...   0.39,  0.39,  0.35 au

Time for grid setup =   18.245 sec

------------------------------
INITIAL GUESS: MODEL POTENTIAL
------------------------------
Loading Hartree-Fock densities                     ... done
Calculating cut-offs                               ... done
Setting up the integral package                    ... done
Initializing the effective Hamiltonian             ... done
Starting the Coulomb interaction                   ... done (   9.7 sec)
Reading the grid                                   ... done
Mapping shells                                     ... done
Starting the XC term evaluation                    ... done (   6.6 sec)
  promolecular density results
     # of electrons  =    697.976212797
     EX              =   -660.894153711
     EC              =    -24.664244732
     EX+EC           =   -685.558398442
Transforming the Hamiltonian                       ... done (   1.1 sec)
Diagonalizing the Hamiltonian                      ... done (   2.1 sec)
Back transforming the eigenvectors                 ... done (   0.5 sec)
Now organizing SCF variables                       ... done
                      ------------------
                      INITIAL GUESS DONE (  38.8 sec)
                      ------------------
--------------------
COSX GRID GENERATION
--------------------

General Integration Accuracy     IntAcc      ...  3.340
Radial Grid Type                 RadialGrid  ... Gauss-Chebyshev
Angular Grid (max. acc.)         AngularGrid ... Lebedev-50
Angular grid pruning method      GridPruning ... 3 (G Style)
Weight generation scheme         WeightScheme... Becke
Basis function cutoff            BFCut       ...    1.0000e-11
Integration weight cutoff        WCut        ...    1.0000e-14
Grids for H and He will be reduced by one unit

# of grid points (after initial pruning)     ...  71652 (   0.0 sec)
# of grid points (after weights+screening)   ...  63161 (   1.1 sec)
nearest neighbour list constructed           ...    0.0 sec
Grid point re-assignment to atoms done       ...    0.0 sec
Grid point division into batches done        ...    0.0 sec
Reduced shell lists constructed in    0.6 sec

Total number of grid points                  ...    63161
Total number of batches                      ...     1065
Average number of points per batch           ...       59
Average number of grid points per atom       ...      436
Average number of shells per batch           ...   191.34 (15.28%)
Average number of basis functions per batch  ...   491.10 (15.06%)
Average number of large shells per batch     ...   111.69 (58.37%)
Average number of large basis fcns per batch ...   299.69 (61.02%)
Maximum spatial batch extension              ...  21.47, 21.47, 17.11 au
Average spatial batch extension              ...   0.95,  0.93,  0.64 au

Overlap Fitting                  UseSFitting ... on
Constructing numerical overlap ... done (      0.6 sec)
Inverting numerical overlap    ... done (      0.5 sec)
Obtaining analytic overlap     ... done (      0.0 sec)
Final contraction and storage  ... done (      1.0 sec)


General Integration Accuracy     IntAcc      ...  3.670
Radial Grid Type                 RadialGrid  ... Gauss-Chebyshev
Angular Grid (max. acc.)         AngularGrid ... Lebedev-50
Angular grid pruning method      GridPruning ... 3 (G Style)
Weight generation scheme         WeightScheme... Becke
Basis function cutoff            BFCut       ...    1.0000e-11
Integration weight cutoff        WCut        ...    1.0000e-14
Grids for H and He will be reduced by one unit

# of grid points (after initial pruning)     ...  89700 (   0.0 sec)
# of grid points (after weights+screening)   ...  78676 (   1.4 sec)
nearest neighbour list constructed           ...    0.0 sec
Grid point re-assignment to atoms done       ...    0.0 sec
Grid point division into batches done        ...    0.0 sec
Reduced shell lists constructed in    0.8 sec

Total number of grid points                  ...    78676
Total number of batches                      ...     1300
Average number of points per batch           ...       60
Average number of grid points per atom       ...      543
Average number of shells per batch           ...   185.26 (14.80%)
Average number of basis functions per batch  ...   476.33 (14.60%)
Average number of large shells per batch     ...   108.16 (58.38%)
Average number of large basis fcns per batch ...   289.70 (60.82%)
Maximum spatial batch extension              ...  23.85, 23.85, 17.83 au
Average spatial batch extension              ...   0.88,  0.89,  0.60 au

Overlap Fitting                  UseSFitting ... on
Constructing numerical overlap ... done (      0.7 sec)
Inverting numerical overlap    ... done (      0.5 sec)
Obtaining analytic overlap     ... done (      0.0 sec)
Final contraction and storage  ... done (      1.0 sec)


General Integration Accuracy     IntAcc      ...  4.010
Radial Grid Type                 RadialGrid  ... Gauss-Chebyshev
Angular Grid (max. acc.)         AngularGrid ... Lebedev-110
Angular grid pruning method      GridPruning ... 3 (G Style)
Weight generation scheme         WeightScheme... Becke
Basis function cutoff            BFCut       ...    1.0000e-11
Integration weight cutoff        WCut        ...    1.0000e-14
Grids for H and He will be reduced by one unit

# of grid points (after initial pruning)     ... 173212 (   0.0 sec)
# of grid points (after weights+screening)   ... 150564 (   2.9 sec)
nearest neighbour list constructed           ...    0.0 sec
Grid point re-assignment to atoms done       ...    0.0 sec
Grid point division into batches done        ...    0.1 sec
Reduced shell lists constructed in    1.1 sec

Total number of grid points                  ...   150564
Total number of batches                      ...     2426
Average number of points per batch           ...       62
Average number of grid points per atom       ...     1038
Average number of shells per batch           ...   172.33 (13.76%)
Average number of basis functions per batch  ...   444.32 (13.62%)
Average number of large shells per batch     ...   101.71 (59.02%)
Average number of large basis fcns per batch ...   272.15 (61.25%)
Maximum spatial batch extension              ...  21.93, 21.93, 18.89 au
Average spatial batch extension              ...   0.67,  0.66,  0.54 au

Overlap Fitting                  UseSFitting ... on
Constructing numerical overlap ... done (      1.2 sec)
Inverting numerical overlap    ... done (      0.5 sec)
Obtaining analytic overlap     ... done (      0.0 sec)
Final contraction and storage  ... done (      1.0 sec)

Time for X-Grid setup             =   15.920 sec
--------------
SCF ITERATIONS
--------------
ITER       Energy         Delta-E        Max-DP      RMS-DP      [F,P]     Damp
               ***  Starting incremental Fock matrix formation  ***
  0  -6535.3642754079   0.000000000000 0.31833724  0.00077674  0.3059326 0.7000
  1  -6536.3958230181  -1.031547610210 0.24800874  0.00062294  0.1046692 0.7000
                               ***Turning on DIIS***
  2  -6536.7825722311  -0.386749212965 0.30771928  0.00095973  0.0442409 0.0000
  3  -6537.4076721813  -0.625099950243 0.22469028  0.00055228  0.0564722 0.0000
  4  -6537.5451733381  -0.137501156749 0.04714320  0.00016704  0.0371630 0.0000
  5  -6537.5593153029  -0.014141964868 0.02089617  0.00007889  0.0139497 0.0000
                      *** Initiating the SOSCF procedure ***
                           *** Shutting down DIIS ***
                      *** Re-Reading the Fockian *** 
                      *** Removing any level shift *** 
ITER      Energy       Delta-E        Grad      Rot      Max-DP    RMS-DP
  6  -6537.56075866  -0.0014433540  0.000885  0.000885  0.013424  0.000028
               *** Restarting incremental Fock matrix formation ***
  7  -6537.56087829  -0.0001196369  0.000605  0.005925  0.030169  0.000092
  8  -6537.56086973   0.0000085682  0.000629  0.003833  0.012091  0.000037
  9  -6537.56091595  -0.0000462238  0.000254  0.002722  0.014055  0.000040
 10  -6537.56091532   0.0000006315  0.000151  0.000381  0.001736  0.000006
 11  -6537.56092084  -0.0000055200  0.000071  0.000713  0.004581  0.000015
 12  -6537.56092021   0.0000006243  0.000068  0.000158  0.002976  0.000003
 13  -6537.56092164  -0.0000014233  0.000048  0.000492  0.003759  0.000006
 14  -6537.56092141   0.0000002255  0.000100  0.000227  0.001916  0.000002
 15  -6537.56092192  -0.0000005044  0.000020  0.000137  0.000993  0.000002
 16  -6537.56092172   0.0000001954  0.000034  0.000066  0.001132  0.000001
 17  -6537.56092176  -0.0000000373  0.000004  0.000044  0.001857  0.000003
[...]
   343a -> 352a  :     0.046592 (c=  0.21585247)
   344a -> 351a  :     0.032833 (c= -0.18120011)
   347a -> 352a  :     0.010888 (c= -0.10434436)
   348a -> 354a  :     0.039567 (c= -0.19891484)

STATE 44:  E=   0.136261 au      3.708 eV    29905.8 cm**-1
   337a -> 349a  :     0.018979 (c=  0.13776501)
   337a -> 350a  :     0.717700 (c=  0.84717203)
   338a -> 349a  :     0.010590 (c=  0.10290745)
   338a -> 350a  :     0.232942 (c=  0.48264059)

STATE 45:  E=   0.136923 au      3.726 eV    30051.2 cm**-1
   329a -> 349a  :     0.041810 (c= -0.20447495)
   332a -> 349a  :     0.014669 (c= -0.12111590)
   336a -> 350a  :     0.743942 (c= -0.86252047)
   341a -> 352a  :     0.012610 (c=  0.11229389)
   343a -> 352a  :     0.028562 (c= -0.16900216)
   344a -> 352a  :     0.011348 (c=  0.10652878)
   348a -> 354a  :     0.041037 (c=  0.20257560)
   348a -> 355a  :     0.027039 (c=  0.16443501)

STATE 46:  E=   0.137354 au      3.738 eV    30145.6 cm**-1
   330a -> 349a  :     0.229131 (c=  0.47867666)
   330a -> 350a  :     0.010540 (c=  0.10266359)
   332a -> 350a  :     0.020786 (c=  0.14417197)
   339a -> 351a  :     0.015821 (c=  0.12578182)
   340a -> 351a  :     0.153856 (c=  0.39224486)
   340a -> 352a  :     0.014723 (c= -0.12133789)
   341a -> 352a  :     0.011008 (c= -0.10491978)
   342a -> 351a  :     0.303381 (c=  0.55080003)
   343a -> 352a  :     0.046183 (c=  0.21490292)
   344a -> 351a  :     0.025541 (c=  0.15981539)
   344a -> 352a  :     0.018128 (c=  0.13463931)
   348a -> 354a  :     0.024458 (c= -0.15639121)

STATE 47:  E=   0.137636 au      3.745 eV    30207.7 cm**-1
   329a -> 349a  :     0.011699 (c= -0.10816223)
   330a -> 349a  :     0.013688 (c=  0.11699427)
   331a -> 349a  :     0.010883 (c= -0.10432181)
   340a -> 351a  :     0.400415 (c=  0.63278354)
   340a -> 352a  :     0.022967 (c= -0.15154958)
   341a -> 351a  :     0.040825 (c= -0.20205132)
   342a -> 351a  :     0.360687 (c= -0.60057186)
   344a -> 351a  :     0.032900 (c= -0.18138350)
   344a -> 352a  :     0.028839 (c= -0.16982134)
   348a -> 354a  :     0.022323 (c= -0.14940950)

STATE 48:  E=   0.137761 au      3.749 eV    30235.0 cm**-1
   329a -> 349a  :     0.476033 (c= -0.68995113)
   330a -> 349a  :     0.146861 (c=  0.38322496)
   330a -> 350a  :     0.023331 (c=  0.15274412)
   331a -> 349a  :     0.027158 (c= -0.16479612)
   331a -> 350a  :     0.013930 (c= -0.11802603)
   336a -> 350a  :     0.057086 (c=  0.23892639)
   340a -> 351a  :     0.100721 (c= -0.31736540)
   343a -> 351a  :     0.013138 (c= -0.11462171)
   348a -> 355a  :     0.021013 (c=  0.14495993)

STATE 49:  E=   0.138054 au      3.757 eV    30299.2 cm**-1
   328a -> 349a  :     0.013272 (c= -0.11520339)
   329a -> 349a  :     0.055032 (c=  0.23458959)
   330a -> 349a  :     0.067517 (c=  0.25984100)
   332a -> 350a  :     0.025260 (c=  0.15893472)
   336a -> 350a  :     0.047993 (c= -0.21907350)
   338a -> 350a  :     0.013974 (c=  0.11820997)
   339a -> 351a  :     0.010833 (c=  0.10408019)
   340a -> 351a  :     0.140549 (c= -0.37489912)
   341a -> 350a  :     0.010482 (c= -0.10238195)
   341a -> 351a  :     0.015742 (c=  0.12546694)
   342a -> 351a  :     0.167830 (c= -0.40967000)
   343a -> 351a  :     0.088004 (c= -0.29665403)
   344a -> 351a  :     0.012929 (c=  0.11370791)
   344a -> 352a  :     0.053914 (c=  0.23219449)
   348a -> 353a  :     0.010398 (c=  0.10196870)
   348a -> 354a  :     0.130921 (c= -0.36183014)
   348a -> 355a  :     0.015907 (c= -0.12612295)

STATE 50:  E=   0.138911 au      3.780 eV    30487.5 cm**-1
   332a -> 349a  :     0.010906 (c=  0.10443284)
   335a -> 349a  :     0.031651 (c= -0.17790841)
   335a -> 350a  :     0.039761 (c=  0.19940155)
   336a -> 350a  :     0.025213 (c=  0.15878698)
   338a -> 350a  :     0.024195 (c= -0.15554712)
   340a -> 351a  :     0.035999 (c=  0.18973373)
   341a -> 352a  :     0.019811 (c=  0.14075223)
   342a -> 351a  :     0.014591 (c= -0.12079450)
   343a -> 351a  :     0.018375 (c=  0.13555448)
   343a -> 352a  :     0.011810 (c= -0.10867521)
   344a -> 351a  :     0.010533 (c=  0.10262952)
   344a -> 352a  :     0.675545 (c=  0.82191525)
   348a -> 355a  :     0.010459 (c= -0.10226970)


-----------------------------
TD-DFT/TDA-EXCITATION SPECTRA
-----------------------------

Center of mass = ( 11.8736,  4.1240, -4.5655)
Calculating the Dipole integrals                  ... done
Transforming integrals                            ... done
Calculating the Linear Momentum integrals         ... done
Transforming integrals                            ... done
Calculating angular momentum integrals            ... done
Transforming integrals                            ... done

-----------------------------------------------------------------------------
         ABSORPTION SPECTRUM VIA TRANSITION ELECTRIC DIPOLE MOMENTS
-----------------------------------------------------------------------------
State   Energy    Wavelength  fosc         T2        TX        TY        TZ  
        (cm-1)      (nm)                 (au**2)    (au)      (au)      (au) 
-----------------------------------------------------------------------------
   1   14886.6    671.7   3.054412392  67.54721  -6.14368  -5.12245   1.88758
   2   17253.2    579.6   0.366965249   7.00212  -2.15488  -1.40396   0.62251
   3   19015.5    525.9   0.258524645   4.47579  -1.50966  -1.32842   0.65726
   4   19556.8    511.3   0.152374061   2.56501  -1.15989  -1.10363   0.04085
   5   19840.3    504.0   0.051188449   0.84938   0.64190   0.57008   0.33520
   6   20668.4    483.8   0.009001755   0.14338   0.31703   0.12009  -0.16869
   7   21801.4    458.7   0.006494850   0.09808   0.28484  -0.09714   0.08664
   8   21946.1    455.7   0.018576183   0.27866  -0.25138   0.30629  -0.34878
   9   22570.9    443.0   0.296852037   4.32979  -1.80262  -1.03827   0.04875
  10   23245.4    430.2   0.060570940   0.85783  -0.39152  -0.74417   0.38827
  11   23922.1    418.0   0.072312534   0.99515   0.83971   0.53088  -0.09060
  12   24084.2    415.2   0.003890447   0.05318  -0.16570  -0.04437   0.15412
  13   24235.8    412.6   0.002104585   0.02859  -0.03704   0.15342  -0.06064
  14   24372.5    410.3   0.094789514   1.28037   0.72755   0.82410  -0.26812
  15   24621.5    406.1   0.004805472   0.06425  -0.05115  -0.08576   0.23299
  16   25052.8    399.2   0.034572177   0.45430   0.47638   0.27844  -0.38708
  17   25334.5    394.7   0.016640339   0.21623   0.29416   0.21109  -0.29179
  18   25555.3    391.3   0.001447681   0.01865  -0.09660  -0.09589   0.01112
  19   25905.4    386.0   0.071405338   0.90744   0.56108   0.50317  -0.58262
  20   25929.8    385.7   0.070616313   0.89656   0.13797   0.31397  -0.88258
  21   26021.8    384.3   0.039407231   0.49856   0.53509   0.27346   0.37075
  22   26084.2    383.4   0.015381422   0.19413   0.29669   0.25165  -0.20683
  23   26193.7    381.8   0.027830430   0.34978  -0.24830  -0.24302  -0.47861
  24   26373.2    379.2   0.007376172   0.09208  -0.04470   0.02887  -0.29874
  25   26402.7    378.7   0.026047950   0.32479  -0.39322  -0.29422   0.28914
  26   26450.3    378.1   0.004556944   0.05672  -0.10654  -0.19615   0.08303
  27   26769.0    373.6   0.009661560   0.11882  -0.16406  -0.22858  -0.19914
  28   27025.7    370.0   0.002643881   0.03221  -0.07696  -0.16108  -0.01834
  29   27090.3    369.1   0.000514386   0.00625  -0.02543   0.00886   0.07434
  30   27131.4    368.6   0.000216190   0.00262  -0.01303  -0.02202  -0.04437
  31   27241.1    367.1   0.002361516   0.02854   0.13067  -0.09078  -0.05677
  32   27989.4    357.3   0.034437879   0.40506   0.36206   0.20878   0.47998
  33   28145.4    355.3   0.034349578   0.40178   0.31724   0.15190   0.52732
  34   28203.5    354.6   0.003839538   0.04482   0.10046   0.18626  -0.00586
  35   28299.4    353.4   0.012523264   0.14569  -0.26825  -0.26946   0.03341
  36   28538.9    350.4   0.007954266   0.09176  -0.29866  -0.04820   0.01539
  37   28564.2    350.1   0.006247610   0.07201  -0.26230  -0.04964   0.02716
  38   28955.1    345.4   0.001564553   0.01779   0.03345   0.12825  -0.01484
  39   29138.6    343.2   0.010112054   0.11425   0.11540   0.20244  -0.24484
  40   29316.1    341.1   0.052106996   0.58515   0.24013   0.20716  -0.69611
  41   29389.1    340.3   0.002205949   0.02471   0.12299   0.09303  -0.03051
  42   29714.5    336.5   0.001611343   0.01785  -0.04508  -0.00027   0.12578
  43   29823.6    335.3   0.045355822   0.50067   0.16843   0.24248  -0.64304
  44   29905.8    334.4   0.000215423   0.00237   0.03008   0.02339   0.03033
  45   30051.2    332.8   0.006509980   0.07132   0.16535   0.08854   0.19010
  46   30145.6    331.7   0.027843632   0.30407  -0.39018  -0.25796  -0.29204
  47   30207.7    331.0   0.007916422   0.08628   0.03821  -0.01958  -0.29057
  48   30235.0    330.7   0.012283532   0.13375   0.05808  -0.00916  -0.36096
  49   30299.2    330.0   0.077944513   0.84689  -0.72906  -0.47352  -0.30188
  50   30487.5    328.0   0.000456549   0.00493  -0.05347   0.04507   0.00629

-----------------------------------------------------------------------------
         ABSORPTION SPECTRUM VIA TRANSITION VELOCITY DIPOLE MOMENTS
-----------------------------------------------------------------------------
State   Energy    Wavelength   fosc        P2         PX        PY        PZ  
        (cm-1)      (nm)                 (au**2)     (au)      (au)      (au) 
-----------------------------------------------------------------------------
   1   14886.6    671.7   0.708463248   0.07208   0.19609   0.16039  -0.08891
   2   17253.2    579.6   0.143359148   0.01690   0.08781   0.08811   0.03783
   3   19015.5    525.9   0.115315473   0.01499   0.09402   0.07246  -0.02994
   4   19556.8    511.3   0.063657886   0.00851   0.07095   0.05527  -0.02049
   5   19840.3    504.0   0.126338474   0.01713  -0.02777  -0.01116   0.12742
   6   20668.4    483.8   0.008485612   0.00120  -0.02204  -0.02182  -0.01540
   7   21801.4    458.7   0.019757554   0.00294  -0.01053  -0.01547  -0.05093
   8   21946.1    455.7   0.000110012   0.00002  -0.00173   0.00210   0.00302
   9   22570.9    443.0   0.175482253   0.02707   0.12297   0.10920   0.00496
  10   23245.4    430.2   0.036938351   0.00587   0.03374   0.03844  -0.05703
  11   23922.1    418.0   0.048786181   0.00798  -0.06651  -0.05572  -0.02117
  12   24084.2    415.2   0.005993761   0.00099   0.01798   0.01887   0.01753
  13   24235.8    412.6   0.001424820   0.00024  -0.00348  -0.00271   0.01472
  14   24372.5    410.3   0.053184307   0.00886  -0.07018  -0.06052   0.01649
  15   24621.5    406.1   0.002053724   0.00035   0.01511   0.00999   0.00418
  16   25052.8    399.2   0.037708303   0.00646  -0.03747  -0.03723  -0.06055
  17   25334.5    394.7   0.014099235   0.00244  -0.03428  -0.03188   0.01580
  18   25555.3    391.3   0.001457601   0.00025   0.00223   0.01540  -0.00352
  19   25905.4    386.0   0.029256869   0.00518  -0.05901  -0.03863   0.01435
  20   25929.8    385.7   0.009989210   0.00177  -0.01573  -0.02725   0.02794
  21   26021.8    384.3   0.018021171   0.00320  -0.04004  -0.03774  -0.01334
  22   26084.2    383.4   0.004888422   0.00087  -0.02190  -0.01979   0.00075
  23   26193.7    381.8   0.003631739   0.00065   0.01877   0.01256  -0.01184
  24   26373.2    379.2   0.000242727   0.00004  -0.00273  -0.00602   0.00034
  25   26402.7    378.7   0.010765695   0.00194   0.01940   0.00864  -0.03862
  26   26450.3    378.1   0.001788613   0.00032   0.00308  -0.00117  -0.01768
  27   26769.0    373.6   0.000595956   0.00011   0.00524   0.00366  -0.00826
  28   27025.7    370.0   0.001135221   0.00021   0.00700   0.00789   0.00992
  29   27090.3    369.1   0.000105365   0.00002   0.00203   0.00321   0.00225
  30   27131.4    368.6   0.000519218   0.00010   0.00538  -0.00011   0.00821
  31   27241.1    367.1   0.001891572   0.00035  -0.01449  -0.01063  -0.00540
  32   27989.4    357.3   0.015783574   0.00302  -0.04045  -0.03417  -0.01470
  33   28145.4    355.3   0.021244257   0.00409  -0.04733  -0.03625  -0.02307
  34   28203.5    354.6   0.004210801   0.00081   0.00597   0.00622   0.02715
  35   28299.4    353.4   0.006305582   0.00122   0.02461   0.02466   0.00239
  36   28538.9    350.4   0.019309875   0.00377   0.04652   0.03958   0.00597
  37   28564.2    350.1   0.019766374   0.00386   0.04617   0.04104   0.00653
  38   28955.1    345.4   0.005729648   0.00113   0.01616   0.01310   0.02648
  39   29138.6    343.2   0.028106975   0.00560   0.01049   0.00803   0.07364
  40   29316.1    341.1   0.008400785   0.00168  -0.03208  -0.02235   0.01242
  41   29389.1    340.3   0.023072847   0.00463  -0.01828  -0.01969  -0.06255
  42   29714.5    336.5   0.003785188   0.00077   0.01932   0.01093   0.01661
  43   29823.6    335.3   0.002099393   0.00043  -0.00747  -0.01050   0.01619
  44   29905.8    334.4   0.000032352   0.00001   0.00076   0.00003   0.00246
  45   30051.2    332.8   0.002341899   0.00048  -0.01492  -0.01231   0.01034
  46   30145.6    331.7   0.013057363   0.00269   0.02984   0.02737   0.03242
  47   30207.7    331.0   0.001593049   0.00033  -0.01373  -0.00955   0.00702
  48   30235.0    330.7   0.011339682   0.00234  -0.02557  -0.02197   0.03474
  49   30299.2    330.0   0.034489609   0.00714   0.06204   0.05125   0.02582
  50   30487.5    328.0   0.000109905   0.00002   0.00297  -0.00060  -0.00370

-------------------------------------------------------------------
                             CD SPECTRUM
-------------------------------------------------------------------
State  Energy     Wavelength     R         MX        MY        MZ   
       (cm-1)       (nm)     (1e40*cgs)   (au)      (au)      (au)  
-------------------------------------------------------------------
   1   14886.6    671.7    -121.80075  -0.58841   0.84908   0.25219
   2   17253.2    579.6     58.20424  -0.29571   0.39625   0.06838
   3   19015.5    525.9     11.22379   0.14977  -0.11597   0.14584
   4   19556.8    511.3     10.04862  -0.12763   0.11864   0.10292
   5   19840.3    504.0    -38.56621  -0.41392   0.38009  -0.09783
   6   20668.4    483.8      4.86407   0.02110  -0.05247  -0.05886
   7   21801.4    458.7     59.41198   0.32723  -0.35918  -0.02398
   8   21946.1    455.7    -34.76031   0.06788  -0.09381   0.08009
   9   22570.9    443.0     82.43465  -0.36649   0.47428   0.13620
  10   23245.4    430.2      6.57450   0.00658  -0.01387   0.01597
  11   23922.1    418.0     14.70202   0.18388  -0.24291  -0.06331
  12   24084.2    415.2     -2.53735   0.00695   0.02443  -0.02042
  13   24235.8    412.6      1.13465  -0.00774   0.01121  -0.00661
  14   24372.5    410.3     -7.10572  -0.04511   0.00749  -0.04320
  15   24621.5    406.1     -2.45855  -0.01230   0.02022  -0.01764
  16   25052.8    399.2     32.18761   0.25885  -0.23331  -0.02564
  17   25334.5    394.7     -4.26516  -0.08944   0.09496   0.00953
  18   25555.3    391.3     -6.36133   0.10591   0.05181   0.15331
  19   25905.4    386.0     45.00507   0.03635  -0.04277  -0.16577
  20   25929.8    385.7    -34.31217  -0.07919   0.03951   0.08414
  21   26021.8    384.3     10.87158   0.09322  -0.11784   0.01457
  22   26084.2    383.4      0.80018   0.10020  -0.12677  -0.01871
  23   26193.7    381.8    -14.93059   0.03423  -0.01787   0.05748
  24   26373.2    379.2      1.20223  -0.04675   0.04859   0.00315
  25   26402.7    378.7      1.80588  -0.05318   0.08659   0.02904
  26   26450.3    378.1     -4.37198  -0.04672   0.10407   0.07422
  27   26769.0    373.6      6.46794   0.13578  -0.18941   0.03666
  28   27025.7    370.0      9.02598   0.05114  -0.13807  -0.04585
  29   27090.3    369.1      6.29071  -0.18596  -0.08969   0.12656
  30   27131.4    368.6     -3.36411   0.11559   0.09550   0.07948
  31   27241.1    367.1      9.86313   0.08708  -0.09720  -0.01264
  32   27989.4    357.3     -0.81862   0.10484  -0.11140  -0.03425
  33   28145.4    355.3     -4.94308   0.08963  -0.11051  -0.04197
  34   28203.5    354.6     -0.56586  -0.02968   0.00975   0.00598
  35   28299.4    353.4     -2.09627   0.03548  -0.01285   0.04815
  36   28538.9    350.4      2.38147  -0.01826   0.01724   0.02795
  37   28564.2    350.1      3.77721  -0.03512   0.04111   0.03097
  38   28955.1    345.4     -6.60602   0.11862  -0.13924   0.00825
  39   29138.6    343.2    -21.73528   0.35210  -0.45095  -0.01862
  40   29316.1    341.1      4.03154  -0.07969   0.06245  -0.02119
  41   29389.1    340.3     -0.29020  -0.03940   0.05190   0.01961
  42   29714.5    336.5     -1.54432   0.13794  -0.13631   0.02311
  43   29823.6    335.3     -6.52344   0.08221  -0.08169   0.01224
  44   29905.8    334.4     -0.28052   0.02567  -0.03188  -0.02049
  45   30051.2    332.8     -0.92588   0.01092  -0.02236  -0.00942
  46   30145.6    331.7      4.51437  -0.13817   0.16546   0.00567
  47   30207.7    331.0     -1.75603  -0.03679   0.03668   0.00551
  48   30235.0    330.7      8.85353  -0.04117   0.05688  -0.06010
  49   30299.2    330.0      5.40572  -0.17332   0.19707   0.07147
  50   30487.5    328.0      1.31974  -0.01469   0.04480  -0.00087

Total run time:    38120.811 sec

           *** ORCA-CIS/TD-DFT FINISHED WITHOUT ERROR ***

-----------------------
CIS/TD-DFT TOTAL ENERGY
-----------------------

    E(SCF)  =  -6537.562792811 Eh
    DE(CIS) =      0.067828389 Eh (Root  1)
    ----------------------------- ---------
    E(tot)  =  -6537.494964422 Eh


-------------------------   --------------------
FINAL SINGLE POINT ENERGY     -6537.494964422352
-------------------------   --------------------


                            ***************************************
                            *     ORCA property calculations      *
                            ***************************************

                                    ---------------------
                                    Active property flags
                                    ---------------------
   (+) Dipole Moment


------------------------------------------------------------------------------
                       ORCA ELECTRIC PROPERTIES CALCULATION
------------------------------------------------------------------------------

Dipole Moment Calculation                       ... on
Quadrupole Moment Calculation                   ... off
Polarizability Calculation                      ... off
GBWName                                         ... TPIC-4Cl.gbw
Electron density file                           ... TPIC-4Cl.scfp
The origin for moment calculation is the CENTER OF MASS  = (11.873627,  4.123992 -4.565462)

-------------
DIPOLE MOMENT
-------------
                                X             Y             Z
Electronic contribution:     33.63909       8.61004      49.30376
Nuclear contribution   :    -34.52588      -8.12812     -48.17316
                        -----------------------------------------
Total Dipole Moment    :     -0.88679       0.48191       1.13060
                        -----------------------------------------
Magnitude (a.u.)       :      1.51555
Magnitude (Debye)      :      3.85223



--------------------
Rotational spectrum 
--------------------
 
Rotational constants in cm-1:     0.000884     0.000172     0.000159 
Rotational constants in MHz :    26.496644     5.169371     4.770861 

 Dipole components along the rotational axes: 
x,y,z [a.u.] :     0.666716     0.882391    -1.036231 
x,y,z [Debye]:     1.694657     2.242859    -2.633890 

 

Timings for individual modules:

Sum of individual times         ...    43155.040 sec (= 719.251 min)
GTO integral calculation        ...       13.544 sec (=   0.226 min)   0.0 %
SCF iterations                  ...     5019.827 sec (=  83.664 min)  11.6 %
CIS module                      ...    38121.670 sec (= 635.361 min)  88.3 %
                             ****ORCA TERMINATED NORMALLY****
TOTAL RUN TIME: 0 days 11 hours 59 minutes 17 seconds 815 msec
