
                                 *****************
                                 * O   R   C   A *
                                 *****************

           --- An Ab Initio, DFT and Semiempirical electronic structure package ---

                  #######################################################
                  #                        -***-                        #
                  #          Department of theory and spectroscopy      #
                  #               Directorship: Frank Neese             #
                  #        Max Planck Institute fuer Kohlenforschung    #
                  #                Kaiser Wilhelm Platz 1               #
                  #                 D-45470 Muelheim/Ruhr               #
                  #                      Germany                        #
                  #                                                     #
                  #                  All rights reserved                #
                  #                        -***-                        #
                  #######################################################


                         Program Version 4.2.0 -  RELEASE  -


 With contributions from (in alphabetic order):
   Daniel Aravena         : Magnetic Suceptibility
   Michael Atanasov       : Ab Initio Ligand Field Theory (pilot matlab implementation)
   Alexander A. Auer      : GIAO ZORA, VPT2
   Ute Becker             : Parallelization
   Giovanni Bistoni       : ED, misc. LED, open-shell LED, HFLED
   Martin Brehm           : Molecular dynamics
   Dmytro Bykov           : SCF Hessian
   Vijay G. Chilkuri      : MRCI spin determinant printing, contributions to CSF-ICE
   Dipayan Datta          : RHF DLPNO-CCSD density
   Achintya Kumar Dutta   : EOM-CC, STEOM-CC
   Dmitry Ganyushin       : Spin-Orbit,Spin-Spin,Magnetic field MRCI
   Miquel Garcia          : C-PCM Hessian, Gaussian charge scheme
   Yang Guo               : DLPNO-NEVPT2, CIM, IAO-localization
   Andreas Hansen         : Spin unrestricted coupled pair/coupled cluster methods
   Benjamin Helmich-Paris : CASSCF linear response (MC-RPA)
   Lee Huntington         : MR-EOM, pCC
   Robert Izsak           : Overlap fitted RIJCOSX, COSX-SCS-MP3, EOM
   Christian Kollmar      : KDIIS, OOCD, Brueckner-CCSD(T), CCSD density
   Simone Kossmann        : Meta GGA functionals, TD-DFT gradient, OOMP2, MP2 Hessian
   Martin Krupicka        : AUTO-CI
   Lucas Lang             : DCDCAS
   Dagmar Lenk            : GEPOL surface, SMD
   Dimitrios Liakos       : Extrapolation schemes; Compound Job, initial MDCI parallelization
   Dimitrios Manganas     : Further ROCIS development; embedding schemes
   Dimitrios Pantazis     : SARC Basis sets
   Taras Petrenko         : DFT Hessian,TD-DFT gradient, ASA, ECA, R-Raman, ABS, FL, XAS/XES, NRVS
   Peter Pinski           : DLPNO-MP2, DLPNO-MP2 Gradient
   Christoph Reimann      : Effective Core Potentials
   Marius Retegan         : Local ZFS, SOC
   Christoph Riplinger    : Optimizer, TS searches, QM/MM, DLPNO-CCSD(T), (RO)-DLPNO pert. Triples
   Tobias Risthaus        : Range-separated hybrids, TD-DFT gradient, RPA, STAB
   Michael Roemelt        : Original ROCIS implementation
   Masaaki Saitow         : Open-shell DLPNO-CCSD energy and density
   Barbara Sandhoefer     : DKH picture change effects
   Avijit Sen             : IP-ROCIS
   Kantharuban Sivalingam : CASSCF convergence, NEVPT2, FIC-MRCI
   Bernardo de Souza      : ESD, SOC TD-DFT
   Georgi Stoychev        : AutoAux, RI-MP2 NMR
   Willem Van den Heuvel  : Paramagnetic NMR
   Boris Wezisla          : Elementary symmetry handling
   Frank Wennmohs         : Technical directorship


 We gratefully acknowledge several colleagues who have allowed us to
 interface, adapt or use parts of their codes:
   Stefan Grimme, W. Hujo, H. Kruse,             : VdW corrections, initial TS optimization,
                  C. Bannwarth                     DFT functionals, gCP, sTDA/sTD-DF
   Ed Valeev, F. Pavosevic, A. Kumar             : LibInt (2-el integral package), F12 methods
   Garnet Chan, S. Sharma, J. Yang, R. Olivares  : DMRG
   Ulf Ekstrom                                   : XCFun DFT Library
   Mihaly Kallay                                 : mrcc  (arbitrary order and MRCC methods)
   Andreas Klamt, Michael Diedenhofen            : otool_cosmo (COSMO solvation model)
   Jiri Pittner, Ondrej Demel                    : Mk-CCSD
   Frank Weinhold                                : gennbo (NPA and NBO analysis)
   Christopher J. Cramer and Donald G. Truhlar   : smd solvation model
   Lars Goerigk                                  : TD-DFT with DH, B97 family of functionals
   V. Asgeirsson, H. Jonsson                     : NEB implementation
   FAccTs GmbH                                   : IRC, NEB, NEB-TS, Multilevel, MM, QM/MM, CI optimization
   S Lehtola, MJT Oliveira, MAL Marques          : LibXC Library


 Your calculation uses the libint2 library for the computation of 2-el integrals
 For citations please refer to: http://libint.valeyev.net

 Your ORCA version has been built with support for libXC version: 4.2.3
 For citations please refer to: https://tddft.org/programs/libxc/

 This ORCA versions uses:
   CBLAS   interface :  Fast vector & matrix operations
   LAPACKE interface :  Fast linear algebra routines
   SCALAPACK package :  Parallel linear algebra routines


----- Orbital basis set information -----
Your calculation utilizes the basis: def2-TZVP
   F. Weigend and R. Ahlrichs, Phys. Chem. Chem. Phys. 7, 3297 (2005).

----- AuxJ basis set information -----
Your calculation utilizes the auxiliary basis: def2/J
   F. Weigend, Phys. Chem. Chem. Phys. 8, 1057 (2006).

================================================================================
                                        WARNINGS
                       Please study these warnings very carefully!
================================================================================

INFO   : Checking CIS options ...

WARNING: CIS/ROCIS methods need fully converged wavefunctions
  ===> : Setting SCFConvForced true
         You can overwrite this default with %scf ConvForced false 


INFO   : the flag for use of LIBINT has been found!

================================================================================
                                       INPUT FILE
================================================================================
NAME = TPIC-4F.inp
|  1> # ORCA input file
|  2> # TPIC-4F.out: Geometry 135
|  3> ! B3LYP def2-TZVP def2/J RIJCOSX Grid4 TightSCF
|  4> 
|  5> %maxcore 6000
|  6> %tddft
|  7>   maxdim 5
|  8>   nroots 50
|  9>   end
| 10> %pal
| 11>   nprocs 6
| 12>   end
| 13> 
| 14> 
| 15> * xyz 0 1
| 16>    C        0.46813        -3.24243        -1.29835
| 17>    C       -0.26371        -3.93946        -0.35086
| 18>    C       -1.27809        -4.96073        -0.65099
| 19>    C       -1.80053        -5.47018         0.64180
| 20>    C       -1.14393        -4.79954         1.68900
| 21>    C       -0.17250        -3.82142         1.13292
| 22>    C       -2.76777        -6.43950         0.94732
| 23>    C       -3.03763        -6.69918         2.28721
| 24>    C       -2.37009        -6.01996         3.32214
| 25>    C       -1.41016        -5.05630         3.03015
| 26>    F       -2.68148        -6.32292         4.57902
| 27>    F       -3.94929        -7.61236         2.61749
| 28>    O        0.53558        -3.09214         1.80667
| 29>    C       -1.71365        -5.41028        -1.88685
| 30>    C       -2.72029        -6.41541        -2.03391
| 31>    C       -1.21802        -4.93213        -3.13942
| 32>    N       -3.53696        -7.23006        -2.17670
| 33>    N       -0.83296        -4.56574        -4.17338
| 34>    C        1.46680        -2.23827        -1.21159
| 35>    S        2.15353        -1.68242        -2.76558
| 36>    C        3.19199        -0.59068        -1.94928
| 37>    C        3.02007        -0.63108        -0.56183
| 38>    C        2.06536        -1.55505        -0.13691
| 39>    C       12.90723         7.75125        -5.43227
| 40>    C       14.00235         8.37653        -4.86884
| 41>    C       15.11761         8.97329        -5.60175
| 42>    C       15.96185         9.68782        -4.61152
| 43>    C       15.44436         9.45585        -3.32165
| 44>    C       14.22223         8.61218        -3.42257
| 45>    C       17.10178        10.48775        -4.76157
| 46>    C       17.67826        11.02919        -3.61584
| 47>    C       17.15165        10.78902        -2.33395
| 48>    C       16.02482         9.98725        -2.17491
| 49>    F       17.75237        11.34963        -1.28566
| 50>    F       18.75997        11.79712        -3.71829
| 51>    O       13.54118         8.21991        -2.49129
| 52>    C       15.41036         8.86138        -6.95247
| 53>    C       16.56031         9.46304        -7.55150
| 54>    C       14.62147         8.09791        -7.86912
| 55>    N       17.49229         9.93905        -8.05753
| 56>    N       13.98988         7.47610        -8.62206
| 57>    C        4.21766         0.36345        -2.31122
| 58>    C        4.72512         0.90775        -1.09803
| 59>    C        3.92837         0.38908         0.11523
| 60>    C        4.70215         0.78368        -3.56236
| 61>    C        5.72905         1.71474        -3.59044
| 62>    C        6.26203         2.22908        -2.37294
| 63>    C        5.75198         1.84068        -1.12308
| 64>    C        6.40883         2.38181        -4.81604
| 65>    C        7.36780         3.34234        -4.10787
| 66>    C        7.28511         3.18757        -2.72955
| 67>    C        8.33518         4.31996        -4.44440
| 68>    C        9.01694         4.83965        -3.30366
| 69>    S        8.40323         4.16301        -1.80929
| 70>    N        8.88247         4.85696        -5.59552
| 71>    C        9.90953         5.70091        -5.19831
| 72>    C       10.03063         5.69695        -3.77827
| 73>    C       10.87451         6.47353        -5.83810
| 74>    C       11.78366         7.05473        -4.92819
| 75>    S       11.37668         6.65531        -3.23842
| 76>    C        3.11047         1.57882         0.66948
| 77>    C        8.26051         4.88290        -6.91489
| 78>    C        7.21006         5.98213        -7.02895
| 79>    C        4.75277        -0.28796         1.21194
| 80>    C        7.15912         1.34705        -5.67567
| 81>    C        5.35810         3.18229        -5.61919
| 82>    C        6.10678        -0.60402         1.06621
| 83>    C        6.81384        -1.20751         2.11135
| 84>    C        6.19302        -1.51644         3.32747
| 85>    C        4.82201        -1.24175         3.44982
| 86>    C        4.11517        -0.63844         2.41397
| 87>    C        1.88382         1.94048         0.09780
| 88>    C        1.14909         3.01318         0.60517
| 89>    C        1.60470         3.75433         1.70317
| 90>    C        2.85440         3.41648         2.24273
| 91>    C        3.59752         2.35080         1.73266
| 92>    C        4.59011         4.14586        -4.94636
| 93>    C        3.63756         4.90634        -5.62201
| 94>    C        3.40608         4.72726        -6.99446
| 95>    C        4.17438         3.76509        -7.66135
| 96>    C        5.13960         3.00926        -6.99005
| 97>    C        8.53946         1.43216        -5.90526
| 98>    C        9.19678         0.51915        -6.73285
| 99>    C        8.50834        -0.52694        -7.36007
|100>    C        7.13117        -0.62744        -7.11271
|101>    C        6.47239         0.28614        -6.28989
|102>    C        6.95725        -2.15544         4.46118
|103>    C        6.91026        -3.68615         4.42535
|104>    C        0.77603         4.87733         2.28186
|105>    C        1.18815         6.27194         1.79234
|106>    C        9.21518        -1.48122        -8.29524
|107>    C        9.55323        -0.85170        -9.65550
|108>    C        2.40922         5.57636        -7.74728
|109>    C        3.09028         6.62093        -8.64025
|110>    H        0.24729        -3.50951        -2.33157
|111>    H       -3.32090        -7.00213         0.19976
|112>    H       -0.88658        -4.52232         3.82482
|113>    H        1.77823        -1.76682         0.88955
|114>    H       12.87690         7.76476        -6.52144
|115>    H       17.56113        10.71501        -5.72119
|116>    H       15.60922         9.78837        -1.18568
|117>    H        4.25555         0.39215        -4.47587
|118>    H        6.14009         2.27667        -0.20083
|119>    H       10.98350         6.60467        -6.91515
|120>    H        7.82342         3.89333        -7.10475
|121>    H        9.06394         5.02698        -7.65302
|122>    H        6.39538         5.81825        -6.30889
|123>    H        6.76867         5.99331        -8.03671
|124>    H        7.66206         6.96771        -6.83332
|125>    H        6.62652        -0.37033         0.13631
|126>    H        7.87616        -1.43073         1.97799
|127>    H        4.30377        -1.49152         4.38027
|128>    H        3.05729        -0.40780         2.55238
|129>    H        1.48366         1.36804        -0.74066
|130>    H        0.18616         3.26751         0.15385
|131>    H        3.24551         3.98111         3.09377
|132>    H        4.55341         2.09384         2.19093
|133>    H        4.74667         4.30773        -3.87765
|134>    H        3.05452         5.64967        -5.07153
|135>    H        4.01458         3.59239        -8.72959
|136>    H        5.72326         2.27972        -7.55055
|137>    H        9.12560         2.22092        -5.43805
|138>    H       10.27332         0.63131        -6.89016
|139>    H        6.55893        -1.43536        -7.57643
|140>    H        5.39713         0.17691        -6.15289
|141>    H        6.54558        -1.79866         5.41976
|142>    H        8.00595        -1.81719         4.42826
|143>    H        5.87477        -4.05211         4.50920
|144>    H        7.49399        -4.12207         5.25068
|145>    H        7.32204        -4.07171         3.47914
|146>    H        0.84382         4.84211         3.38276
|147>    H       -0.28404         4.70381         2.03188
|148>    H        2.24229         6.48155         2.03451
|149>    H        0.57076         7.05154         2.26459
|150>    H        1.07029         6.35763         0.70009
|151>    H        8.58434        -2.37156        -8.44871
|152>    H       10.14340        -1.83927        -7.81814
|153>    H        8.64271        -0.49484       -10.16311
|154>    H       10.05155        -1.57927       -10.31568
|155>    H       10.22510         0.01309        -9.53861
|156>    H        1.73817         6.07970        -7.03185
|157>    H        1.77040         4.92488        -8.36886
|158>    H        3.71282         7.30429        -8.04030
|159>    H        2.34981         7.22463        -9.18882
|160>    H        3.74712         6.13709        -9.38121
|161> *
|162> 
|163>                          ****END OF INPUT****
================================================================================

                       ****************************
                       * Single Point Calculation *
                       ****************************

---------------------------------
CARTESIAN COORDINATES (ANGSTROEM)
---------------------------------
  C      0.468130   -3.242430   -1.298350
  C     -0.263710   -3.939460   -0.350860
  C     -1.278090   -4.960730   -0.650990
  C     -1.800530   -5.470180    0.641800
  C     -1.143930   -4.799540    1.689000
  C     -0.172500   -3.821420    1.132920
  C     -2.767770   -6.439500    0.947320
  C     -3.037630   -6.699180    2.287210
  C     -2.370090   -6.019960    3.322140
  C     -1.410160   -5.056300    3.030150
  F     -2.681480   -6.322920    4.579020
  F     -3.949290   -7.612360    2.617490
  O      0.535580   -3.092140    1.806670
  C     -1.713650   -5.410280   -1.886850
  C     -2.720290   -6.415410   -2.033910
  C     -1.218020   -4.932130   -3.139420
  N     -3.536960   -7.230060   -2.176700
  N     -0.832960   -4.565740   -4.173380
  C      1.466800   -2.238270   -1.211590
  S      2.153530   -1.682420   -2.765580
  C      3.191990   -0.590680   -1.949280
  C      3.020070   -0.631080   -0.561830
  C      2.065360   -1.555050   -0.136910
  C     12.907230    7.751250   -5.432270
  C     14.002350    8.376530   -4.868840
  C     15.117610    8.973290   -5.601750
  C     15.961850    9.687820   -4.611520
  C     15.444360    9.455850   -3.321650
  C     14.222230    8.612180   -3.422570
  C     17.101780   10.487750   -4.761570
  C     17.678260   11.029190   -3.615840
  C     17.151650   10.789020   -2.333950
  C     16.024820    9.987250   -2.174910
  F     17.752370   11.349630   -1.285660
  F     18.759970   11.797120   -3.718290
  O     13.541180    8.219910   -2.491290
  C     15.410360    8.861380   -6.952470
  C     16.560310    9.463040   -7.551500
  C     14.621470    8.097910   -7.869120
  N     17.492290    9.939050   -8.057530
  N     13.989880    7.476100   -8.622060
  C      4.217660    0.363450   -2.311220
  C      4.725120    0.907750   -1.098030
  C      3.928370    0.389080    0.115230
  C      4.702150    0.783680   -3.562360
  C      5.729050    1.714740   -3.590440
  C      6.262030    2.229080   -2.372940
  C      5.751980    1.840680   -1.123080
  C      6.408830    2.381810   -4.816040
  C      7.367800    3.342340   -4.107870
  C      7.285110    3.187570   -2.729550
  C      8.335180    4.319960   -4.444400
  C      9.016940    4.839650   -3.303660
  S      8.403230    4.163010   -1.809290
  N      8.882470    4.856960   -5.595520
  C      9.909530    5.700910   -5.198310
  C     10.030630    5.696950   -3.778270
  C     10.874510    6.473530   -5.838100
  C     11.783660    7.054730   -4.928190
  S     11.376680    6.655310   -3.238420
  C      3.110470    1.578820    0.669480
  C      8.260510    4.882900   -6.914890
  C      7.210060    5.982130   -7.028950
  C      4.752770   -0.287960    1.211940
  C      7.159120    1.347050   -5.675670
  C      5.358100    3.182290   -5.619190
  C      6.106780   -0.604020    1.066210
  C      6.813840   -1.207510    2.111350
  C      6.193020   -1.516440    3.327470
  C      4.822010   -1.241750    3.449820
  C      4.115170   -0.638440    2.413970
  C      1.883820    1.940480    0.097800
  C      1.149090    3.013180    0.605170
  C      1.604700    3.754330    1.703170
  C      2.854400    3.416480    2.242730
  C      3.597520    2.350800    1.732660
  C      4.590110    4.145860   -4.946360
  C      3.637560    4.906340   -5.622010
  C      3.406080    4.727260   -6.994460
  C      4.174380    3.765090   -7.661350
  C      5.139600    3.009260   -6.990050
  C      8.539460    1.432160   -5.905260
  C      9.196780    0.519150   -6.732850
  C      8.508340   -0.526940   -7.360070
  C      7.131170   -0.627440   -7.112710
  C      6.472390    0.286140   -6.289890
  C      6.957250   -2.155440    4.461180
  C      6.910260   -3.686150    4.425350
  C      0.776030    4.877330    2.281860
  C      1.188150    6.271940    1.792340
  C      9.215180   -1.481220   -8.295240
  C      9.553230   -0.851700   -9.655500
  C      2.409220    5.576360   -7.747280
  C      3.090280    6.620930   -8.640250
  H      0.247290   -3.509510   -2.331570
  H     -3.320900   -7.002130    0.199760
  H     -0.886580   -4.522320    3.824820
  H      1.778230   -1.766820    0.889550
  H     12.876900    7.764760   -6.521440
  H     17.561130   10.715010   -5.721190
  H     15.609220    9.788370   -1.185680
  H      4.255550    0.392150   -4.475870
  H      6.140090    2.276670   -0.200830
  H     10.983500    6.604670   -6.915150
  H      7.823420    3.893330   -7.104750
  H      9.063940    5.026980   -7.653020
  H      6.395380    5.818250   -6.308890
  H      6.768670    5.993310   -8.036710
  H      7.662060    6.967710   -6.833320
  H      6.626520   -0.370330    0.136310
  H      7.876160   -1.430730    1.977990
  H      4.303770   -1.491520    4.380270
  H      3.057290   -0.407800    2.552380
  H      1.483660    1.368040   -0.740660
  H      0.186160    3.267510    0.153850
  H      3.245510    3.981110    3.093770
  H      4.553410    2.093840    2.190930
  H      4.746670    4.307730   -3.877650
  H      3.054520    5.649670   -5.071530
  H      4.014580    3.592390   -8.729590
  H      5.723260    2.279720   -7.550550
  H      9.125600    2.220920   -5.438050
  H     10.273320    0.631310   -6.890160
  H      6.558930   -1.435360   -7.576430
  H      5.397130    0.176910   -6.152890
  H      6.545580   -1.798660    5.419760
  H      8.005950   -1.817190    4.428260
  H      5.874770   -4.052110    4.509200
  H      7.493990   -4.122070    5.250680
  H      7.322040   -4.071710    3.479140
  H      0.843820    4.842110    3.382760
  H     -0.284040    4.703810    2.031880
  H      2.242290    6.481550    2.034510
  H      0.570760    7.051540    2.264590
  H      1.070290    6.357630    0.700090
  H      8.584340   -2.371560   -8.448710
  H     10.143400   -1.839270   -7.818140
  H      8.642710   -0.494840  -10.163110
  H     10.051550   -1.579270  -10.315680
  H     10.225100    0.013090   -9.538610
  H      1.738170    6.079700   -7.031850
  H      1.770400    4.924880   -8.368860
  H      3.712820    7.304290   -8.040300
  H      2.349810    7.224630   -9.188820
  H      3.747120    6.137090   -9.381210

----------------------------
CARTESIAN COORDINATES (A.U.)
----------------------------
  NO LB      ZA    FRAG     MASS         X           Y           Z
   0 C     6.0000    0    12.011    0.884637   -6.127305   -2.453526
   1 C     6.0000    0    12.011   -0.498340   -7.444501   -0.663029
   2 C     6.0000    0    12.011   -2.415240   -9.374421   -1.230193
   3 C     6.0000    0    12.011   -3.402509  -10.337142    1.212826
   4 C     6.0000    0    12.011   -2.161714   -9.069816    3.191747
   5 C     6.0000    0    12.011   -0.325978   -7.221437    2.140909
   6 C     6.0000    0    12.011   -5.230327  -12.168891    1.790175
   7 C     6.0000    0    12.011   -5.740289  -12.659616    4.322201
   8 C     6.0000    0    12.011   -4.478821  -11.376076    6.277935
   9 C     6.0000    0    12.011   -2.664816   -9.555022    5.726154
  10 F     9.0000    0    18.998   -5.067263  -11.948587    8.653094
  11 F     9.0000    0    18.998   -7.463077  -14.385276    4.946339
  12 O     8.0000    0    15.999    1.012100   -5.843298    3.414112
  13 C     6.0000    0    12.011   -3.238329  -10.223948   -3.565630
  14 C     6.0000    0    12.011   -5.140603  -12.123368   -3.843533
  15 C     6.0000    0    12.011   -2.301724   -9.320375   -5.932644
  16 N     7.0000    0    14.007   -6.683886  -13.662833   -4.113367
  17 N     7.0000    0    14.007   -1.574066   -8.627998   -7.886545
  18 C     6.0000    0    12.011    2.771850   -4.229717   -2.289573
  19 S    16.0000    0    32.060    4.069582   -3.179313   -5.226189
  20 C     6.0000    0    12.011    6.031987   -1.116223   -3.683605
  21 C     6.0000    0    12.011    5.707105   -1.192568   -1.061705
  22 C     6.0000    0    12.011    3.902965   -2.938619   -0.258722
  23 C     6.0000    0    12.011   24.391130   14.647740  -10.265503
  24 C     6.0000    0    12.011   26.460607   15.829348   -9.200774
  25 C     6.0000    0    12.011   28.568143   16.957061  -10.585773
  26 C     6.0000    0    12.011   30.163525   18.307327   -8.714510
  27 C     6.0000    0    12.011   29.185611   17.868967   -6.277009
  28 C     6.0000    0    12.011   26.876120   16.274662   -6.467720
  29 C     6.0000    0    12.011   32.317681   19.818975   -8.998063
  30 C     6.0000    0    12.011   33.407070   20.842149   -6.832947
  31 C     6.0000    0    12.011   32.411921   20.388293   -4.410526
  32 C     6.0000    0    12.011   30.282521   18.873167   -4.109984
  33 F     9.0000    0    18.998   33.547118   21.447692   -2.429545
  34 F     9.0000    0    18.998   35.451206   22.293326   -7.026550
  35 O     8.0000    0    15.999   25.589122   15.533379   -4.707856
  36 C     6.0000    0    12.011   29.121360   16.745581  -13.138264
  37 C     6.0000    0    12.011   31.294451   17.882554  -14.270267
  38 C     6.0000    0    12.011   27.630574   15.302832  -14.870482
  39 N     7.0000    0    14.007   33.055638   18.782083  -15.226525
  40 N     7.0000    0    14.007   26.437042   14.127782  -16.293332
  41 C     6.0000    0    12.011    7.970222    0.686821   -4.367573
  42 C     6.0000    0    12.011    8.929183    1.715399   -2.074976
  43 C     6.0000    0    12.011    7.423543    0.735255    0.217753
  44 C     6.0000    0    12.011    8.885776    1.480941   -6.731885
  45 C     6.0000    0    12.011   10.826336    3.240389   -6.784948
  46 C     6.0000    0    12.011   11.833522    4.212351   -4.484207
  47 C     6.0000    0    12.011   10.869667    3.478381   -2.122314
  48 C     6.0000    0    12.011   12.110934    4.500969   -9.100997
  49 C     6.0000    0    12.011   13.923124    6.316107   -7.762749
  50 C     6.0000    0    12.011   13.766863    6.023634   -5.158102
  51 C     6.0000    0    12.011   15.751207    8.163541   -8.398699
  52 C     6.0000    0    12.011   17.039547    9.145613   -6.243013
  53 S    16.0000    0    32.060   15.879803    7.866949   -3.419063
  54 N     7.0000    0    14.007   16.785436    9.178324  -10.574000
  55 C     6.0000    0    12.011   18.726298   10.773159   -9.823382
  56 C     6.0000    0    12.011   18.955144   10.765675   -7.139896
  57 C     6.0000    0    12.011   20.549846   12.233199  -11.032410
  58 C     6.0000    0    12.011   22.267890   13.331508   -9.312929
  59 S    16.0000    0    32.060   21.498810   12.576713   -6.119727
  60 C     6.0000    0    12.011    5.877936    2.983537    1.265134
  61 C     6.0000    0    12.011   15.610102    9.227344  -13.067248
  62 C     6.0000    0    12.011   13.625039   11.304587  -13.282791
  63 C     6.0000    0    12.011    8.981434   -0.544166    2.290235
  64 C     6.0000    0    12.011   13.528776    2.545556  -10.725462
  65 C     6.0000    0    12.011   10.125342    6.013657  -10.618730
  66 C     6.0000    0    12.011   11.540142   -1.141432    2.014845
  67 C     6.0000    0    12.011   12.876292   -2.281863    3.989873
  68 C     6.0000    0    12.011   11.703112   -2.865656    6.288007
  69 C     6.0000    0    12.011    9.112278   -2.346567    6.519215
  70 C     6.0000    0    12.011    7.776544   -1.206477    4.561742
  71 C     6.0000    0    12.011    3.559904    3.666976    0.184815
  72 C     6.0000    0    12.011    2.171465    5.694085    1.143606
  73 C     6.0000    0    12.011    3.032444    7.094656    3.218525
  74 C     6.0000    0    12.011    5.394034    6.456212    4.238145
  75 C     6.0000    0    12.011    6.798328    4.442368    3.274253
  76 C     6.0000    0    12.011    8.674051    7.834540   -9.347266
  77 C     6.0000    0    12.011    6.873992    9.271639  -10.624059
  78 C     6.0000    0    12.011    6.436558    8.933227  -13.217614
  79 C     6.0000    0    12.011    7.888435    7.114989  -14.477853
  80 C     6.0000    0    12.011    9.712436    5.686677  -13.209280
  81 C     6.0000    0    12.011   16.137241    2.706390  -11.159324
  82 C     6.0000    0    12.011   17.379396    0.981051  -12.723243
  83 C     6.0000    0    12.011   16.078432   -0.995772  -13.908517
  84 C     6.0000    0    12.011   13.475958   -1.185690  -13.441074
  85 C     6.0000    0    12.011   12.231045    0.540726  -11.886170
  86 C     6.0000    0    12.011   13.147297   -4.073191    8.430408
  87 C     6.0000    0    12.011   13.058499   -6.965814    8.362700
  88 C     6.0000    0    12.011    1.466484    9.216818    4.312090
  89 C     6.0000    0    12.011    2.245278   11.852249    3.387032
  90 C     6.0000    0    12.011   17.414166   -2.799100  -15.675732
  91 C     6.0000    0    12.011   18.052988   -1.609480  -18.246251
  92 C     6.0000    0    12.011    4.552766   10.537793  -14.640237
  93 C     6.0000    0    12.011    5.839783   12.511744  -16.327706
  94 H     1.0000    0     1.008    0.467310   -6.632013   -4.406029
  95 H     1.0000    0     1.008   -6.275592  -13.232108    0.377492
  96 H     1.0000    0     1.008   -1.675393   -8.545946    7.227862
  97 H     1.0000    0     1.008    3.360368   -3.338806    1.681006
  98 H     1.0000    0     1.008   24.333814   14.673270  -12.323736
  99 H     1.0000    0     1.008   33.185726   20.248434  -10.811482
 100 H     1.0000    0     1.008   29.497151   18.497339   -2.240610
 101 H     1.0000    0     1.008    8.041824    0.741056   -8.458169
 102 H     1.0000    0     1.008   11.603089    4.302283   -0.379514
 103 H     1.0000    0     1.008   20.755807   12.481018  -13.067740
 104 H     1.0000    0     1.008   14.784121    7.357327  -13.426032
 105 H     1.0000    0     1.008   17.128364    9.499615  -14.462112
 106 H     1.0000    0     1.008   12.085517   10.994899  -11.922074
 107 H     1.0000    0     1.008   12.790933   11.325715  -15.187181
 108 H     1.0000    0     1.008   14.479195   13.167064  -12.913103
 109 H     1.0000    0     1.008   12.522308   -0.699822    0.257589
 110 H     1.0000    0     1.008   14.883785   -2.703688    3.737859
 111 H     1.0000    0     1.008    8.132947   -2.818564    8.277511
 112 H     1.0000    0     1.008    5.777441   -0.770630    4.823299
 113 H     1.0000    0     1.008    2.803711    2.585221   -1.399645
 114 H     1.0000    0     1.008    0.351791    6.174699    0.290734
 115 H     1.0000    0     1.008    6.133125    7.523208    5.846378
 116 H     1.0000    0     1.008    8.604698    3.956784    4.140258
 117 H     1.0000    0     1.008    8.969906    8.140430   -7.327697
 118 H     1.0000    0     1.008    5.772206   10.676329   -9.583803
 119 H     1.0000    0     1.008    7.586457    6.788633  -16.496534
 120 H     1.0000    0     1.008   10.815394    4.308046  -14.268472
 121 H     1.0000    0     1.008   17.244885    4.196931  -10.276425
 122 H     1.0000    0     1.008   19.413761    1.193003  -13.020515
 123 H     1.0000    0     1.008   12.394581   -2.712437  -14.317378
 124 H     1.0000    0     1.008   10.199098    0.334311  -11.627277
 125 H     1.0000    0     1.008   12.369354   -3.398975   10.241862
 126 H     1.0000    0     1.008   15.129053   -3.433991    8.368199
 127 H     1.0000    0     1.008   11.101706   -7.657378    8.521153
 128 H     1.0000    0     1.008   14.161589   -7.789583    9.922347
 129 H     1.0000    0     1.008   13.836650   -7.694417    6.574622
 130 H     1.0000    0     1.008    1.594589    9.150262    6.392490
 131 H     1.0000    0     1.008   -0.536758    8.888913    3.839697
 132 H     1.0000    0     1.008    4.237314   12.248354    3.844667
 133 H     1.0000    0     1.008    1.078580   13.325479    4.279455
 134 H     1.0000    0     1.008    2.022555   12.014180    1.322978
 135 H     1.0000    0     1.008   16.222052   -4.481599  -15.965748
 136 H     1.0000    0     1.008   19.168248   -3.475717  -14.774143
 137 H     1.0000    0     1.008   16.332355   -0.935112  -19.205495
 138 H     1.0000    0     1.008   18.994677   -2.984388  -19.493810
 139 H     1.0000    0     1.008   19.322639    0.024737  -18.025361
 140 H     1.0000    0     1.008    3.284665   11.488968  -13.288271
 141 H     1.0000    0     1.008    3.345571    9.306674  -15.814853
 142 H     1.0000    0     1.008    7.016213   13.803108  -15.193965
 143 H     1.0000    0     1.008    4.440497   13.652572  -17.364353
 144 H     1.0000    0     1.008    7.081031   11.597419  -17.727918

--------------------------------
INTERNAL COORDINATES (ANGSTROEM)
--------------------------------
 C      0   0   0     0.000000000000     0.00000000     0.00000000
 C      1   0   0     1.385343966891     0.00000000     0.00000000
 C      2   1   0     1.470386756673   125.05080896     0.00000000
 C      3   2   1     1.484516365757   107.66105119   179.05563921
 C      4   3   2     1.406239456707   108.69452399     0.00000000
 C      5   4   3     1.486479043142   109.89911103     0.28489061
 C      4   3   2     1.403024215899   132.01646016   180.08812841
 C      7   4   3     1.391245245850   118.19000079   179.83725284
 C      8   7   4     1.406424390040   121.76850213     0.00000000
 C      9   8   7     1.391173734873   120.50339379     0.06819112
 F      9   8   7     1.329848046996   118.31528550   180.02988597
 F      8   7   4     1.331955910081   119.96984867   179.99728331
 O      6   5   4     1.219494021019   124.49081117   179.63491457
 C      3   2   1     1.385336657892   128.63683776   358.99517946
 C     14   3   2     1.430117844830   122.75956456   180.23013682
 C     14   3   2     1.429408312659   124.34454026     0.23650035
 N     15  14   3     1.162322457625   178.84531604   178.11416213
 N     16  14   3     1.162577359706   178.39274505   174.60848674
 C      1   2   3     1.418875037521   133.32110929   179.77048310
 S     19   1   2     1.787582791230   115.93188951   178.17072865
 C     20  19   1     1.713663061748    90.96260676   180.30756352
 C     21  20  19     1.398644396871   112.31174580   359.38561065
 C     22  21  20     1.394900982651   113.91921448     0.91690864
 C     21  20  19    13.270452280258   135.97960335   175.63114647
 C     24  21  20     1.381201020018   139.28565624   202.70786692
 C     25  24  21     1.461877024000   125.81494662   162.03678711
 C     26  25  24     1.484536881118   107.21248911   172.36866121
 C     27  26  25     1.409031794496   108.81534503     4.16775356
 C     25  24  21     1.481747296201   126.00201363   339.14166100
 C     27  26  25     1.400658206808   131.77872533   184.01916958
 C     30  27  26     1.392186660222   118.09605322   179.94426718
 C     31  30  27     1.406499802026   121.91177183     0.25324939
 C     28  27  26     1.390802789471   122.58865936   179.58563197
 F     32  31  30     1.331938442496   118.46207809   180.48662495
 F     31  30  27     1.330529598130   119.85079460   180.17602563
 O     29  25  24     1.218600547267   127.71948884     5.73649881
 C     26  25  24     1.386604099590   128.06071063   349.24637770
 C     37  26  25     1.429411312044   122.96375706   181.93335664
 C     37  26  25     1.430203165812   123.43314036   359.66479334
 N     38  37  26     1.162427890839   178.85142929   165.45598506
 N     39  37  26     1.162958403297   179.38433129   203.23048056
 C     21  20  19     1.446846076609   136.93242027   178.70371142
 C     42  21  20     1.423238601816   106.96111939   182.28481794
 C     22  21  20     1.524514860275   110.36483558   181.96316604
 C     42  21  20     1.405942784255   131.60645010     3.29548461
 C     45  42  21     1.386428800913   118.29341152   181.15020823
 C     46  45  42     1.425103352743   120.13768467   359.58167949
 C     43  42  21     1.387597689174   120.37095862   178.61861076
 C     46  45  42     1.552152889795   128.97593443   182.43787091
 C     49  46  45     1.530929812467   100.29558288   176.56173291
 C     50  49  46     1.389445001215   110.59162647     2.60597779
 C     50  49  46     1.415915735381   138.69641009   180.74161275
 C     52  50  49     1.426941533946   112.82274650   184.85166804
 S     51  50  49     1.746010880722   114.99271794   176.48985652
 N     52  50  49     1.383102526388   137.41146168   358.96486540
 C     55  52  50     1.387400313608   106.90721174   186.26650063
 C     53  52  50     1.409888420479   107.20903595   174.44592359
 C     56  55  52     1.391926473956   135.99377871   176.14876701
 C     58  56  55     1.411482685193   112.25893569   186.03344355
 S     57  53  52     1.738315999639   141.94609613   185.54426987
 C     44  22  21     1.546491105729   111.03075556   108.20809419
 C     55  52  50     1.458850342599   126.22118818    23.91005518
 C     62  55  52     1.524716852075   111.97469823    78.31196319
 C     44  22  21     1.529964491647   110.07597786   232.32401986
 C     49  46  45     1.540333430982   111.42517163   295.25947580
 C     49  46  45     1.545914514389   109.57812713    60.92512099
 C     64  44  22     1.398025120161   123.17467560   104.10826220
 C     67  64  44     1.398732155668   120.61312743   179.15012275
 C     68  67  64     1.399929666698   121.34146620     0.19138449
 C     69  68  67     1.403599849922   117.75585296     2.11182997
 C     70  69  68     1.391614517099   121.07063476   357.73641962
 C     61  44  22     1.400816262220   121.02938135   333.40382047
 C     72  61  44     1.395685415772   120.73388708   179.83254982
 C     73  72  61     1.400888216311   121.35523753   359.50288601
 C     74  73  72     1.402504084165   117.63796800     2.59223476
 C     75  74  73     1.395733714467   121.18132842   357.88969209
 C     66  49  46     1.403914525140   118.56888532    54.26446580
 C     77  66  49     1.393622709129   121.06975515   179.36533864
 C     78  77  66     1.403307393018   121.14897124     0.53253062
 C     79  78  77     1.400285067763   117.57834328   359.48645039
 C     80  79  78     1.397702517455   121.44876877   359.89553458
 C     65  49  46     1.401889366462   122.02045897   240.14081746
 C     82  65  49     1.396625236275   121.38399415   182.74583485
 C     83  82  65     1.400592321163   121.48576033   359.46088827
 C     84  83  82     1.402813041178   117.19966899   359.43160423
 C     85  84  83     1.394866394032   121.38255103     0.77778573
 C     69  68  67     1.509194108457   121.42901775   180.59739253
 C     87  69  68     1.531850173189   112.95360000   269.23862092
 C     74  73  72     1.510862364678   121.00187162   182.56605370
 C     89  74  73     1.534408608194   113.95741661   262.00037422
 C     84  83  82     1.511560793650   121.24741829   177.69890951
 C     91  84  83     1.536515701352   113.07494810   286.31904091
 C     79  78  77     1.510443187280   121.63984397   182.05383848
 C     93  79  78     1.533742034829   112.33232201   105.46032734
 H      1   2   3     1.089791539883   114.71312898   359.52206660
 H      7   4   3     1.086899842396   123.96574529   359.85522036
 H     10   9   8     1.091224571617   121.14405152   179.94100471
 H     23  22  21     1.086696968524   126.70270962   179.06543881
 H     24  21  20     1.089675969222   104.46311322     8.95296214
 H     30  27  26     1.087897088194   123.87887131     0.23615241
 H     33  28  27     1.091261933406   121.25475997   180.38454545
 H     45  42  21     1.089609022081   119.82994715     2.39068993
 H     48  43  42     1.091449364240   121.09533937   179.09050294
 H     58  56  55     1.090464681776   126.15938548     3.23301934
 H     62  55  52     1.098336593490   108.05783651   315.44792266
 H     62  55  52     1.100497482142   107.31790130   200.36207666
 H     63  62  55     1.099566532957   110.73282585   298.32372612
 H     63  62  55     1.100241038182   110.62403011   178.99147530
 H     63  62  55     1.101790830103   110.42508551    58.80200977
 H     67  64  44     1.090621242091   120.13154034   359.87677835
 H     68  67  64     1.093679953368   119.20619414   180.93741977
 H     70  69  68     1.093935534207   119.48511580   178.70502186
 H     71  70  69     1.091541218690   119.30662309   182.01558771
 H     72  61  44     1.091251919036   119.94966570     1.09686686
 H     73  72  61     1.093438464752   119.49316043   181.00867144
 H     75  74  73     1.093637577354   119.58168437   179.36971650
 H     76  75  74     1.090763735462   119.53265034   181.72067836
 H     77  66  49     1.092178554358   119.48931839   359.83381820
 H     78  77  66     1.093390763131   119.43039171   180.01618903
 H     80  79  78     1.093845522732   119.56655362   179.45361124
 H     81  80  79     1.089517258789   119.00974823   180.73368864
 H     82  65  49     1.088111952558   120.27061009     2.63959494
 H     83  82  65     1.093738850595   118.77931398   179.40056915
 H     85  84  83     1.093265558956   119.47244376   180.52839294
 H     86  85  84     1.089442178594   118.33678522   178.40827841
 H     87  69  68     1.102560553303   109.08817225   147.34440673
 H     87  69  68     1.102392162028   109.23068101    31.45684743
 H     88  87  69     1.101452261426   111.04264032   299.11976266
 H     88  87  69     1.100879906348   111.21561620   178.75732898
 H     88  87  69     1.101604577923   110.99964522    58.62945655
 H     89  74  73     1.103547344929   108.94657455   139.64133659
 H     89  74  73     1.102881496671   108.87020132    24.15196363
 H     90  89  74     1.101723105231   111.08681643   301.48127732
 H     90  89  74     1.100893561885   110.86421275   181.49833163
 H     90  89  74     1.101927319836   110.98834656    61.38435234
 H     91  84  83     1.101915360679   109.18131477   164.16242315
 H     91  84  83     1.103366023086   109.31382786    48.33560681
 H     92  91  84     1.101845561819   111.02221533   301.32581010
 H     92  91  84     1.101598184321   111.06788627   180.94043663
 H     92  91  84     1.101332971040   111.22109378    60.83128454
 H     93  79  78     1.102496867569   109.56805227   343.26199106
 H     93  79  78     1.104028477531   109.31542355   227.00767186
 H     94  93  79     1.102033095556   110.86720973   299.90518018
 H     94  93  79     1.101670801919   111.38668501   179.46080135
 H     94  93  79     1.102071527987   110.92198470    59.32863184

---------------------------
INTERNAL COORDINATES (A.U.)
---------------------------
 C      0   0   0     0.000000000000     0.00000000     0.00000000
 C      1   0   0     2.617920698703     0.00000000     0.00000000
 C      2   1   0     2.778628281057   125.05080896     0.00000000
 C      3   2   1     2.805329372605   107.66105119   179.05563921
 C      4   3   2     2.657407451891   108.69452399     0.00000000
 C      5   4   3     2.809038295351   109.89911103     0.28489061
 C      4   3   2     2.651331527309   132.01646016   180.08812841
 C      7   4   3     2.629072499776   118.19000079   179.83725284
 C      8   7   4     2.657756925243   121.76850213     0.00000000
 C      9   8   7     2.628937363614   120.50339379     0.06819112
 F      9   8   7     2.513048608553   118.31528550   180.02988597
 F      8   7   4     2.517031892511   119.96984867   179.99728331
 O      6   5   4     2.304509721679   124.49081117   179.63491457
 C      3   2   1     2.617906886698   128.63683776   358.99517946
 C     14   3   2     2.702531065962   122.75956456   180.23013682
 C     14   3   2     2.701190244477   124.34454026     0.23650035
 N     15  14   3     2.196471124218   178.84531604   178.11416213
 N     16  14   3     2.196952819341   178.39274505   174.60848674
 C      1   2   3     2.681285239172   133.32110929   179.77048310
 S     19   1   2     3.378041917134   115.93188951   178.17072865
 C     20  19   1     3.238353872521    90.96260676   180.30756352
 C     21  20  19     2.643054868831   112.31174580   359.38561065
 C     22  21  20     2.635980841148   113.91921448     0.91690864
 C     21  20  19    25.077520482958   135.97960335   175.63114647
 C     24  21  20     2.610091663728   139.28565624   202.70786692
 C     25  24  21     2.762547216832   125.81494662   162.03678711
 C     26  25  24     2.805368141019   107.21248911   172.36866121
 C     27  26  25     2.662684205585   108.81534503     4.16775356
 C     25  24  21     2.800096589499   126.00201363   339.14166100
 C     27  26  25     2.646860418097   131.77872533   184.01916958
 C     30  27  26     2.630851515118   118.09605322   179.94426718
 C     31  30  27     2.657899433244   121.91177183     0.25324939
 C     28  27  26     2.628236378394   122.58865936   179.58563197
 F     32  31  30     2.516998883560   118.46207809   180.48662495
 F     31  30  27     2.514336553542   119.85079460   180.17602563
 O     29  25  24     2.302821300982   127.71948884     5.73649881
 C     26  25  24     2.620302004398   128.06071063   349.24637770
 C     37  26  25     2.701195912493   122.96375706   181.93335664
 C     37  26  25     2.702692299253   123.43314036   359.66479334
 N     38  37  26     2.196670364117   178.85142929   165.45598506
 N     39  37  26     2.197672887374   179.38433129   203.23048056
 C     21  20  19     2.734142842730   136.93242027   178.70371142
 C     42  21  20     2.689531180658   106.96111939   182.28481794
 C     22  21  20     2.880915573013   110.36483558   181.96316604
 C     42  21  20     2.656846822206   131.60645010     3.29548461
 C     45  42  21     2.619970737906   118.29341152   181.15020823
 C     46  45  42     2.693055049218   120.13768467   359.58167949
 C     43  42  21     2.622179616600   120.37095862   178.61861076
 C     46  45  42     2.933143879688   128.97593443   182.43787091
 C     49  46  45     2.893038075818   100.29558288   176.56173291
 C     50  49  46     2.625670530441   110.59162647     2.60597779
 C     50  49  46     2.675692968580   138.69641009   180.74161275
 C     52  50  49     2.696528708275   112.82274650   184.85166804
 S     51  50  49     3.299482391411   114.99271794   176.48985652
 N     52  50  49     2.613684990007   137.41146168   358.96486540
 C     55  52  50     2.621806630836   106.90721174   186.26650063
 C     53  52  50     2.664302994092   107.20903595   174.44592359
 C     56  55  52     2.630359834332   135.99377871   176.14876701
 C     58  56  55     2.667315717787   112.25893569   186.03344355
 S     57  53  52     3.284941173531   141.94609613   185.54426987
 C     44  22  21     2.922444658374   111.03075556   108.20809419
 C     55  52  50     2.756827617889   126.22118818    23.91005518
 C     62  55  52     2.881297282195   111.97469823    78.31196319
 C     44  22  21     2.891213883836   110.07597786   232.32401986
 C     49  46  45     2.910808339479   111.42517163   295.25947580
 C     49  46  45     2.921355058650   109.57812713    60.92512099
 C     64  44  22     2.641884605446   123.17467560   104.10826220
 C     67  64  44     2.643220708922   120.61312743   179.15012275
 C     68  67  64     2.645483676810   121.34146620     0.19138449
 C     69  68  67     2.652419317965   117.75585296     2.11182997
 C     70  69  68     2.629770321306   121.07063476   357.73641962
 C     61  44  22     2.647159099539   121.02938135   333.40382047
 C     72  61  44     2.637463204918   120.73388708   179.83254982
 C     73  72  61     2.647295073066   121.35523753   359.50288601
 C     74  73  72     2.650348620778   117.63796800     2.59223476
 C     75  74  73     2.637554476223   121.18132842   357.88969209
 C     66  49  46     2.653013967949   118.56888532    54.26446580
 C     77  66  49     2.633565254267   121.06975515   179.36533864
 C     78  77  66     2.651866654512   121.14897124     0.53253062
 C     79  78  77     2.646155287491   117.57834328   359.48645039
 C     80  79  78     2.641274974682   121.44876877   359.89553458
 C     65  49  46     2.649186972670   122.02045897   240.14081746
 C     82  65  49     2.639239208283   121.38399415   182.74583485
 C     83  82  65     2.646735912271   121.48576033   359.46088827
 C     84  83  82     2.650932464920   117.19966899   359.43160423
 C     85  84  83     2.635915478131   121.38255103     0.77778573
 C     69  68  67     2.851963547910   121.42901775   180.59739253
 C     87  69  68     2.894777305528   112.95360000   269.23862092
 C     74  73  72     2.855116095290   121.00187162   182.56605370
 C     89  74  73     2.899612047018   113.95741661   262.00037422
 C     84  83  82     2.856435934771   121.24741829   177.69890951
 C     91  84  83     2.903593876024   113.07494810   286.31904091
 C     79  78  77     2.854323964806   121.63984397   182.05383848
 C     93  79  78     2.898352405909   112.33232201   105.46032734
 H      1   2   3     2.059407553443   114.71312898   359.52206660
 H      7   4   3     2.053943037130   123.96574529   359.85522036
 H     10   9   8     2.062115590961   121.14405152   179.94100471
 H     23  22  21     2.053559661073   126.70270962   179.06543881
 H     24  21  20     2.059189156545   104.46311322     8.95296214
 H     30  27  26     2.055827558576   123.87887131     0.23615241
 H     33  28  27     2.062186194510   121.25475997   180.38454545
 H     45  42  21     2.059062644783   119.82994715     2.39068993
 H     48  43  42     2.062540387456   121.09533937   179.09050294
 H     58  56  55     2.060679607270   126.15938548     3.23301934
 H     62  55  52     2.075555364561   108.05783651   315.44792266
 H     62  55  52     2.079638852318   107.31790130   200.36207666
 H     63  62  55     2.077879613315   110.73282585   298.32372612
 H     63  62  55     2.079154243465   110.62403011   178.99147530
 H     63  62  55     2.082082925761   110.42508551    58.80200977
 H     67  64  44     2.060975463389   120.13154034   359.87677835
 H     68  67  64     2.066755590026   119.20619414   180.93741977
 H     70  69  68     2.067238567815   119.48511580   178.70502186
 H     71  70  69     2.062713967211   119.30662309   182.01558771
 H     72  61  44     2.062167270094   119.94966570     1.09686686
 H     73  72  61     2.066299242677   119.49316043   181.00867144
 H     75  74  73     2.066675510964   119.58168437   179.36971650
 H     76  75  74     2.061244736837   119.53265034   181.72067836
 H     77  66  49     2.063918357079   119.48931839   359.83381820
 H     78  77  66     2.066209099677   119.43039171   180.01618903
 H     80  79  78     2.067068470779   119.56655362   179.45361124
 H     81  80  79     2.058889237293   119.00974823   180.73368864
 H     82  65  49     2.056233593381   120.27061009     2.63959494
 H     83  82  65     2.066866889654   118.77931398   179.40056915
 H     85  84  83     2.065972498076   119.47244376   180.52839294
 H     86  85  84     2.058747356285   118.33678522   178.40827841
 H     87  69  68     2.083537491808   109.08817225   147.34440673
 H     87  69  68     2.083219278414   109.23068101    31.45684743
 H     88  87  69     2.081443123683   111.04264032   299.11976266
 H     88  87  69     2.080361529334   111.21561620   178.75732898
 H     88  87  69     2.081730960148   110.99964522    58.62945655
 H     89  74  73     2.085402257732   108.94657455   139.64133659
 H     89  74  73     2.084143986878   108.87020132    24.15196363
 H     90  89  74     2.081954944300   111.08681643   301.48127732
 H     90  89  74     2.080387334560   110.86421275   181.49833163
 H     90  89  74     2.082340853975   110.98834656    61.38435234
 H     91  84  83     2.082318254444   109.18131477   164.16242315
 H     91  84  83     2.085059609106   109.31382786    48.33560681
 H     92  91  84     2.082186353714   111.02221533   301.32581010
 H     92  91  84     2.081718877992   111.06788627   180.94043663
 H     92  91  84     2.081217697524   111.22109378    60.83128454
 H     93  79  78     2.083417143212   109.56805227   343.26199106
 H     93  79  78     2.086311466584   109.31542355   227.00767186
 H     94  93  79     2.082540741118   110.86720973   299.90518018
 H     94  93  79     2.081856105364   111.38668501   179.46080135
 H     94  93  79     2.082613367888   110.92198470    59.32863184

---------------------
BASIS SET INFORMATION
---------------------
There are 6 groups of distinct atoms

 Group   1 Type C   : 11s6p2d1f contracted to 5s3p2d1f pattern {62111/411/11/1}
 Group   2 Type F   : 11s6p2d1f contracted to 5s3p2d1f pattern {62111/411/11/1}
 Group   3 Type O   : 11s6p2d1f contracted to 5s3p2d1f pattern {62111/411/11/1}
 Group   4 Type N   : 11s6p2d1f contracted to 5s3p2d1f pattern {62111/411/11/1}
 Group   5 Type S   : 14s9p3d1f contracted to 5s5p2d1f pattern {73211/51111/21/1}
 Group   6 Type H   : 5s1p contracted to 3s1p pattern {311/1}

Atom   0C    basis set group =>   1
Atom   1C    basis set group =>   1
Atom   2C    basis set group =>   1
Atom   3C    basis set group =>   1
Atom   4C    basis set group =>   1
Atom   5C    basis set group =>   1
Atom   6C    basis set group =>   1
Atom   7C    basis set group =>   1
Atom   8C    basis set group =>   1
Atom   9C    basis set group =>   1
Atom  10F    basis set group =>   2
Atom  11F    basis set group =>   2
Atom  12O    basis set group =>   3
Atom  13C    basis set group =>   1
Atom  14C    basis set group =>   1
Atom  15C    basis set group =>   1
Atom  16N    basis set group =>   4
Atom  17N    basis set group =>   4
Atom  18C    basis set group =>   1
Atom  19S    basis set group =>   5
Atom  20C    basis set group =>   1
Atom  21C    basis set group =>   1
Atom  22C    basis set group =>   1
Atom  23C    basis set group =>   1
Atom  24C    basis set group =>   1
Atom  25C    basis set group =>   1
Atom  26C    basis set group =>   1
Atom  27C    basis set group =>   1
Atom  28C    basis set group =>   1
Atom  29C    basis set group =>   1
Atom  30C    basis set group =>   1
Atom  31C    basis set group =>   1
Atom  32C    basis set group =>   1
Atom  33F    basis set group =>   2
Atom  34F    basis set group =>   2
Atom  35O    basis set group =>   3
Atom  36C    basis set group =>   1
Atom  37C    basis set group =>   1
Atom  38C    basis set group =>   1
Atom  39N    basis set group =>   4
Atom  40N    basis set group =>   4
Atom  41C    basis set group =>   1
Atom  42C    basis set group =>   1
Atom  43C    basis set group =>   1
Atom  44C    basis set group =>   1
Atom  45C    basis set group =>   1
Atom  46C    basis set group =>   1
Atom  47C    basis set group =>   1
Atom  48C    basis set group =>   1
Atom  49C    basis set group =>   1
Atom  50C    basis set group =>   1
Atom  51C    basis set group =>   1
Atom  52C    basis set group =>   1
Atom  53S    basis set group =>   5
Atom  54N    basis set group =>   4
Atom  55C    basis set group =>   1
Atom  56C    basis set group =>   1
Atom  57C    basis set group =>   1
Atom  58C    basis set group =>   1
Atom  59S    basis set group =>   5
Atom  60C    basis set group =>   1
Atom  61C    basis set group =>   1
Atom  62C    basis set group =>   1
Atom  63C    basis set group =>   1
Atom  64C    basis set group =>   1
Atom  65C    basis set group =>   1
Atom  66C    basis set group =>   1
Atom  67C    basis set group =>   1
Atom  68C    basis set group =>   1
Atom  69C    basis set group =>   1
Atom  70C    basis set group =>   1
Atom  71C    basis set group =>   1
Atom  72C    basis set group =>   1
Atom  73C    basis set group =>   1
Atom  74C    basis set group =>   1
Atom  75C    basis set group =>   1
Atom  76C    basis set group =>   1
Atom  77C    basis set group =>   1
Atom  78C    basis set group =>   1
Atom  79C    basis set group =>   1
Atom  80C    basis set group =>   1
Atom  81C    basis set group =>   1
Atom  82C    basis set group =>   1
Atom  83C    basis set group =>   1
Atom  84C    basis set group =>   1
Atom  85C    basis set group =>   1
Atom  86C    basis set group =>   1
Atom  87C    basis set group =>   1
Atom  88C    basis set group =>   1
Atom  89C    basis set group =>   1
Atom  90C    basis set group =>   1
Atom  91C    basis set group =>   1
Atom  92C    basis set group =>   1
Atom  93C    basis set group =>   1
Atom  94H    basis set group =>   6
Atom  95H    basis set group =>   6
Atom  96H    basis set group =>   6
Atom  97H    basis set group =>   6
Atom  98H    basis set group =>   6
Atom  99H    basis set group =>   6
Atom 100H    basis set group =>   6
Atom 101H    basis set group =>   6
Atom 102H    basis set group =>   6
Atom 103H    basis set group =>   6
Atom 104H    basis set group =>   6
Atom 105H    basis set group =>   6
Atom 106H    basis set group =>   6
Atom 107H    basis set group =>   6
Atom 108H    basis set group =>   6
Atom 109H    basis set group =>   6
Atom 110H    basis set group =>   6
Atom 111H    basis set group =>   6
Atom 112H    basis set group =>   6
Atom 113H    basis set group =>   6
Atom 114H    basis set group =>   6
Atom 115H    basis set group =>   6
Atom 116H    basis set group =>   6
Atom 117H    basis set group =>   6
Atom 118H    basis set group =>   6
Atom 119H    basis set group =>   6
Atom 120H    basis set group =>   6
Atom 121H    basis set group =>   6
Atom 122H    basis set group =>   6
Atom 123H    basis set group =>   6
Atom 124H    basis set group =>   6
Atom 125H    basis set group =>   6
Atom 126H    basis set group =>   6
Atom 127H    basis set group =>   6
Atom 128H    basis set group =>   6
Atom 129H    basis set group =>   6
Atom 130H    basis set group =>   6
Atom 131H    basis set group =>   6
Atom 132H    basis set group =>   6
Atom 133H    basis set group =>   6
Atom 134H    basis set group =>   6
Atom 135H    basis set group =>   6
Atom 136H    basis set group =>   6
Atom 137H    basis set group =>   6
Atom 138H    basis set group =>   6
Atom 139H    basis set group =>   6
Atom 140H    basis set group =>   6
Atom 141H    basis set group =>   6
Atom 142H    basis set group =>   6
Atom 143H    basis set group =>   6
Atom 144H    basis set group =>   6
---------------------------------
AUXILIARY/J BASIS SET INFORMATION
---------------------------------
There are 6 groups of distinct atoms

 Group   1 Type C   : 12s5p4d2f1g contracted to 6s4p3d1f1g pattern {711111/2111/211/2/1}
 Group   2 Type F   : 12s5p4d2f1g contracted to 6s4p3d1f1g pattern {711111/2111/211/2/1}
 Group   3 Type O   : 12s5p4d2f1g contracted to 6s4p3d1f1g pattern {711111/2111/211/2/1}
 Group   4 Type N   : 12s5p4d2f1g contracted to 6s4p3d1f1g pattern {711111/2111/211/2/1}
 Group   5 Type S   : 14s5p5d2f1g contracted to 8s4p3d1f1g pattern {71111111/2111/311/2/1}
 Group   6 Type H   : 5s2p1d contracted to 3s1p1d pattern {311/2/1}

Atom   0C    basis set group =>   1
Atom   1C    basis set group =>   1
Atom   2C    basis set group =>   1
Atom   3C    basis set group =>   1
Atom   4C    basis set group =>   1
Atom   5C    basis set group =>   1
Atom   6C    basis set group =>   1
Atom   7C    basis set group =>   1
Atom   8C    basis set group =>   1
Atom   9C    basis set group =>   1
Atom  10F    basis set group =>   2
Atom  11F    basis set group =>   2
Atom  12O    basis set group =>   3
Atom  13C    basis set group =>   1
Atom  14C    basis set group =>   1
Atom  15C    basis set group =>   1
Atom  16N    basis set group =>   4
Atom  17N    basis set group =>   4
Atom  18C    basis set group =>   1
Atom  19S    basis set group =>   5
Atom  20C    basis set group =>   1
Atom  21C    basis set group =>   1
Atom  22C    basis set group =>   1
Atom  23C    basis set group =>   1
Atom  24C    basis set group =>   1
Atom  25C    basis set group =>   1
Atom  26C    basis set group =>   1
Atom  27C    basis set group =>   1
Atom  28C    basis set group =>   1
Atom  29C    basis set group =>   1
Atom  30C    basis set group =>   1
Atom  31C    basis set group =>   1
Atom  32C    basis set group =>   1
Atom  33F    basis set group =>   2
Atom  34F    basis set group =>   2
Atom  35O    basis set group =>   3
Atom  36C    basis set group =>   1
Atom  37C    basis set group =>   1
Atom  38C    basis set group =>   1
Atom  39N    basis set group =>   4
Atom  40N    basis set group =>   4
Atom  41C    basis set group =>   1
Atom  42C    basis set group =>   1
Atom  43C    basis set group =>   1
Atom  44C    basis set group =>   1
Atom  45C    basis set group =>   1
Atom  46C    basis set group =>   1
Atom  47C    basis set group =>   1
Atom  48C    basis set group =>   1
Atom  49C    basis set group =>   1
Atom  50C    basis set group =>   1
Atom  51C    basis set group =>   1
Atom  52C    basis set group =>   1
Atom  53S    basis set group =>   5
Atom  54N    basis set group =>   4
Atom  55C    basis set group =>   1
Atom  56C    basis set group =>   1
Atom  57C    basis set group =>   1
Atom  58C    basis set group =>   1
Atom  59S    basis set group =>   5
Atom  60C    basis set group =>   1
Atom  61C    basis set group =>   1
Atom  62C    basis set group =>   1
Atom  63C    basis set group =>   1
Atom  64C    basis set group =>   1
Atom  65C    basis set group =>   1
Atom  66C    basis set group =>   1
Atom  67C    basis set group =>   1
Atom  68C    basis set group =>   1
Atom  69C    basis set group =>   1
Atom  70C    basis set group =>   1
Atom  71C    basis set group =>   1
Atom  72C    basis set group =>   1
Atom  73C    basis set group =>   1
Atom  74C    basis set group =>   1
Atom  75C    basis set group =>   1
Atom  76C    basis set group =>   1
Atom  77C    basis set group =>   1
Atom  78C    basis set group =>   1
Atom  79C    basis set group =>   1
Atom  80C    basis set group =>   1
Atom  81C    basis set group =>   1
Atom  82C    basis set group =>   1
Atom  83C    basis set group =>   1
Atom  84C    basis set group =>   1
Atom  85C    basis set group =>   1
Atom  86C    basis set group =>   1
Atom  87C    basis set group =>   1
Atom  88C    basis set group =>   1
Atom  89C    basis set group =>   1
Atom  90C    basis set group =>   1
Atom  91C    basis set group =>   1
Atom  92C    basis set group =>   1
Atom  93C    basis set group =>   1
Atom  94H    basis set group =>   6
Atom  95H    basis set group =>   6
Atom  96H    basis set group =>   6
Atom  97H    basis set group =>   6
Atom  98H    basis set group =>   6
Atom  99H    basis set group =>   6
Atom 100H    basis set group =>   6
Atom 101H    basis set group =>   6
Atom 102H    basis set group =>   6
Atom 103H    basis set group =>   6
Atom 104H    basis set group =>   6
Atom 105H    basis set group =>   6
Atom 106H    basis set group =>   6
Atom 107H    basis set group =>   6
Atom 108H    basis set group =>   6
Atom 109H    basis set group =>   6
Atom 110H    basis set group =>   6
Atom 111H    basis set group =>   6
Atom 112H    basis set group =>   6
Atom 113H    basis set group =>   6
Atom 114H    basis set group =>   6
Atom 115H    basis set group =>   6
Atom 116H    basis set group =>   6
Atom 117H    basis set group =>   6
Atom 118H    basis set group =>   6
Atom 119H    basis set group =>   6
Atom 120H    basis set group =>   6
Atom 121H    basis set group =>   6
Atom 122H    basis set group =>   6
Atom 123H    basis set group =>   6
Atom 124H    basis set group =>   6
Atom 125H    basis set group =>   6
Atom 126H    basis set group =>   6
Atom 127H    basis set group =>   6
Atom 128H    basis set group =>   6
Atom 129H    basis set group =>   6
Atom 130H    basis set group =>   6
Atom 131H    basis set group =>   6
Atom 132H    basis set group =>   6
Atom 133H    basis set group =>   6
Atom 134H    basis set group =>   6
Atom 135H    basis set group =>   6
Atom 136H    basis set group =>   6
Atom 137H    basis set group =>   6
Atom 138H    basis set group =>   6
Atom 139H    basis set group =>   6
Atom 140H    basis set group =>   6
Atom 141H    basis set group =>   6
Atom 142H    basis set group =>   6
Atom 143H    basis set group =>   6
Atom 144H    basis set group =>   6


           ************************************************************
           *        Program running with 6 parallel MPI-processes     *
           *              working on a common directory               *
           ************************************************************
------------------------------------------------------------------------------
                           ORCA GTO INTEGRAL CALCULATION
                           -- RI-GTO INTEGRALS CHOSEN --
------------------------------------------------------------------------------

                         BASIS SET STATISTICS AND STARTUP INFO

Gaussian basis set:
 # of primitive gaussian shells          ... 2207
 # of primitive gaussian functions       ... 4783
 # of contracted shells                  ... 1244
 # of contracted basis functions         ... 3238
 Highest angular momentum                ...    3
 Maximum contraction depth               ...    7
Auxiliary gaussian basis set:
 # of primitive gaussian shells          ... 2673
 # of primitive gaussian functions       ... 7417
 # of contracted shells                  ... 1671
 # of contracted aux-basis functions     ... 5173
 Highest angular momentum                ...    4
 Maximum contraction depth               ...    7
Ratio of auxiliary to basis functions    ...  1.60
Integral package used                  ... LIBINT
 One Electron integrals                  ... done
 Ordering auxiliary basis shells         ... done
 Integral threshhold             Thresh  ...  2.500e-11
 Primitive cut-off               TCut    ...  2.500e-12
 Pre-screening matrix                    ... done
 Shell pair data                         ... 
 Ordering of the shell pairs             ... done (   0.050 sec) 223486 of 774390 pairs
 Determination of significant pairs      ... done (   0.001 sec)
 Creation of shell pair data             ... done (   0.022 sec)
 Storage of shell pair data              ... done (   0.229 sec)
 Shell pair data done in (   0.303 sec)
 Computing two index integrals           ... done
 Cholesky decomposition of the V-matrix  ... done


Timings:
 Total evaluation time                   ...  11.990 sec (  0.200 min)
 One electron matrix time                ...   4.481 sec (  0.075 min) = 37.4%
 Schwartz matrix evaluation time         ...   5.438 sec (  0.091 min) = 45.4%
 Two index repulsion integral time       ...   0.628 sec (  0.010 min) =  5.2%
 Cholesky decomposition of V             ...   1.123 sec (  0.019 min) =  9.4%
 Three index repulsion integral time     ...   0.000 sec (  0.000 min) =  0.0%



           ************************************************************
           *        Program running with 6 parallel MPI-processes     *
           *              working on a common directory               *
           ************************************************************
-------------------------------------------------------------------------------
                                 ORCA SCF
-------------------------------------------------------------------------------

------------
SCF SETTINGS
------------
Hamiltonian:
 Density Functional     Method          .... DFT(GTOs)
 Exchange Functional    Exchange        .... B88
   X-Alpha parameter    XAlpha          ....  0.666667
   Becke's b parameter  XBeta           ....  0.004200
 Correlation Functional Correlation     .... LYP
 LDA part of GGA corr.  LDAOpt          .... VWN-5
 Gradients option       PostSCFGGA      .... off
 Hybrid DFT is turned on
   Fraction HF Exchange ScalHFX         ....  0.200000
   Scaling of DF-GGA-X  ScalDFX         ....  0.720000
   Scaling of DF-GGA-C  ScalDFC         ....  0.810000
   Scaling of DF-LDA-C  ScalLDAC        ....  1.000000
   Perturbative correction              ....  0.000000
   Density functional embedding theory  .... OFF
   NL short-range parameter             ....  4.800000
 RI-approximation to the Coulomb term is turned on
   Number of auxiliary basis functions  .... 5173
   RIJ-COSX (HFX calculated with COS-X)).... on


General Settings:
 Integral files         IntName         .... TPIC-4F
 Hartree-Fock type      HFTyp           .... RHF
 Total Charge           Charge          ....    0
 Multiplicity           Mult            ....    1
 Number of Electrons    NEL             ....  666
 Basis Dimension        Dim             .... 3238
 Nuclear Repulsion      ENuc            ....  15930.9329663637 Eh

Convergence Acceleration:
 DIIS                   CNVDIIS         .... on
   Start iteration      DIISMaxIt       ....    12
   Startup error        DIISStart       ....  0.200000
   # of expansion vecs  DIISMaxEq       ....     5
   Bias factor          DIISBfac        ....   1.050
   Max. coefficient     DIISMaxC        ....  10.000
 Newton-Raphson         CNVNR           .... off
 SOSCF                  CNVSOSCF        .... on
   Start iteration      SOSCFMaxIt      ....   150
   Startup grad/error   SOSCFStart      ....  0.003300
 Level Shifting         CNVShift        .... on
   Level shift para.    LevelShift      ....    0.2500
   Turn off err/grad.   ShiftErr        ....    0.0010
 Zerner damping         CNVZerner       .... off
 Static damping         CNVDamp         .... on
   Fraction old density DampFac         ....    0.7000
   Max. Damping (<1)    DampMax         ....    0.9800
   Min. Damping (>=0)   DampMin         ....    0.0000
   Turn off err/grad.   DampErr         ....    0.1000
 Fernandez-Rico         CNVRico         .... off

SCF Procedure:
 Maximum # iterations   MaxIter         ....   125
 SCF integral mode      SCFMode         .... Direct
   Integral package                     .... LIBINT
 Reset frequency        DirectResetFreq ....    20
 Integral Threshold     Thresh          ....  2.500e-11 Eh
 Primitive CutOff       TCut            ....  2.500e-12 Eh

Convergence Tolerance:
 Convergence Check Mode ConvCheckMode   .... Total+1el-Energy
 Convergence forced     ConvForced      .... 1
 Energy Change          TolE            ....  1.000e-08 Eh
 1-El. energy change                    ....  1.000e-05 Eh
 Orbital Gradient       TolG            ....  1.000e-05
 Orbital Rotation angle TolX            ....  1.000e-05
 DIIS Error             TolErr          ....  5.000e-07


Diagonalization of the overlap matrix:
Smallest eigenvalue                        ... 1.956e-06
Time for diagonalization                   ...    2.022 sec
Threshold for overlap eigenvalues          ... 1.000e-08
Number of eigenvalues below threshold      ... 0
Time for construction of square roots      ...    1.388 sec
Total time needed                          ...    3.431 sec

-------------------
DFT GRID GENERATION
-------------------

General Integration Accuracy     IntAcc      ...  4.670
Radial Grid Type                 RadialGrid  ... Gauss-Chebyshev
Angular Grid (max. acc.)         AngularGrid ... Lebedev-302
Angular grid pruning method      GridPruning ... 3 (G Style)
Weight generation scheme         WeightScheme... Becke
Basis function cutoff            BFCut       ...    1.0000e-11
Integration weight cutoff        WCut        ...    1.0000e-14
Grids for H and He will be reduced by one unit

# of grid points (after initial pruning)     ... 759164 (   0.0 sec)
# of grid points (after weights+screening)   ... 638294 (  11.9 sec)
nearest neighbour list constructed           ...    0.0 sec
Grid point re-assignment to atoms done       ...    0.1 sec
Grid point division into batches done        ...    2.1 sec
Reduced shell lists constructed in    4.9 sec

Total number of grid points                  ...   638294
Total number of batches                      ...    10052
Average number of points per batch           ...       63
Average number of grid points per atom       ...     4402
Average number of shells per batch           ...   155.43 (12.49%)
Average number of basis functions per batch  ...   395.13 (12.20%)
Average number of large shells per batch     ...    91.59 (58.93%)
Average number of large basis fcns per batch ...   241.37 (61.09%)
Maximum spatial batch extension              ...  19.14, 18.71, 17.14 au
Average spatial batch extension              ...   0.38,  0.39,  0.34 au

Time for grid setup =   18.178 sec

------------------------------
INITIAL GUESS: MODEL POTENTIAL
------------------------------
Loading Hartree-Fock densities                     ... done
Calculating cut-offs                               ... done
Setting up the integral package                    ... done
Initializing the effective Hamiltonian             ... done
Starting the Coulomb interaction                   ... done (   8.9 sec)
Reading the grid                                   ... done
Mapping shells                                     ... done
Starting the XC term evaluation                    ... done (   7.0 sec)
  promolecular density results
     # of electrons  =    665.975786393
     EX              =   -590.976807329
     EC              =    -23.195222187
     EX+EC           =   -614.172029517
Transforming the Hamiltonian                       ... done (   1.1 sec)
Diagonalizing the Hamiltonian                      ... done (   2.1 sec)
Back transforming the eigenvectors                 ... done (   0.5 sec)
Now organizing SCF variables                       ... done
                      ------------------
                      INITIAL GUESS DONE (  38.4 sec)
                      ------------------
--------------------
COSX GRID GENERATION
--------------------

General Integration Accuracy     IntAcc      ...  3.340
Radial Grid Type                 RadialGrid  ... Gauss-Chebyshev
Angular Grid (max. acc.)         AngularGrid ... Lebedev-50
Angular grid pruning method      GridPruning ... 3 (G Style)
Weight generation scheme         WeightScheme... Becke
Basis function cutoff            BFCut       ...    1.0000e-11
Integration weight cutoff        WCut        ...    1.0000e-14
Grids for H and He will be reduced by one unit

# of grid points (after initial pruning)     ...  71148 (   0.0 sec)
# of grid points (after weights+screening)   ...  62709 (   1.1 sec)
nearest neighbour list constructed           ...    0.0 sec
Grid point re-assignment to atoms done       ...    0.0 sec
Grid point division into batches done        ...    0.0 sec
Reduced shell lists constructed in    0.4 sec

Total number of grid points                  ...    62709
Total number of batches                      ...     1062
Average number of points per batch           ...       59
Average number of grid points per atom       ...      432
Average number of shells per batch           ...   191.81 (15.42%)
Average number of basis functions per batch  ...   489.48 (15.12%)
Average number of large shells per batch     ...   112.68 (58.75%)
Average number of large basis fcns per batch ...   300.80 (61.45%)
Maximum spatial batch extension              ...  21.47, 21.47, 15.95 au
Average spatial batch extension              ...   0.94,  0.93,  0.64 au

Overlap Fitting                  UseSFitting ... on
Constructing numerical overlap ... done (      0.6 sec)
Inverting numerical overlap    ... done (      0.5 sec)
Obtaining analytic overlap     ... done (      0.0 sec)
Final contraction and storage  ... done (      1.0 sec)


General Integration Accuracy     IntAcc      ...  3.670
Radial Grid Type                 RadialGrid  ... Gauss-Chebyshev
Angular Grid (max. acc.)         AngularGrid ... Lebedev-50
Angular grid pruning method      GridPruning ... 3 (G Style)
Weight generation scheme         WeightScheme... Becke
Basis function cutoff            BFCut       ...    1.0000e-11
Integration weight cutoff        WCut        ...    1.0000e-14
Grids for H and He will be reduced by one unit

# of grid points (after initial pruning)     ...  89140 (   0.0 sec)
# of grid points (after weights+screening)   ...  78149 (   1.4 sec)
nearest neighbour list constructed           ...    0.0 sec
Grid point re-assignment to atoms done       ...    0.0 sec
Grid point division into batches done        ...    0.0 sec
Reduced shell lists constructed in    0.5 sec

Total number of grid points                  ...    78149
Total number of batches                      ...     1287
Average number of points per batch           ...       60
Average number of grid points per atom       ...      539
Average number of shells per batch           ...   189.65 (15.25%)
Average number of basis functions per batch  ...   484.73 (14.97%)
Average number of large shells per batch     ...   110.57 (58.30%)
Average number of large basis fcns per batch ...   294.75 (60.81%)
Maximum spatial batch extension              ...  27.71, 27.71, 16.84 au
Average spatial batch extension              ...   0.87,  0.88,  0.61 au

Overlap Fitting                  UseSFitting ... on
Constructing numerical overlap ... done (      0.7 sec)
Inverting numerical overlap    ... done (      0.5 sec)
Obtaining analytic overlap     ... done (      0.0 sec)
Final contraction and storage  ... done (      1.0 sec)


General Integration Accuracy     IntAcc      ...  4.010
Radial Grid Type                 RadialGrid  ... Gauss-Chebyshev
Angular Grid (max. acc.)         AngularGrid ... Lebedev-110
Angular grid pruning method      GridPruning ... 3 (G Style)
Weight generation scheme         WeightScheme... Becke
Basis function cutoff            BFCut       ...    1.0000e-11
Integration weight cutoff        WCut        ...    1.0000e-14
Grids for H and He will be reduced by one unit

# of grid points (after initial pruning)     ... 172372 (   0.0 sec)
# of grid points (after weights+screening)   ... 149750 (   2.8 sec)
nearest neighbour list constructed           ...    0.0 sec
Grid point re-assignment to atoms done       ...    0.0 sec
Grid point division into batches done        ...    0.1 sec
Reduced shell lists constructed in    0.9 sec

Total number of grid points                  ...   149750
Total number of batches                      ...     2411
Average number of points per batch           ...       62
Average number of grid points per atom       ...     1033
Average number of shells per batch           ...   171.79 (13.81%)
Average number of basis functions per batch  ...   440.40 (13.60%)
Average number of large shells per batch     ...   101.56 (59.12%)
Average number of large basis fcns per batch ...   270.18 (61.35%)
Maximum spatial batch extension              ...  25.81, 25.81, 17.89 au
Average spatial batch extension              ...   0.67,  0.66,  0.51 au

Overlap Fitting                  UseSFitting ... on
Constructing numerical overlap ... done (      1.2 sec)
Inverting numerical overlap    ... done (      0.5 sec)
Obtaining analytic overlap     ... done (      0.0 sec)
Final contraction and storage  ... done (      1.0 sec)

Time for X-Grid setup             =   15.310 sec
--------------
SCF ITERATIONS
--------------
ITER       Energy         Delta-E        Max-DP      RMS-DP      [F,P]     Damp
               ***  Starting incremental Fock matrix formation  ***
  0  -5094.0910047346   0.000000000000 0.34932257  0.00076967  0.3017012 0.7000
  1  -5095.1347763526  -1.043771617973 0.27769136  0.00061998  0.1030502 0.7000
                               ***Turning on DIIS***
  2  -5095.5236430674  -0.388866714791 0.34305178  0.00096741  0.0435377 0.0000
  3  -5096.1567724935  -0.633129426100 0.23937690  0.00053379  0.0561245 0.0000
  4  -5096.2941234114  -0.137350917941 0.05762106  0.00016037  0.0365669 0.0000
  5  -5096.3082303529  -0.014106941464 0.01927093  0.00007591  0.0136464 0.0000
                      *** Initiating the SOSCF procedure ***
                           *** Shutting down DIIS ***
                      *** Re-Reading the Fockian *** 
                      *** Removing any level shift *** 
ITER      Energy       Delta-E        Grad      Rot      Max-DP    RMS-DP
  6  -5096.30967997  -0.0014496207  0.000897  0.000897  0.016206  0.000028
               *** Restarting incremental Fock matrix formation ***
  7  -5096.30978641  -0.0001064345  0.000568  0.005467  0.023948  0.000075
  8  -5096.30977859   0.0000078229  0.000540  0.003515  0.009068  0.000029
  9  -5096.30982191  -0.0000433295  0.000240  0.002645  0.009983  0.000031
 10  -5096.30982106   0.0000008505  0.000144  0.000415  0.001098  0.000005
 11  -5096.30982643  -0.0000053611  0.000065  0.000772  0.003602  0.000011
 12  -5096.30982560   0.0000008237  0.000076  0.000142  0.001068  0.000003
 13  -5096.30982717  -0.0000015671  0.000031  0.000414  0.001377  0.000004
 14  -5096.30982701   0.0000001571  0.000073  0.000180  0.000837  0.000002
 15  -5096.30982740  -0.0000003854  0.000016  0.000146  0.001926  0.000002
 16  -5096.30982717   0.0000002224  0.000029  0.000077  0.000810  0.000001
 17  -5096.30982717   0.0000000088  0.000003  0.000036  0.001947  0.000003
[...]
   316a -> 334a  :     0.014564 (c= -0.12068235)
   320a -> 333a  :     0.022395 (c= -0.14965005)
   320a -> 334a  :     0.195547 (c= -0.44220683)
   322a -> 334a  :     0.024181 (c= -0.15550263)
   323a -> 333a  :     0.012583 (c= -0.11217492)
   328a -> 335a  :     0.010270 (c=  0.10134116)
   328a -> 336a  :     0.014329 (c= -0.11970192)
   331a -> 337a  :     0.010420 (c= -0.10207824)
   332a -> 337a  :     0.010845 (c=  0.10413908)
   332a -> 338a  :     0.024717 (c= -0.15721659)

STATE 45:  E=   0.138574 au      3.771 eV    30413.5 cm**-1
   314a -> 333a  :     0.034794 (c= -0.18653171)
   315a -> 333a  :     0.242694 (c=  0.49263967)
   319a -> 334a  :     0.012639 (c= -0.11242386)
   320a -> 334a  :     0.175455 (c=  0.41887380)
   323a -> 334a  :     0.073808 (c= -0.27167644)
   327a -> 336a  :     0.079610 (c= -0.28215323)
   328a -> 335a  :     0.011287 (c= -0.10623984)
   328a -> 336a  :     0.052337 (c=  0.22877258)
   332a -> 338a  :     0.062787 (c=  0.25057373)
   332a -> 339a  :     0.099062 (c= -0.31474067)

STATE 46:  E=   0.140027 au      3.810 eV    30732.4 cm**-1
   312a -> 333a  :     0.012232 (c=  0.11059921)
   313a -> 333a  :     0.033943 (c=  0.18423537)
   314a -> 333a  :     0.044907 (c= -0.21191269)
   323a -> 335a  :     0.010843 (c= -0.10412871)
   324a -> 335a  :     0.215740 (c=  0.46447789)
   324a -> 336a  :     0.025082 (c=  0.15837155)
   325a -> 335a  :     0.078517 (c=  0.28020920)
   326a -> 335a  :     0.012924 (c= -0.11368213)
   327a -> 336a  :     0.055351 (c=  0.23526700)
   328a -> 335a  :     0.015070 (c=  0.12275846)
   328a -> 336a  :     0.340621 (c= -0.58362738)
   332a -> 338a  :     0.027773 (c=  0.16665206)
   332a -> 339a  :     0.062561 (c= -0.25012286)

STATE 47:  E=   0.140302 au      3.818 eV    30792.6 cm**-1
   324a -> 335a  :     0.328191 (c= -0.57287958)
   324a -> 336a  :     0.013873 (c= -0.11778515)
   325a -> 335a  :     0.034142 (c= -0.18477549)
   325a -> 336a  :     0.013749 (c= -0.11725440)
   326a -> 335a  :     0.270878 (c=  0.52045949)
   327a -> 335a  :     0.033652 (c=  0.18344401)
   328a -> 335a  :     0.011446 (c=  0.10698739)
   328a -> 336a  :     0.232510 (c= -0.48219276)
   332a -> 339a  :     0.012304 (c= -0.11092565)

STATE 48:  E=   0.140565 au      3.825 eV    30850.4 cm**-1
   314a -> 333a  :     0.020804 (c=  0.14423471)
   319a -> 333a  :     0.064347 (c=  0.25366736)
   319a -> 334a  :     0.063573 (c=  0.25213637)
   319a -> 336a  :     0.011050 (c=  0.10511709)
   320a -> 334a  :     0.049864 (c=  0.22330228)
   324a -> 335a  :     0.134555 (c=  0.36681748)
   325a -> 335a  :     0.086102 (c=  0.29343137)
   326a -> 335a  :     0.345718 (c=  0.58797816)
   327a -> 336a  :     0.059411 (c= -0.24374279)
   332a -> 338a  :     0.062842 (c= -0.25068268)
   332a -> 339a  :     0.022092 (c=  0.14863349)

STATE 49:  E=   0.140773 au      3.831 eV    30896.0 cm**-1
   319a -> 333a  :     0.245064 (c= -0.49503925)
   319a -> 334a  :     0.291708 (c= -0.54010011)
   319a -> 336a  :     0.033998 (c= -0.18438509)
   320a -> 333a  :     0.015418 (c= -0.12416768)
   320a -> 334a  :     0.072018 (c= -0.26836232)
   324a -> 335a  :     0.021085 (c=  0.14520666)
   325a -> 335a  :     0.032843 (c=  0.18122657)
   326a -> 335a  :     0.174501 (c=  0.41773284)
   327a -> 336a  :     0.013995 (c= -0.11830238)
   328a -> 336a  :     0.031007 (c=  0.17608925)

STATE 50:  E=   0.141551 au      3.852 eV    31066.9 cm**-1
   312a -> 334a  :     0.010157 (c=  0.10078418)
   314a -> 333a  :     0.099558 (c= -0.31552853)
   314a -> 334a  :     0.016202 (c=  0.12728779)
   319a -> 333a  :     0.022070 (c=  0.14856058)
   319a -> 334a  :     0.054359 (c=  0.23315049)
   320a -> 334a  :     0.017672 (c= -0.13293613)
   320a -> 336a  :     0.013819 (c=  0.11755512)
   323a -> 336a  :     0.011064 (c=  0.10518690)
   325a -> 335a  :     0.020720 (c=  0.14394328)
   326a -> 335a  :     0.102795 (c=  0.32061588)
   327a -> 336a  :     0.275975 (c=  0.52533305)
   328a -> 336a  :     0.192288 (c=  0.43850661)
   331a -> 337a  :     0.012198 (c= -0.11044536)
   332a -> 338a  :     0.034045 (c=  0.18451350)
   332a -> 339a  :     0.033590 (c= -0.18327680)


-----------------------------
TD-DFT/TDA-EXCITATION SPECTRA
-----------------------------

Center of mass = ( 11.9106,  4.0707, -4.7936)
Calculating the Dipole integrals                  ... done
Transforming integrals                            ... done
Calculating the Linear Momentum integrals         ... done
Transforming integrals                            ... done
Calculating angular momentum integrals            ... done
Transforming integrals                            ... done

-----------------------------------------------------------------------------
         ABSORPTION SPECTRUM VIA TRANSITION ELECTRIC DIPOLE MOMENTS
-----------------------------------------------------------------------------
State   Energy    Wavelength  fosc         T2        TX        TY        TZ  
        (cm-1)      (nm)                 (au**2)    (au)      (au)      (au) 
-----------------------------------------------------------------------------
   1   15126.3    661.1   2.899421860  63.10378  -5.85741  -5.03378   1.85892
   2   17516.6    570.9   0.406948504   7.64832  -2.16762  -1.51713   0.80501
   3   19426.3    514.8   0.244050701   4.13585   1.43463   1.27540  -0.67160
   4   19903.2    502.4   0.141763278   2.34486   1.04329   1.12089  -0.00307
   5   20220.4    494.5   0.069966839   1.13914  -0.77668  -0.65332  -0.33029
   6   21183.6    472.1   0.014719133   0.22875  -0.39792  -0.13089   0.23081
   7   22010.7    454.3   0.011018127   0.16480  -0.38438   0.12163   0.04744
   8   22240.4    449.6   0.003832568   0.05673   0.19381  -0.09217   0.10331
   9   22836.9    437.9   0.352159501   5.07667   1.86656   1.22998  -0.28243
  10   23531.6    425.0   0.070947755   0.99257   0.49509   0.84917  -0.16237
  11   24002.4    416.6   0.050935879   0.69863   0.69355   0.43713  -0.16288
  12   24597.4    406.5   0.013547776   0.18132   0.30208   0.18714  -0.23463
  13   24751.2    404.0   0.032169722   0.42788   0.32524   0.53981  -0.17524
  14   24851.6    402.4   0.038589168   0.51120   0.48623   0.51035  -0.11968
  15   25002.4    400.0   0.003458899   0.04554  -0.06949  -0.08376  -0.18357
  16   25616.1    390.4   0.015513245   0.19937   0.21236   0.16508  -0.35640
  17   25814.5    387.4   0.012302511   0.15689  -0.30211  -0.21366   0.14132
  18   25898.7    386.1   0.002076448   0.02639   0.11051   0.11182  -0.04096
  19   26261.6    380.8   0.014115783   0.17695  -0.37234  -0.18778   0.05526
  20   26329.2    379.8   0.037985464   0.47496   0.46090   0.47824  -0.18388
  21   26422.3    378.5   0.000064355   0.00080   0.00205   0.02728  -0.00731
  22   26574.8    376.3   0.005610110   0.06950  -0.08735  -0.23122   0.09168
  23   26612.3    375.8   0.006580811   0.08141   0.21558   0.18501  -0.02657
  24   26727.3    374.1   0.021803156   0.26856   0.38342   0.26428  -0.22738
  25   26905.3    371.7   0.079764651   0.97600  -0.10254  -0.22845   0.95566
  26   27076.5    369.3   0.033034208   0.40165   0.47418   0.42011  -0.01747
  27   27121.3    368.7   0.015761442   0.19132   0.13371   0.15469  -0.38667
  28   27216.5    367.4   0.005999576   0.07257   0.11091   0.19391  -0.15057
  29   27450.2    364.3   0.000240353   0.00288   0.01417   0.01821   0.04848
  30   27454.7    364.2   0.000925388   0.01110  -0.00408   0.04338   0.09591
  31   27547.2    363.0   0.005622955   0.06720  -0.08265  -0.24455   0.02377
  32   28373.6    352.4   0.003286206   0.03813  -0.10937  -0.07676  -0.14239
  33   28452.9    351.5   0.016090231   0.18617   0.24679   0.18987   0.29869
  34   28576.5    349.9   0.011269628   0.12983  -0.00479   0.11038  -0.34296
  35   28841.0    346.7   0.085377750   0.97456  -0.68312  -0.58842  -0.40209
  36   28980.6    345.1   0.026028682   0.29568  -0.37085  -0.24036   0.31682
  37   29334.8    340.9   0.000119264   0.00134   0.00009  -0.01928  -0.03109
  38   29425.3    339.8   0.018623714   0.20836  -0.33176  -0.13273   0.28404
  39   29639.4    337.4   0.009473037   0.10522   0.25797   0.12744  -0.14977
  40   29894.5    334.5   0.040001563   0.44052   0.17808   0.05082   0.63735
  41   29922.7    334.2   0.001937481   0.02132   0.12059   0.07034   0.04273
  42   30082.0    332.4   0.000386356   0.00423   0.02232   0.01340  -0.05959
  43   30156.4    331.6   0.021806677   0.23806   0.38750   0.26680  -0.12932
  44   30335.3    329.6   0.002454540   0.02664   0.14812   0.06415  -0.02413
  45   30413.5    328.8   0.001772605   0.01919   0.07505  -0.05950   0.10007
  46   30732.4    325.4   0.014867146   0.15926   0.31502   0.17843  -0.16788
  47   30792.6    324.8   0.002666497   0.02851   0.11714   0.05819  -0.10677
  48   30850.4    324.1   0.005262771   0.05616  -0.16810  -0.16697   0.00471
  49   30896.0    323.7   0.003129245   0.03334   0.05043   0.03039  -0.17285
  50   31066.9    321.9   0.004426912   0.04691   0.15167   0.13814  -0.06946

-----------------------------------------------------------------------------
         ABSORPTION SPECTRUM VIA TRANSITION VELOCITY DIPOLE MOMENTS
-----------------------------------------------------------------------------
State   Energy    Wavelength   fosc        P2         PX        PY        PZ  
        (cm-1)      (nm)                 (au**2)     (au)      (au)      (au) 
-----------------------------------------------------------------------------
   1   15126.3    661.1   0.607333609   0.06279   0.17886   0.15261  -0.08664
   2   17516.6    570.9   0.143904193   0.01723   0.09916   0.07866   0.03474
   3   19426.3    514.8   0.093360532   0.01240  -0.08341  -0.06792   0.02873
   4   19903.2    502.4   0.050882873   0.00692  -0.06203  -0.05141   0.02075
   5   20220.4    494.5   0.123986090   0.01713   0.02597   0.02207  -0.12638
   6   21183.6    472.1   0.010079398   0.00146   0.02892   0.02018   0.01470
   7   22010.7    454.3   0.013541639   0.00204   0.03243  -0.00173   0.03135
   8   22240.4    449.6   0.009932030   0.00151  -0.00813   0.00598   0.03752
   9   22836.9    437.9   0.198878988   0.03104  -0.13656  -0.11132   0.00096
  10   23531.6    425.0   0.040119244   0.00645  -0.03053  -0.05949   0.04451
  11   24002.4    416.6   0.039933894   0.00655  -0.06011  -0.04560  -0.02930
  12   24597.4    406.5   0.012655068   0.00213  -0.02956  -0.03090  -0.01728
  13   24751.2    404.0   0.017490341   0.00296  -0.02931  -0.04278   0.01641
  14   24851.6    402.4   0.021914830   0.00372  -0.03868  -0.04704   0.00372
  15   25002.4    400.0   0.000231644   0.00004  -0.00032   0.00065  -0.00625
  16   25616.1    390.4   0.024677268   0.00432  -0.02499  -0.02141  -0.05690
  17   25814.5    387.4   0.018443936   0.00325   0.03313   0.04378  -0.01549
  18   25898.7    386.1   0.002153469   0.00038  -0.01818  -0.00614   0.00361
  19   26261.6    380.8   0.012738012   0.00229   0.03961   0.02215   0.01506
  20   26329.2    379.8   0.021546541   0.00388  -0.04450  -0.03957   0.01819
  21   26422.3    378.5   0.001233190   0.00022   0.00786  -0.01046  -0.00718
  22   26574.8    376.3   0.001333167   0.00024   0.00768   0.01169  -0.00682
  23   26612.3    375.8   0.002474768   0.00045  -0.01664  -0.01194  -0.00554
  24   26727.3    374.1   0.007268610   0.00133  -0.02340  -0.00669   0.02712
  25   26905.3    371.7   0.003301154   0.00061   0.00377   0.01620  -0.01818
  26   27076.5    369.3   0.004303090   0.00080  -0.02128  -0.00885   0.01629
  27   27121.3    368.7   0.001613449   0.00030  -0.00680  -0.01238   0.00998
  28   27216.5    367.4   0.010469653   0.00195   0.01312   0.01561   0.03914
  29   27450.2    364.3   0.000022634   0.00000   0.00173  -0.00090  -0.00066
  30   27454.7    364.2   0.000780690   0.00015   0.00431   0.00732   0.00862
  31   27547.2    363.0   0.000249070   0.00005  -0.00422  -0.00511  -0.00174
  32   28373.6    352.4   0.003384700   0.00066   0.01424   0.01510   0.01501
  33   28452.9    351.5   0.003307816   0.00064  -0.01956  -0.01520  -0.00543
  34   28576.5    349.9   0.003348899   0.00065   0.01596   0.00935   0.01767
  35   28841.0    346.7   0.039416055   0.00777   0.06477   0.05758   0.01607
  36   28980.6    345.1   0.026605745   0.00527   0.04432   0.04360  -0.03748
  37   29334.8    340.9   0.000787135   0.00016  -0.00113  -0.00039  -0.01251
  38   29425.3    339.8   0.066951162   0.01346   0.05407   0.06127   0.08238
  39   29639.4    337.4   0.006598523   0.00134  -0.02676  -0.02204   0.01161
  40   29894.5    334.5   0.009614329   0.00196  -0.01937  -0.02300  -0.03256
  41   29922.7    334.2   0.001857437   0.00038  -0.01130  -0.01487   0.00557
  42   30082.0    332.4   0.000275387   0.00006  -0.00513  -0.00545   0.00074
  43   30156.4    331.6   0.019529636   0.00403  -0.04530  -0.04079  -0.01759
  44   30335.3    329.6   0.012967869   0.00269  -0.03539  -0.03650  -0.01018
  45   30413.5    328.8   0.005548508   0.00115  -0.01887  -0.01226   0.02543
  46   30732.4    325.4   0.004515333   0.00095  -0.02396  -0.01205   0.01514
  47   30792.6    324.8   0.000744346   0.00016  -0.00729  -0.00296   0.00973
  48   30850.4    324.1   0.001104791   0.00023   0.00890   0.00403  -0.01172
  49   30896.0    323.7   0.000032893   0.00001  -0.00236  -0.00115   0.00024
  50   31066.9    321.9   0.002379787   0.00051  -0.01797  -0.01336   0.00199

-------------------------------------------------------------------
                             CD SPECTRUM
-------------------------------------------------------------------
State  Energy     Wavelength     R         MX        MY        MZ   
       (cm-1)       (nm)     (1e40*cgs)   (au)      (au)      (au)  
-------------------------------------------------------------------
   1   15126.3    661.1    -48.48628  -0.36105   0.47275   0.08719
   2   17516.6    570.9     23.03712  -0.21681   0.28992   0.02330
   3   19426.3    514.8      1.50067  -0.24139   0.23920  -0.06613
   4   19903.2    502.4      7.03575   0.02296  -0.00822  -0.06157
   5   20220.4    494.5    -24.59621   0.40615  -0.41856   0.03082
   6   21183.6    472.1      8.94592  -0.02718   0.02801   0.05125
   7   22010.7    454.3     53.77099  -0.22458   0.21904   0.02291
   8   22240.4    449.6    -33.40237  -0.23362   0.28062   0.00284
   9   22836.9    437.9     67.42987   0.28999  -0.34397  -0.08793
  10   23531.6    425.0     18.85926  -0.02180   0.04899  -0.05662
  11   24002.4    416.6     10.93960   0.14576  -0.19407  -0.04263
  12   24597.4    406.5     -3.84181  -0.00721  -0.02991   0.00159
  13   24751.2    404.0      7.24311  -0.07461   0.05550  -0.05517
  14   24851.6    402.4     -2.77999  -0.08751   0.05966  -0.05188
  15   25002.4    400.0     -3.59169  -0.00867   0.01847   0.03635
  16   25616.1    390.4      5.46265   0.18322  -0.17488  -0.00434
  17   25814.5    387.4    -11.00881   0.10759  -0.06052  -0.02672
  18   25898.7    386.1      4.89735   0.04841   0.10274   0.15750
  19   26261.6    380.8      6.90787  -0.05697   0.06165   0.09079
  20   26329.2    379.8     11.02979  -0.12784   0.14777  -0.06333
  21   26422.3    378.5     -0.72388  -0.01811  -0.01694   0.14182
  22   26574.8    376.3     -4.20655  -0.01463   0.06129   0.04333
  23   26612.3    375.8     -0.61304   0.10496  -0.13156  -0.01553
  24   26727.3    374.1      4.51740   0.14098  -0.17610  -0.00909
  25   26905.3    371.7     -9.53902  -0.01562   0.03877  -0.01358
  26   27076.5    369.3      0.50163  -0.02733   0.03242  -0.02292
  27   27121.3    368.7      0.94331  -0.01209   0.05238   0.01160
  28   27216.5    367.4      1.53647  -0.03153   0.05194   0.02203
  29   27450.2    364.3      3.91062   0.12527   0.14165   0.08128
  30   27454.7    364.2      6.25636  -0.15428  -0.06054   0.15918
  31   27547.2    363.0      9.07447   0.12871  -0.12334  -0.01164
  32   28373.6    352.4     -4.47193  -0.01451   0.04006   0.05616
  33   28452.9    351.5     -0.65954   0.06278  -0.07053  -0.01172
  34   28576.5    349.9      7.54023  -0.13779   0.16620   0.00878
  35   28841.0    346.7    -17.15175  -0.06419   0.09212   0.06473
  36   28980.6    345.1     12.84648  -0.14490   0.14380   0.02548
  37   29334.8    340.9     -0.82602  -0.07705   0.08939   0.00069
  38   29425.3    339.8    -13.64931   0.30087  -0.35101   0.08547
  39   29639.4    337.4      1.89082   0.01752  -0.03887  -0.02968
  40   29894.5    334.5    -27.33157  -0.01934  -0.01706  -0.08420
  41   29922.7    334.2     -0.23942   0.01453  -0.02367  -0.01393
  42   30082.0    332.4      0.69054   0.00556  -0.00333  -0.02325
  43   30156.4    331.6      0.67484  -0.05110   0.05454  -0.05167
  44   30335.3    329.6     -0.89285  -0.05898   0.08884  -0.04736
  45   30413.5    328.8     -6.60567  -0.07302   0.10091  -0.02525
  46   30732.4    325.4      5.41610   0.06802  -0.06135  -0.00599
  47   30792.6    324.8      1.21967   0.03921  -0.03980  -0.00290
  48   30850.4    324.1      1.26920  -0.05185   0.03747   0.04941
  49   30896.0    323.7      2.80391   0.02345   0.01045  -0.02573
  50   31066.9    321.9      0.04641   0.00401  -0.00991  -0.01238

Total run time:    42420.657 sec

           *** ORCA-CIS/TD-DFT FINISHED WITHOUT ERROR ***

-----------------------
CIS/TD-DFT TOTAL ENERGY
-----------------------

    E(SCF)  =  -5096.310247054 Eh
    DE(CIS) =      0.068920319 Eh (Root  1)
    ----------------------------- ---------
    E(tot)  =  -5096.241326735 Eh


-------------------------   --------------------
FINAL SINGLE POINT ENERGY     -5096.241326735250
-------------------------   --------------------


                            ***************************************
                            *     ORCA property calculations      *
                            ***************************************

                                    ---------------------
                                    Active property flags
                                    ---------------------
   (+) Dipole Moment


------------------------------------------------------------------------------
                       ORCA ELECTRIC PROPERTIES CALCULATION
------------------------------------------------------------------------------

Dipole Moment Calculation                       ... on
Quadrupole Moment Calculation                   ... off
Polarizability Calculation                      ... off
GBWName                                         ... TPIC-4F.gbw
Electron density file                           ... TPIC-4F.scfp
The origin for moment calculation is the CENTER OF MASS  = (11.910604,  4.070715 -4.793648)

-------------
DIPOLE MOMENT
-------------
                                X             Y             Z
Electronic contribution:     38.52869      -0.46741      32.72960
Nuclear contribution   :    -39.65180       1.24589     -31.47007
                        -----------------------------------------
Total Dipole Moment    :     -1.12311       0.77848       1.25953
                        -----------------------------------------
Magnitude (a.u.)       :      1.85845
Magnitude (Debye)      :      4.72380



--------------------
Rotational spectrum 
--------------------
 
Rotational constants in cm-1:     0.000986     0.000196     0.000183 
Rotational constants in MHz :    29.565469     5.876913     5.485076 

 Dipole components along the rotational axes: 
x,y,z [a.u.] :     0.694140     1.057325    -1.361639 
x,y,z [Debye]:     1.764363     2.687506    -3.461012 

 

Timings for individual modules:

Sum of individual times         ...    47849.472 sec (= 797.491 min)
GTO integral calculation        ...       13.059 sec (=   0.218 min)   0.0 %
SCF iterations                  ...     5414.684 sec (=  90.245 min)  11.3 %
CIS module                      ...    42421.728 sec (= 707.029 min)  88.7 %
                             ****ORCA TERMINATED NORMALLY****
TOTAL RUN TIME: 0 days 13 hours 17 minutes 32 seconds 154 msec
