
                                 *****************
                                 * O   R   C   A *
                                 *****************

           --- An Ab Initio, DFT and Semiempirical electronic structure package ---

                  #######################################################
                  #                        -***-                        #
                  #          Department of theory and spectroscopy      #
                  #               Directorship: Frank Neese             #
                  #        Max Planck Institute fuer Kohlenforschung    #
                  #                Kaiser Wilhelm Platz 1               #
                  #                 D-45470 Muelheim/Ruhr               #
                  #                      Germany                        #
                  #                                                     #
                  #                  All rights reserved                #
                  #                        -***-                        #
                  #######################################################


                         Program Version 4.2.0 -  RELEASE  -


 With contributions from (in alphabetic order):
   Daniel Aravena         : Magnetic Suceptibility
   Michael Atanasov       : Ab Initio Ligand Field Theory (pilot matlab implementation)
   Alexander A. Auer      : GIAO ZORA, VPT2
   Ute Becker             : Parallelization
   Giovanni Bistoni       : ED, misc. LED, open-shell LED, HFLED
   Martin Brehm           : Molecular dynamics
   Dmytro Bykov           : SCF Hessian
   Vijay G. Chilkuri      : MRCI spin determinant printing, contributions to CSF-ICE
   Dipayan Datta          : RHF DLPNO-CCSD density
   Achintya Kumar Dutta   : EOM-CC, STEOM-CC
   Dmitry Ganyushin       : Spin-Orbit,Spin-Spin,Magnetic field MRCI
   Miquel Garcia          : C-PCM Hessian, Gaussian charge scheme
   Yang Guo               : DLPNO-NEVPT2, CIM, IAO-localization
   Andreas Hansen         : Spin unrestricted coupled pair/coupled cluster methods
   Benjamin Helmich-Paris : CASSCF linear response (MC-RPA)
   Lee Huntington         : MR-EOM, pCC
   Robert Izsak           : Overlap fitted RIJCOSX, COSX-SCS-MP3, EOM
   Christian Kollmar      : KDIIS, OOCD, Brueckner-CCSD(T), CCSD density
   Simone Kossmann        : Meta GGA functionals, TD-DFT gradient, OOMP2, MP2 Hessian
   Martin Krupicka        : AUTO-CI
   Lucas Lang             : DCDCAS
   Dagmar Lenk            : GEPOL surface, SMD
   Dimitrios Liakos       : Extrapolation schemes; Compound Job, initial MDCI parallelization
   Dimitrios Manganas     : Further ROCIS development; embedding schemes
   Dimitrios Pantazis     : SARC Basis sets
   Taras Petrenko         : DFT Hessian,TD-DFT gradient, ASA, ECA, R-Raman, ABS, FL, XAS/XES, NRVS
   Peter Pinski           : DLPNO-MP2, DLPNO-MP2 Gradient
   Christoph Reimann      : Effective Core Potentials
   Marius Retegan         : Local ZFS, SOC
   Christoph Riplinger    : Optimizer, TS searches, QM/MM, DLPNO-CCSD(T), (RO)-DLPNO pert. Triples
   Tobias Risthaus        : Range-separated hybrids, TD-DFT gradient, RPA, STAB
   Michael Roemelt        : Original ROCIS implementation
   Masaaki Saitow         : Open-shell DLPNO-CCSD energy and density
   Barbara Sandhoefer     : DKH picture change effects
   Avijit Sen             : IP-ROCIS
   Kantharuban Sivalingam : CASSCF convergence, NEVPT2, FIC-MRCI
   Bernardo de Souza      : ESD, SOC TD-DFT
   Georgi Stoychev        : AutoAux, RI-MP2 NMR
   Willem Van den Heuvel  : Paramagnetic NMR
   Boris Wezisla          : Elementary symmetry handling
   Frank Wennmohs         : Technical directorship


 We gratefully acknowledge several colleagues who have allowed us to
 interface, adapt or use parts of their codes:
   Stefan Grimme, W. Hujo, H. Kruse,             : VdW corrections, initial TS optimization,
                  C. Bannwarth                     DFT functionals, gCP, sTDA/sTD-DF
   Ed Valeev, F. Pavosevic, A. Kumar             : LibInt (2-el integral package), F12 methods
   Garnet Chan, S. Sharma, J. Yang, R. Olivares  : DMRG
   Ulf Ekstrom                                   : XCFun DFT Library
   Mihaly Kallay                                 : mrcc  (arbitrary order and MRCC methods)
   Andreas Klamt, Michael Diedenhofen            : otool_cosmo (COSMO solvation model)
   Jiri Pittner, Ondrej Demel                    : Mk-CCSD
   Frank Weinhold                                : gennbo (NPA and NBO analysis)
   Christopher J. Cramer and Donald G. Truhlar   : smd solvation model
   Lars Goerigk                                  : TD-DFT with DH, B97 family of functionals
   V. Asgeirsson, H. Jonsson                     : NEB implementation
   FAccTs GmbH                                   : IRC, NEB, NEB-TS, Multilevel, MM, QM/MM, CI optimization
   S Lehtola, MJT Oliveira, MAL Marques          : LibXC Library


 Your calculation uses the libint2 library for the computation of 2-el integrals
 For citations please refer to: http://libint.valeyev.net

 Your ORCA version has been built with support for libXC version: 4.2.3
 For citations please refer to: https://tddft.org/programs/libxc/

 This ORCA versions uses:
   CBLAS   interface :  Fast vector & matrix operations
   LAPACKE interface :  Fast linear algebra routines
   SCALAPACK package :  Parallel linear algebra routines


----- Orbital basis set information -----
Your calculation utilizes the basis: def2-TZVP
   F. Weigend and R. Ahlrichs, Phys. Chem. Chem. Phys. 7, 3297 (2005).

----- AuxJ basis set information -----
Your calculation utilizes the auxiliary basis: def2/J
   F. Weigend, Phys. Chem. Chem. Phys. 8, 1057 (2006).

================================================================================
                                        WARNINGS
                       Please study these warnings very carefully!
================================================================================

INFO   : Checking CIS options ...

WARNING: CIS/ROCIS methods need fully converged wavefunctions
  ===> : Setting SCFConvForced true
         You can overwrite this default with %scf ConvForced false 


INFO   : the flag for use of LIBINT has been found!

================================================================================
                                       INPUT FILE
================================================================================
NAME = Y1.inp
|  1> # ORCA input file
|  2> # ../Y1.out
|  3> ! B3LYP def2-TZVP def2/J RIJCOSX Grid4 TightSCF
|  4> %maxcore 10000
|  5> %tddft
|  6>   maxdim 5
|  7>   nroots 50
|  8>   end
|  9> * xyz 0 1
| 10>    C       -1.47577        -0.07170        -0.91184
| 11>    O       -2.07764         0.83594        -0.38499
| 12>    C       -0.05138        -0.11193        -1.30816
| 13>    C        0.93359         0.83591        -1.11201
| 14>    C        2.21824         0.54875        -1.55318
| 15>    C        2.49911        -0.66164        -2.17060
| 16>    C        1.51078        -1.61492        -2.37944
| 17>    C        0.22550        -1.33529        -1.94693
| 18>    C       -1.02031        -2.09107        -2.06232
| 19>    C       -1.27578        -3.06409        -2.99386
| 20>    C       -2.58244        -3.48707        -3.31669
| 21>    N       -3.63366        -3.80573        -3.65057
| 22>    C       -0.28664        -3.68068        -3.78292
| 23>    N        0.48503        -4.24950        -4.41538
| 24>    C       -2.00162        -1.42405        -1.23858
| 25>    C       -3.14368        -1.85883        -0.63313
| 26>    C       -3.60260        -3.16863        -0.39208
| 27>    S       -2.61105        -4.60041        -0.63823
| 28>    C       -3.84511        -5.61708         0.00215
| 29>    C       -4.96509        -4.86099         0.39448
| 30>    C       -4.81842        -3.49620         0.18920
| 31>    S       -6.26828        -5.83554         1.03012
| 32>    C       -5.31188        -7.24759         0.73879
| 33>    C       -4.04243        -6.98511         0.20933
| 34>    N       -3.38908        -8.16332        -0.04757
| 35>    C       -2.17709        -8.11558        -0.83279
| 36>    C       -0.85805        -7.98044        -0.03848
| 37>    C        0.26041        -7.57880        -1.00958
| 38>    C        0.58724        -8.63292        -2.06178
| 39>    C       -0.95943        -6.96782         1.10954
| 40>    C        0.11318        -7.17177         2.17722
| 41>    C        0.05538        -6.08813         3.25094
| 42>    C        1.11629        -6.30370         4.32315
| 43>    C       -4.24532        -9.20767         0.27904
| 44>    C       -5.46030        -8.63571         0.77108
| 45>    C       -6.59044        -9.42353         1.06372
| 46>    N       -7.81113        -9.12795         1.51569
| 47>    N       -8.44042       -10.27589         1.49743
| 48>    C       -9.81769       -10.38632         1.86436
| 49>    C      -10.73823        -9.90963         0.72663
| 50>    C      -10.42530       -10.66461        -0.57726
| 51>    C       -9.60732        -9.82980        -1.55718
| 52>    C      -12.19717       -10.08230         1.16339
| 53>    C      -13.16804        -9.27759         0.30181
| 54>    C      -14.61784        -9.48767         0.73233
| 55>    C      -15.58400        -8.67285        -0.11862
| 56>    N       -7.76072       -11.31140         1.07345
| 57>    C       -6.55819       -10.81054         0.78277
| 58>    C       -5.36041       -11.39361         0.32821
| 59>    C       -4.16488       -10.62378         0.15635
| 60>    N       -3.14097       -11.50323        -0.17618
| 61>    C       -1.70539       -11.39889        -0.06985
| 62>    C       -1.15380       -11.38535         1.37285
| 63>    C       -1.73927       -12.49619         2.25854
| 64>    C       -2.93336       -12.04889         3.09433
| 65>    C        0.37352       -11.52370         1.26962
| 66>    C        1.11784       -11.11079         2.53656
| 67>    C        2.62325       -11.32046         2.39406
| 68>    C        3.37338       -10.86235         3.63826
| 69>    C       -3.67773       -12.75967        -0.25391
| 70>    C       -5.04493       -12.72522         0.04252
| 71>    S       -5.81183       -14.27680         0.00605
| 72>    C       -4.27216       -14.99956        -0.39644
| 73>    C       -3.23483       -14.05877        -0.50784
| 74>    S       -1.73270       -14.82163        -0.87014
| 75>    C       -2.49196       -16.40985        -0.81418
| 76>    C       -3.85498       -16.31107        -0.59408
| 77>    C       -1.76254       -17.59753        -1.03494
| 78>    C       -0.41681       -17.79914        -0.95510
| 79>    C        0.64581       -17.00820        -0.37553
| 80>    C        0.54887       -16.21987         0.74235
| 81>    C        1.61527       -15.48313         1.28961
| 82>    N        2.43180       -14.82332         1.75585
| 83>    C       -0.62880       -16.11805         1.51248
| 84>    N       -1.54862       -16.05367         2.19675
| 85>    C        1.89519       -17.44155        -0.99652
| 86>    C        3.17761       -16.92314        -0.93124
| 87>    C        4.19581       -17.59644        -1.59351
| 88>    C        3.95013       -18.76511        -2.30013
| 89>    C        2.66682       -19.28938        -2.37554
| 90>    C        1.64840       -18.61947        -1.72647
| 91>    C        0.20712       -18.94611        -1.66707
| 92>    O       -0.35949       -19.90718        -2.13470
| 93>    H        0.69685         1.77103        -0.62826
| 94>    H        3.00729         1.27227        -1.41358
| 95>    H        3.50656        -0.86947        -2.49881
| 96>    H        1.75101        -2.55137        -2.85739
| 97>    H       -3.73711        -1.07746        -0.16721
| 98>    H       -5.56504        -2.76155         0.42886
| 99>    H       -2.26449        -7.23549        -1.47996
|100>    H       -2.14906        -8.99200        -1.48177
|101>    H       -0.60010        -8.94194         0.40745
|102>    H        1.16404        -7.38176        -0.43167
|103>    H       -0.01858        -6.64733        -1.50828
|104>    H        0.84724        -9.58093        -1.59410
|105>    H        1.43679        -8.30621        -2.65588
|106>    H       -0.24647        -8.79480        -2.74008
|107>    H       -1.93243        -7.05480         1.59653
|108>    H       -0.87422        -5.95697         0.70855
|109>    H        1.10567        -7.16726         1.72301
|110>    H       -0.03135        -8.14606         2.64992
|111>    H       -0.93467        -6.08830         3.71304
|112>    H        0.20213        -5.11091         2.78506
|113>    H        0.97706        -7.26632         4.81065
|114>    H        1.05977        -5.52525         5.07989
|115>    H        2.11162        -6.28350         3.88430
|116>    H       -9.98028        -9.77638         2.75592
|117>    H      -10.00814       -11.43746         2.08906
|118>    H      -10.54526        -8.84265         0.57519
|119>    H      -11.35623       -10.95712        -1.06444
|120>    H       -9.87843       -11.58138        -0.34572
|121>    H      -10.15762        -8.93861        -1.85175
|122>    H       -9.38455       -10.40710        -2.45168
|123>    H       -8.66459        -9.51381        -1.11689
|124>    H      -12.30251        -9.75470         2.20046
|125>    H      -12.46197       -11.14137         1.12454
|126>    H      -13.06317        -9.56426        -0.74609
|127>    H      -12.92004        -8.21658         0.37908
|128>    H      -14.72819        -9.20185         1.78088
|129>    H      -14.86823       -10.54791         0.65116
|130>    H      -15.36353        -7.61094        -0.03475
|131>    H      -16.60971        -8.83672         0.20289
|132>    H      -15.50316        -8.95666        -1.16569
|133>    H       -1.34712       -10.52399        -0.60554
|134>    H       -1.30003       -12.27832        -0.57932
|135>    H       -1.39878       -10.42075         1.83156
|136>    H       -0.96473       -12.84479         2.94241
|137>    H       -2.01897       -13.35594         1.65085
|138>    H       -2.64661       -11.23785         3.76130
|139>    H       -3.28911       -12.87896         3.69951
|140>    H       -3.75827       -11.70466         2.47648
|141>    H        0.74218       -10.90972         0.44317
|142>    H        0.61624       -12.56252         1.03406
|143>    H        0.76060       -11.69030         3.38899
|144>    H        0.92024       -10.05720         2.74677
|145>    H        2.98495       -10.76273         1.52657
|146>    H        2.82048       -12.37897         2.21792
|147>    H        3.19955        -9.80379         3.82363
|148>    H        4.44246       -11.01917         3.51891
|149>    H        3.04116       -11.42171         4.50976
|150>    H       -4.49740       -17.17029        -0.53427
|151>    H       -2.34174       -18.44640        -1.38528
|152>    H        3.38864       -16.01356        -0.39160
|153>    H        5.19951       -17.20041        -1.55400
|154>    H        4.76540       -19.26969        -2.79639
|155>    H        2.45691       -20.19617        -2.92152
|156> *
|157> 
|158>                          ****END OF INPUT****
================================================================================

                       ****************************
                       * Single Point Calculation *
                       ****************************

---------------------------------
CARTESIAN COORDINATES (ANGSTROEM)
---------------------------------
  C     -1.475770   -0.071700   -0.911840
  O     -2.077640    0.835940   -0.384990
  C     -0.051380   -0.111930   -1.308160
  C      0.933590    0.835910   -1.112010
  C      2.218240    0.548750   -1.553180
  C      2.499110   -0.661640   -2.170600
  C      1.510780   -1.614920   -2.379440
  C      0.225500   -1.335290   -1.946930
  C     -1.020310   -2.091070   -2.062320
  C     -1.275780   -3.064090   -2.993860
  C     -2.582440   -3.487070   -3.316690
  N     -3.633660   -3.805730   -3.650570
  C     -0.286640   -3.680680   -3.782920
  N      0.485030   -4.249500   -4.415380
  C     -2.001620   -1.424050   -1.238580
  C     -3.143680   -1.858830   -0.633130
  C     -3.602600   -3.168630   -0.392080
  S     -2.611050   -4.600410   -0.638230
  C     -3.845110   -5.617080    0.002150
  C     -4.965090   -4.860990    0.394480
  C     -4.818420   -3.496200    0.189200
  S     -6.268280   -5.835540    1.030120
  C     -5.311880   -7.247590    0.738790
  C     -4.042430   -6.985110    0.209330
  N     -3.389080   -8.163320   -0.047570
  C     -2.177090   -8.115580   -0.832790
  C     -0.858050   -7.980440   -0.038480
  C      0.260410   -7.578800   -1.009580
  C      0.587240   -8.632920   -2.061780
  C     -0.959430   -6.967820    1.109540
  C      0.113180   -7.171770    2.177220
  C      0.055380   -6.088130    3.250940
  C      1.116290   -6.303700    4.323150
  C     -4.245320   -9.207670    0.279040
  C     -5.460300   -8.635710    0.771080
  C     -6.590440   -9.423530    1.063720
  N     -7.811130   -9.127950    1.515690
  N     -8.440420  -10.275890    1.497430
  C     -9.817690  -10.386320    1.864360
  C    -10.738230   -9.909630    0.726630
  C    -10.425300  -10.664610   -0.577260
  C     -9.607320   -9.829800   -1.557180
  C    -12.197170  -10.082300    1.163390
  C    -13.168040   -9.277590    0.301810
  C    -14.617840   -9.487670    0.732330
  C    -15.584000   -8.672850   -0.118620
  N     -7.760720  -11.311400    1.073450
  C     -6.558190  -10.810540    0.782770
  C     -5.360410  -11.393610    0.328210
  C     -4.164880  -10.623780    0.156350
  N     -3.140970  -11.503230   -0.176180
  C     -1.705390  -11.398890   -0.069850
  C     -1.153800  -11.385350    1.372850
  C     -1.739270  -12.496190    2.258540
  C     -2.933360  -12.048890    3.094330
  C      0.373520  -11.523700    1.269620
  C      1.117840  -11.110790    2.536560
  C      2.623250  -11.320460    2.394060
  C      3.373380  -10.862350    3.638260
  C     -3.677730  -12.759670   -0.253910
  C     -5.044930  -12.725220    0.042520
  S     -5.811830  -14.276800    0.006050
  C     -4.272160  -14.999560   -0.396440
  C     -3.234830  -14.058770   -0.507840
  S     -1.732700  -14.821630   -0.870140
  C     -2.491960  -16.409850   -0.814180
  C     -3.854980  -16.311070   -0.594080
  C     -1.762540  -17.597530   -1.034940
  C     -0.416810  -17.799140   -0.955100
  C      0.645810  -17.008200   -0.375530
  C      0.548870  -16.219870    0.742350
  C      1.615270  -15.483130    1.289610
  N      2.431800  -14.823320    1.755850
  C     -0.628800  -16.118050    1.512480
  N     -1.548620  -16.053670    2.196750
  C      1.895190  -17.441550   -0.996520
  C      3.177610  -16.923140   -0.931240
  C      4.195810  -17.596440   -1.593510
  C      3.950130  -18.765110   -2.300130
  C      2.666820  -19.289380   -2.375540
  C      1.648400  -18.619470   -1.726470
  C      0.207120  -18.946110   -1.667070
  O     -0.359490  -19.907180   -2.134700
  H      0.696850    1.771030   -0.628260
  H      3.007290    1.272270   -1.413580
  H      3.506560   -0.869470   -2.498810
  H      1.751010   -2.551370   -2.857390
  H     -3.737110   -1.077460   -0.167210
  H     -5.565040   -2.761550    0.428860
  H     -2.264490   -7.235490   -1.479960
  H     -2.149060   -8.992000   -1.481770
  H     -0.600100   -8.941940    0.407450
  H      1.164040   -7.381760   -0.431670
  H     -0.018580   -6.647330   -1.508280
  H      0.847240   -9.580930   -1.594100
  H      1.436790   -8.306210   -2.655880
  H     -0.246470   -8.794800   -2.740080
  H     -1.932430   -7.054800    1.596530
  H     -0.874220   -5.956970    0.708550
  H      1.105670   -7.167260    1.723010
  H     -0.031350   -8.146060    2.649920
  H     -0.934670   -6.088300    3.713040
  H      0.202130   -5.110910    2.785060
  H      0.977060   -7.266320    4.810650
  H      1.059770   -5.525250    5.079890
  H      2.111620   -6.283500    3.884300
  H     -9.980280   -9.776380    2.755920
  H    -10.008140  -11.437460    2.089060
  H    -10.545260   -8.842650    0.575190
  H    -11.356230  -10.957120   -1.064440
  H     -9.878430  -11.581380   -0.345720
  H    -10.157620   -8.938610   -1.851750
  H     -9.384550  -10.407100   -2.451680
  H     -8.664590   -9.513810   -1.116890
  H    -12.302510   -9.754700    2.200460
  H    -12.461970  -11.141370    1.124540
  H    -13.063170   -9.564260   -0.746090
  H    -12.920040   -8.216580    0.379080
  H    -14.728190   -9.201850    1.780880
  H    -14.868230  -10.547910    0.651160
  H    -15.363530   -7.610940   -0.034750
  H    -16.609710   -8.836720    0.202890
  H    -15.503160   -8.956660   -1.165690
  H     -1.347120  -10.523990   -0.605540
  H     -1.300030  -12.278320   -0.579320
  H     -1.398780  -10.420750    1.831560
  H     -0.964730  -12.844790    2.942410
  H     -2.018970  -13.355940    1.650850
  H     -2.646610  -11.237850    3.761300
  H     -3.289110  -12.878960    3.699510
  H     -3.758270  -11.704660    2.476480
  H      0.742180  -10.909720    0.443170
  H      0.616240  -12.562520    1.034060
  H      0.760600  -11.690300    3.388990
  H      0.920240  -10.057200    2.746770
  H      2.984950  -10.762730    1.526570
  H      2.820480  -12.378970    2.217920
  H      3.199550   -9.803790    3.823630
  H      4.442460  -11.019170    3.518910
  H      3.041160  -11.421710    4.509760
  H     -4.497400  -17.170290   -0.534270
  H     -2.341740  -18.446400   -1.385280
  H      3.388640  -16.013560   -0.391600
  H      5.199510  -17.200410   -1.554000
  H      4.765400  -19.269690   -2.796390
  H      2.456910  -20.196170   -2.921520

----------------------------
CARTESIAN COORDINATES (A.U.)
----------------------------
  NO LB      ZA    FRAG     MASS         X           Y           Z
   0 C     6.0000    0    12.011   -2.788801   -0.135493   -1.723128
   1 O     8.0000    0    15.999   -3.926171    1.579698   -0.727526
   2 C     6.0000    0    12.011   -0.097094   -0.211517   -2.472064
   3 C     6.0000    0    12.011    1.764229    1.579641   -2.101394
   4 C     6.0000    0    12.011    4.191866    1.036987   -2.935085
   5 C     6.0000    0    12.011    4.722633   -1.250318   -4.101840
   6 C     6.0000    0    12.011    2.854960   -3.051757   -4.496490
   7 C     6.0000    0    12.011    0.426133   -2.523332   -3.679165
   8 C     6.0000    0    12.011   -1.928106   -3.951550   -3.897220
   9 C     6.0000    0    12.011   -2.410875   -5.790291   -5.657575
  10 C     6.0000    0    12.011   -4.880104   -6.589607   -6.267636
  11 N     7.0000    0    14.007   -6.866622   -7.191787   -6.898578
  12 C     6.0000    0    12.011   -0.541671   -6.955477   -7.148683
  13 N     7.0000    0    14.007    0.916574   -8.030391   -8.343859
  14 C     6.0000    0    12.011   -3.782514   -2.691065   -2.340577
  15 C     6.0000    0    12.011   -5.940694   -3.512680   -1.196442
  16 C     6.0000    0    12.011   -6.807927   -5.987843   -0.740924
  17 S    16.0000    0    32.060   -4.934169   -8.693515   -1.206080
  18 C     6.0000    0    12.011   -7.266205  -10.614743    0.004063
  19 C     6.0000    0    12.011   -9.382660   -9.185940    0.745459
  20 C     6.0000    0    12.011   -9.105494   -6.606861    0.357536
  21 S    16.0000    0    32.060  -11.845333  -11.027572    1.946645
  22 C     6.0000    0    12.011  -10.037998  -13.695960    1.396111
  23 C     6.0000    0    12.011   -7.639086  -13.199945    0.395576
  24 N     7.0000    0    14.007   -6.404433  -15.426439   -0.089894
  25 C     6.0000    0    12.011   -4.114104  -15.336224   -1.573745
  26 C     6.0000    0    12.011   -1.621480  -15.080846   -0.072717
  27 C     6.0000    0    12.011    0.492104  -14.321856   -1.907830
  28 C     6.0000    0    12.011    1.109723  -16.313855   -3.896200
  29 C     6.0000    0    12.011   -1.813060  -13.167272    2.096727
  30 C     6.0000    0    12.011    0.213879  -13.552681    4.114350
  31 C     6.0000    0    12.011    0.104653  -11.504898    6.143386
  32 C     6.0000    0    12.011    2.109482  -11.912267    8.169570
  33 C     6.0000    0    12.011   -8.022492  -17.399975    0.527309
  34 C     6.0000    0    12.011  -10.318472  -16.319127    1.457130
  35 C     6.0000    0    12.011  -12.454127  -17.807891    2.010139
  36 N     7.0000    0    14.007  -14.760896  -17.249326    2.864239
  37 N     7.0000    0    14.007  -15.950082  -19.418618    2.829733
  38 C     6.0000    0    12.011  -18.552745  -19.627300    3.523130
  39 C     6.0000    0    12.011  -20.292314  -18.726487    1.373132
  40 C     6.0000    0    12.011  -19.700962  -20.153192   -1.090863
  41 C     6.0000    0    12.011  -18.155204  -18.575630   -2.942644
  42 C     6.0000    0    12.011  -23.049311  -19.052786    2.198488
  43 C     6.0000    0    12.011  -24.883989  -17.532104    0.570338
  44 C     6.0000    0    12.011  -27.623714  -17.929098    1.383903
  45 C     6.0000    0    12.011  -29.449492  -16.389311   -0.224159
  46 N     7.0000    0    14.007  -14.665635  -21.375448    2.028527
  47 C     6.0000    0    12.011  -12.393183  -20.428960    1.479221
  48 C     6.0000    0    12.011  -10.129707  -21.530803    0.620227
  49 C     6.0000    0    12.011   -7.870483  -20.076035    0.295459
  50 N     7.0000    0    14.007   -5.935573  -21.737954   -0.332932
  51 C     6.0000    0    12.011   -3.222720  -21.540780   -0.131997
  52 C     6.0000    0    12.011   -2.180366  -21.515193    2.594311
  53 C     6.0000    0    12.011   -3.286744  -23.614377    4.268022
  54 C     6.0000    0    12.011   -5.543247  -22.769102    5.847436
  55 C     6.0000    0    12.011    0.705851  -21.776637    2.399234
  56 C     6.0000    0    12.011    2.112411  -20.996350    4.793404
  57 C     6.0000    0    12.011    4.957224  -21.392569    4.524118
  58 C     6.0000    0    12.011    6.374764  -20.526867    6.875315
  59 C     6.0000    0    12.011   -6.949902  -24.112282   -0.479820
  60 C     6.0000    0    12.011   -9.533536  -24.047181    0.080351
  61 S    16.0000    0    32.060  -10.982767  -26.979242    0.011433
  62 C     6.0000    0    12.011   -8.073212  -28.345061   -0.749163
  63 C     6.0000    0    12.011   -6.112943  -26.567225   -0.959679
  64 S    16.0000    0    32.060   -3.274328  -28.008822   -1.644326
  65 C     6.0000    0    12.011   -4.709122  -31.010122   -1.538577
  66 C     6.0000    0    12.011   -7.284856  -30.823455   -1.122649
  67 C     6.0000    0    12.011   -3.330718  -33.254512   -1.955753
  68 C     6.0000    0    12.011   -0.787657  -33.635500   -1.804877
  69 C     6.0000    0    12.011    1.220404  -32.140840   -0.709649
  70 C     6.0000    0    12.011    1.037214  -30.651112    1.402838
  71 C     6.0000    0    12.011    3.052418  -29.258875    2.437010
  72 N     7.0000    0    14.007    4.595436  -28.012015    3.318076
  73 C     6.0000    0    12.011   -1.188260  -30.458700    2.858173
  74 N     7.0000    0    14.007   -2.926468  -30.337040    4.151256
  75 C     6.0000    0    12.011    3.581390  -32.959753   -1.883150
  76 C     6.0000    0    12.011    6.004813  -31.980100   -1.759789
  77 C     6.0000    0    12.011    7.928932  -33.252453   -3.011297
  78 C     6.0000    0    12.011    7.464664  -35.460919   -4.346616
  79 C     6.0000    0    12.011    5.039559  -36.451645   -4.489120
  80 C     6.0000    0    12.011    3.115025  -35.185699   -3.262555
  81 C     6.0000    0    12.011    0.391400  -35.802959   -3.150306
  82 O     8.0000    0    15.999   -0.679338  -37.619118   -4.033998
  83 H     1.0000    0     1.008    1.316856    3.346762   -1.187239
  84 H     1.0000    0     1.008    5.682955    2.404242   -2.671279
  85 H     1.0000    0     1.008    6.626438   -1.643060   -4.722067
  86 H     1.0000    0     1.008    3.308929   -4.821391   -5.399685
  87 H     1.0000    0     1.008   -7.062114   -2.036104   -0.315981
  88 H     1.0000    0     1.008  -10.516402   -5.218573    0.810428
  89 H     1.0000    0     1.008   -4.279266  -13.673095   -2.796719
  90 H     1.0000    0     1.008   -4.061135  -16.992417   -2.800139
  91 H     1.0000    0     1.008   -1.134025  -16.897818    0.769969
  92 H     1.0000    0     1.008    2.199717  -13.949505   -0.815738
  93 H     1.0000    0     1.008   -0.035111  -12.561633   -2.850236
  94 H     1.0000    0     1.008    1.601052  -18.105334   -3.012412
  95 H     1.0000    0     1.008    2.715140  -15.696462   -5.018886
  96 H     1.0000    0     1.008   -0.465761  -16.619763   -5.178001
  97 H     1.0000    0     1.008   -3.651763  -13.331640    3.017004
  98 H     1.0000    0     1.008   -1.652036  -11.257042    1.338965
  99 H     1.0000    0     1.008    2.089413  -13.544159    3.256017
 100 H     1.0000    0     1.008   -0.059243  -15.393822    5.007623
 101 H     1.0000    0     1.008   -1.766270  -11.505220    7.016629
 102 H     1.0000    0     1.008    0.381970   -9.658220    5.263001
 103 H     1.0000    0     1.008    1.846376  -13.731355    9.090811
 104 H     1.0000    0     1.008    2.002675  -10.441209    9.599601
 105 H     1.0000    0     1.008    3.990383  -11.874094    7.340263
 106 H     1.0000    0     1.008  -18.859996  -18.474681    5.207934
 107 H     1.0000    0     1.008  -18.912644  -21.613667    3.947751
 108 H     1.0000    0     1.008  -19.927653  -16.710187    1.086952
 109 H     1.0000    0     1.008  -21.460165  -20.705956   -2.011500
 110 H     1.0000    0     1.008  -18.667527  -21.885636   -0.653316
 111 H     1.0000    0     1.008  -19.195120  -16.891525   -3.499300
 112 H     1.0000    0     1.008  -17.734229  -19.666569   -4.633004
 113 H     1.0000    0     1.008  -16.373702  -17.978495   -2.110616
 114 H     1.0000    0     1.008  -23.248375  -18.433712    4.158267
 115 H     1.0000    0     1.008  -23.549710  -21.054138    2.125073
 116 H     1.0000    0     1.008  -24.685814  -18.073832   -1.409906
 117 H     1.0000    0     1.008  -24.415337  -15.527086    0.716357
 118 H     1.0000    0     1.008  -27.832246  -17.388976    3.365375
 119 H     1.0000    0     1.008  -28.096883  -19.932661    1.230514
 120 H     1.0000    0     1.008  -29.032864  -14.382592   -0.065668
 121 H     1.0000    0     1.008  -31.387803  -16.698981    0.383407
 122 H     1.0000    0     1.008  -29.296727  -16.925634   -2.202835
 123 H     1.0000    0     1.008   -2.545688  -19.887459   -1.144305
 124 H     1.0000    0     1.008   -2.456701  -23.202662   -1.094756
 125 H     1.0000    0     1.008   -2.643311  -19.692364    3.461147
 126 H     1.0000    0     1.008   -1.823075  -24.273135    5.560349
 127 H     1.0000    0     1.008   -3.815300  -25.239069    3.119654
 128 H     1.0000    0     1.008   -5.001368  -21.236459    7.107827
 129 H     1.0000    0     1.008   -6.215517  -24.337707    6.991061
 130 H     1.0000    0     1.008   -7.102101  -22.118602    4.679869
 131 H     1.0000    0     1.008    1.402517  -20.616383    0.837470
 132 H     1.0000    0     1.008    1.164525  -23.739722    1.954090
 133 H     1.0000    0     1.008    1.437326  -22.091465    6.404263
 134 H     1.0000    0     1.008    1.739002  -19.005354    5.190643
 135 H     1.0000    0     1.008    5.640738  -20.338612    2.884799
 136 H     1.0000    0     1.008    5.329935  -23.392863    4.191261
 137 H     1.0000    0     1.008    6.046273  -18.526478    7.225614
 138 H     1.0000    0     1.008    8.395033  -20.823214    6.649776
 139 H     1.0000    0     1.008    5.746960  -21.583904    8.522211
 140 H     1.0000    0     1.008   -8.498854  -32.447146   -1.009624
 141 H     1.0000    0     1.008   -4.425247  -34.858644   -2.617800
 142 H     1.0000    0     1.008    6.403602  -30.261243   -0.740017
 143 H     1.0000    0     1.008    9.825650  -32.504064   -2.936634
 144 H     1.0000    0     1.008    9.005301  -36.414437   -5.284411
 145 H     1.0000    0     1.008    4.642887  -38.165230   -5.520873

--------------------------------
INTERNAL COORDINATES (ANGSTROEM)
--------------------------------
 C      0   0   0     0.000000000000     0.00000000     0.00000000
 O      1   0   0     1.209805269041     0.00000000     0.00000000
 C      1   2   0     1.479045255359   128.03963517     0.00000000
 C      3   1   2     1.380956693383   129.06234195     3.68297751
 C      4   3   1     1.388314610238   118.22201135   178.47399234
 C      5   4   3     1.387493915446   120.60784816   359.82509182
 C      6   5   4     1.388939556964   121.43933786     0.65398518
 C      7   6   5     1.384630822783   118.35544520   359.58328870
 C      8   7   6     1.461697922486   131.45782760   177.27212240
 C      9   8   7     1.371057844476   125.40789642   337.95925618
 C     10   9   8     1.410847846119   122.73849669   198.77309115
 N     11  10   9     1.148078193504   176.17757840   117.13845628
 C     10   9   8     1.407549946290   124.11292519    14.56150908
 N     13  10   9     1.148493113998   176.23217877   138.63829436
 C      9   8   7     1.444448885942   107.17192121   170.66087660
 C     15   9   8     1.363783118571   132.44424440   203.96107330
 C     16  15   9     1.408647829977   130.18244432    14.46540610
 S     17  16  15     1.758907386249   123.31841238     9.79433570
 C     18  17  16     1.722384543852    91.40696937   175.16429022
 C     19  18  17     1.407107002825   110.90217467   359.54003613
 C     17  16  15     1.386869429939   125.23620608   182.83981070
 S     20  19  18     1.747023207688   113.29316596   179.03715616
 C     22  20  19     1.730161648922    88.94906997   359.07573397
 C     19  18  17     1.397628282377   137.22593019   177.83733161
 N     24  19  18     1.371511077826   138.23175740   356.16961799
 C     25  24  19     1.444911525354   118.22852361   354.40288372
 C     26  25  24     1.545657697325   116.06782657    91.97764581
 C     27  26  25     1.534699537760   108.64095570   194.68299887
 C     28  27  26     1.524831683597   114.32558034   294.92021804
 C     27  26  25     1.534153541599   112.69777723   317.38340988
 C     30  27  26     1.527098031234   112.86847049   159.66565956
 C     31  30  27     1.526594618096   111.73726059   175.66039615
 C     32  31  30     1.523691155418   111.60140738   179.33864348
 C     25  24  19     1.389420005686   107.94527759   187.84940125
 C     23  22  20     1.396405483697   138.47339679   188.27562805
 C     35  23  22     1.408373154246   130.25256668     1.63039672
 N     36  35  23     1.334814029519   132.86893024   352.59215361
 N     37  36  35     1.309238547897   103.92657583   175.87712365
 C     38  37  36     1.429582128701   121.81746732   182.52703951
 C     39  38  37     1.539174064425   111.25626162    77.98077478
 C     40  39  38     1.538846684176   110.65591329    54.74369017
 C     41  40  39     1.525202354739   112.63840448   257.43380181
 C     40  39  38     1.532670920354   108.89104311   178.65827858
 C     43  40  39     1.527241577944   112.64363419   163.15410474
 C     44  43  40     1.526892634339   111.84184802   178.70107221
 C     45  44  43     1.523651101959   111.77987106   179.39751565
 N     38  37  36     1.309210483650   116.64587576   359.81547561
 C     47  38  37     1.334703713526   103.97365429     0.18672507
 C     48  47  38     1.407576764123   132.96633771   177.49997046
 C     34  25  24     1.423689208290   133.83358994   175.51355382
 N     50  34  25     1.390107978360   133.74994040     9.76059156
 C     51  50  34     1.443288897241   132.01114173    25.39379550
 C     52  51  50     1.544609384181   115.12814022    68.16995644
 C     53  52  51     1.536615567603   113.32599917    47.94168129
 C     54  53  52     1.524622294931   113.72162214   264.83936915
 C     53  52  51     1.537043765740   106.93747985   170.10324333
 C     56  53  52     1.526317101424   113.85816833   162.41162564
 C     57  56  53     1.526606375920   111.48450888   177.78901763
 C     58  57  56     1.523349411330   111.59493663   177.94942154
 C     51  50  34     1.368500903946   107.79006871   185.47747979
 C     49  48  47     1.397974105125   130.73804346   359.29766062
 S     61  49  48     1.731145911615   139.29339985     2.70614034
 C     62  61  49     1.747845509935    89.15402406   183.45728566
 C     60  51  50     1.395815770401   137.76347033   181.46638228
 S     64  60  51     1.723255989834   136.62284404     0.13431541
 C     65  64  60     1.761263761508    90.95918114   175.44628423
 C     66  65  64     1.384205555111   111.41936783     3.06037778
 C     66  65  64     1.411159911704   122.08293239   180.36620962
 C     68  66  65     1.363088496980   128.72857001    19.60408195
 C     69  68  66     1.445907581037   131.92265302    14.78595589
 C     70  69  68     1.371319527645   126.10506979    33.58791276
 C     71  70  69     1.406942889815   124.36973824   178.78339283
 N     72  71  70     1.148673241005   175.91433580   144.27639919
 C     71  70  69     1.410806208591   123.05826095     2.24838763
 N     74  71  70     1.148233011936   176.42189630   125.30456704
 C     70  69  68     1.460948728395   107.20858639   200.52920715
 C     76  70  69     1.384778488748   131.36772812   171.35784526
 C     77  76  70     1.388764084681   118.35916571   177.12402007
 C     78  77  76     1.387609475213   121.42332024   359.61197726
 C     79  78  77     1.388319220172   120.62170879     0.65317096
 C     80  79  78     1.381032428801   118.22578525   359.79411116
 C     81  80  79     1.479023356137   129.07681406   178.88643505
 O     82  81  80     1.209702547695   128.05131089     3.46107741
 H      4   3   1     1.079124323005   120.13051713   358.40925532
 H      5   4   3     1.079615326355   119.77412062   179.93695885
 H      6   5   4     1.079754886768   119.47518757   180.53558127
 H      7   6   5     1.078464305343   120.27097427   180.27342578
 H     16  15   9     1.086176637661   114.74724404   186.78131084
 H     21  17  16     1.074518014042   122.76128677     5.75324001
 H     26  25  24     1.095913398495   106.29333708   332.47491681
 H     26  25  24     1.090904550224   108.56015215   217.42844301
 H     27  26  25     1.090813465905   109.56163891    76.32827457
 H     28  27  26     1.090574117885   108.41088945   174.09222203
 H     28  27  26     1.092782444497   109.01286526    57.44996476
 H     29  28  27     1.088598889628   110.90144358   303.72698969
 H     29  28  27     1.086935801508   109.68822073   184.45346215
 H     29  28  27     1.086907718484   111.66527054    65.20256277
 H     30  27  26     1.091537347277   109.88706548    39.47415990
 H     30  27  26     1.090812287564   109.35502989   281.20320033
 H     31  30  27     1.091495975393   110.31481487    54.34515742
 H     31  30  27     1.092508679599   109.18923323   296.17404114
 H     32  31  30     1.092582006716   109.37032939    58.06112268
 H     32  31  30     1.092491952053   109.26427691   300.53022445
 H     33  32  31     1.087969901836   110.57213889   300.16583502
 H     33  32  31     1.087122044897   110.62982852   180.11232442
 H     33  32  31     1.087970207037   110.51890082    60.08998521
 H     39  38  37     1.092401732560   108.04358646   317.18857740
 H     39  38  37     1.091630245138   107.17513592   198.56796210
 H     40  39  38     1.094814054943   107.37732089   295.92625109
 H     41  40  39     1.090659028936   109.66324381   136.47554155
 H     41  40  39     1.092311677773   109.50999273    19.01599433
 H     42  41  40     1.088035473227   110.54921068   298.35236984
 H     42  41  40     1.087672750831   110.34733427   178.44603190
 H     42  41  40     1.087402785126   111.33787707    58.48263882
 H     43  40  39     1.092672165153   109.17513218    42.63867251
 H     43  40  39     1.092363322068   109.25905087   285.30674943
 H     44  43  40     1.091453991609   110.00842029    57.40254446
 H     44  43  40     1.092344667676   109.12057752   299.65849394
 H     45  44  43     1.092395211176   109.30269158    58.14062477
 H     45  44  43     1.092425090613   109.28187976   300.64692916
 H     46  45  44     1.087793199970   110.51650768   300.01528100
 H     46  45  44     1.087337602173   110.63629604   179.95528011
 H     46  45  44     1.087859736639   110.54320251    59.88792409
 H     52  51  50     1.086632955050   110.47711883   303.35677523
 H     52  51  50     1.094199952203   106.02625803   187.54758692
 H     53  52  51     1.095848175844   108.59372338   287.86787116
 H     54  53  52     1.090464281167   108.78083727   144.65382373
 H     54  53  52     1.089352692474   110.29395826    28.48783579
 H     55  54  53     1.088512942045   110.37567797   299.75260894
 H     55  54  53     1.087114115353   109.72188419   180.47764257
 H     55  54  53     1.086604538689   112.07468502    60.42866145
 H     56  53  52     1.093572694657   109.58487294    41.19195523
 H     56  53  52     1.092496455097   108.71335094   284.30400059
 H     57  56  53     1.090912078309   110.19424221    56.82410139
 H     57  56  53     1.092376259445   109.41702382   298.68026168
 H     58  57  56     1.092899145850   109.29075096    56.83889175
 H     58  57  56     1.091040050869   109.06139180   299.11444423
 H     59  58  57     1.088635926010   110.66255671   300.13491593
 H     59  58  57     1.087091983827   110.56140806   179.99194646
 H     59  58  57     1.087550453083   110.45084095    60.12238723
 H     67  66  65     1.074495091147   122.71878858   179.55014141
 H     68  66  65     1.085721434117   115.64300327   204.52948251
 H     77  76  70     1.078462223214   121.36854518   356.42562837
 H     78  77  76     1.079728896992   119.09561131   179.74081778
 H     79  78  77     1.079601841838   119.60447911   180.58072524
 H     80  79  78     1.079085016391   121.64329137   179.91370402

---------------------------
INTERNAL COORDINATES (A.U.)
---------------------------
 C      0   0   0     0.000000000000     0.00000000     0.00000000
 O      1   0   0     2.286200633863     0.00000000     0.00000000
 C      1   2   0     2.794990472304   128.03963517     0.00000000
 C      3   1   2     2.609629953300   129.06234195     3.68297751
 C      4   3   1     2.623534401071   118.22201135   178.47399234
 C      5   4   3     2.621983512675   120.60784816   359.82509182
 C      6   5   4     2.624715379232   121.43933786     0.65398518
 C      7   6   5     2.616573051645   118.35544520   359.58328870
 C      8   7   6     2.762208764020   131.45782760   177.27212240
 C      9   8   7     2.590923839825   125.40789642   337.95925618
 C     10   9   8     2.666116045799   122.73849669   198.77309115
 N     11  10   9     2.169553366050   176.17757840   117.13845628
 C     10   9   8     2.659883918303   124.11292519    14.56150908
 N     13  10   9     2.170337452150   176.23217877   138.63829436
 C      9   8   7     2.729612808879   107.17192121   170.66087660
 C     15   9   8     2.577176600165   132.44424440   203.96107330
 C     16  15   9     2.661958617800   130.18244432    14.46540610
 S     17  16  15     3.323853254941   123.31841238     9.79433570
 C     18  17  16     3.254835085179    91.40696937   175.16429022
 C     19  18  17     2.659046876463   110.90217467   359.54003613
 C     17  16  15     2.620803406093   125.23620608   182.83981070
 S     20  19  18     3.301395412135   113.29316596   179.03715616
 C     22  20  19     3.269531683876    88.94906997   359.07573397
 C     19  18  17     2.641134690715   137.22593019   177.83733161
 N     24  19  18     2.591780326731   138.23175740   356.16961799
 C     25  24  19     2.730487070665   118.22852361   354.40288372
 C     26  25  24     2.920869744732   116.06782657    91.97764581
 C     27  26  25     2.900161824221   108.64095570   194.68299887
 C     28  27  26     2.881514282324   114.32558034   294.92021804
 C     27  26  25     2.899130041007   112.69777723   317.38340988
 C     30  27  26     2.885797058683   112.86847049   159.66565956
 C     31  30  27     2.884845745720   111.73726059   175.66039615
 C     32  31  30     2.879358996419   111.60140738   179.33864348
 C     25  24  19     2.625623295738   107.94527759   187.84940125
 C     23  22  20     2.638823936094   138.47339679   188.27562805
 C     35  23  22     2.661439555891   130.25256668     1.63039672
 N     36  35  23     2.522432955506   132.86893024   352.59215361
 N     37  36  35     2.474102299498   103.92657583   175.87712365
 C     38  37  36     2.701518709192   121.81746732   182.52703951
 C     39  38  37     2.908617454199   111.25626162    77.98077478
 C     40  39  38     2.907998795186   110.65591329    54.74369017
 C     41  40  39     2.882214749268   112.63840448   257.43380181
 C     40  39  38     2.896328292895   108.89104311   178.65827858
 C     43  40  39     2.886068322651   112.64363419   163.15410474
 C     44  43  40     2.885408914803   111.84184802   178.70107221
 C     45  44  43     2.879283306349   111.77987106   179.39751565
 N     38  37  36     2.474049265758   116.64587576   359.81547561
 C     47  38  37     2.522224488492   103.97365429     0.18672507
 C     48  47  38     2.659934596664   132.96633771   177.49997046
 C     34  25  24     2.690382703486   133.83358994   175.51355382
 N     50  34  25     2.626923375679   133.74994040     9.76059156
 C     51  50  34     2.727420747915   132.01114173    25.39379550
 C     52  51  50     2.918888719987   115.12814022    68.16995644
 C     53  52  51     2.903782595890   113.32599917    47.94168129
 C     54  53  52     2.881118595090   113.72162214   264.83936915
 C     53  52  51     2.904591773099   106.93747985   170.10324333
 C     56  53  52     2.884321315212   113.85816833   162.41162564
 C     57  56  53     2.884867964787   111.48450888   177.78901763
 C     58  57  56     2.878713193684   111.59493663   177.94942154
 C     51  50  34     2.586091922481   107.79006871   185.47747979
 C     49  48  47     2.641788201000   130.73804346   359.29766062
 S     61  49  48     3.271391670809   139.29339985     2.70614034
 C     62  61  49     3.302949338181    89.15402406   183.45728566
 C     60  51  50     2.637709539466   137.76347033   181.46638228
 S     64  60  51     3.256481879426   136.62284404     0.13431541
 C     65  64  60     3.328306158849    90.95918114   175.44628423
 C     66  65  64     2.615769412212   111.41936783     3.06037778
 C     66  65  64     2.666705764289   122.08293239   180.36620962
 C     68  66  65     2.575863955591   128.72857001    19.60408195
 C     69  68  66     2.732369343120   131.92265302    14.78595589
 C     70  69  68     2.591418349347   126.10506979    33.58791276
 C     71  70  69     2.658736747817   124.36973824   178.78339283
 N     72  71  70     2.170677842862   175.91433580   144.27639919
 C     71  70  69     2.666037362273   123.05826095     2.24838763
 N     74  71  70     2.169845930487   176.42189630   125.30456704
 C     70  69  68     2.760792992368   107.20858639   200.52920715
 C     76  70  69     2.616852099880   131.36772812   171.35784526
 C     77  76  70     2.624383784673   118.35916571   177.12402007
 C     78  77  76     2.622201888986   121.42332024   359.61197726
 C     79  78  77     2.623543112585   120.62170879     0.65317096
 C     80  79  78     2.609773072498   118.22578525   359.79411116
 C     81  80  79     2.794949088773   129.07681406   178.88643505
 O     82  81  80     2.286006518651   128.05131089     3.46107741
 H      4   3   1     2.039249434932   120.13051713   358.40925532
 H      5   4   3     2.040177296794   119.77412062   179.93695885
 H      6   5   4     2.040441027755   119.47518757   180.53558127
 H      7   6   5     2.038002182309   120.27097427   180.27342578
 H     16  15   9     2.052576378242   114.74724404   186.78131084
 H     21  17  16     2.030544772504   122.76128677     5.75324001
 H     26  25  24     2.070976189650   106.29333708   332.47491681
 H     26  25  24     2.061510838172   108.56015215   217.42844301
 H     27  26  25     2.061338713754   109.56163891    76.32827457
 H     28  27  26     2.060886411545   108.41088945   174.09222203
 H     28  27  26     2.065059544056   109.01286526    57.44996476
 H     29  28  27     2.057153771088   110.90144358   303.72698969
 H     29  28  27     2.054010990004   109.68822073   184.45346215
 H     29  28  27     2.053957920780   111.66527054    65.20256277
 H     30  27  26     2.062706651300   109.88706548    39.47415990
 H     30  27  26     2.061336487012   109.35502989   281.20320033
 H     31  30  27     2.062628469771   110.31481487    54.34515742
 H     31  30  27     2.064542203375   109.18923323   296.17404114
 H     32  31  30     2.064680771544   109.37032939    58.06112268
 H     32  31  30     2.064510592893   109.26427691   300.53022445
 H     33  32  31     2.055965156418   110.57213889   300.16583502
 H     33  32  31     2.054362939003   110.62982852   180.11232442
 H     33  32  31     2.055965733165   110.51890082    60.08998521
 H     39  38  37     2.064340102759   108.04358646   317.18857740
 H     39  38  37     2.062882202816   107.17513592   198.56796210
 H     40  39  38     2.068898731409   107.37732089   295.92625109
 H     41  40  39     2.061046870178   109.66324381   136.47554155
 H     41  40  39     2.064169923876   109.50999273    19.01599433
 H     42  41  40     2.056089068390   110.54921068   298.35236984
 H     42  41  40     2.055403622399   110.34733427   178.44603190
 H     42  41  40     2.054893461152   111.33787707    58.48263882
 H     43  40  39     2.064851146298   109.17513218    42.63867251
 H     43  40  39     2.064267517449   109.25905087   285.30674943
 H     44  43  40     2.062549131917   110.00842029    57.40254446
 H     44  43  40     2.064232265757   109.12057752   299.65849394
 H     45  44  43     2.064327779129   109.30269158    58.14062477
 H     45  44  43     2.064384243082   109.28187976   300.64692916
 H     46  45  44     2.055631238284   110.51650768   300.01528100
 H     46  45  44     2.054770283222   110.63629604   179.95528011
 H     46  45  44     2.055756974367   110.54320251    59.88792409
 H     52  51  50     2.053438693137   110.47711883   303.35677523
 H     52  51  50     2.067738245412   106.02625803   187.54758692
 H     53  52  51     2.070852936702   108.59372338   287.86787116
 H     54  53  52     2.060678850228   108.78083727   144.65382373
 H     54  53  52     2.058578252025   110.29395826    28.48783579
 H     55  54  53     2.056991353694   110.37567797   299.75260894
 H     55  54  53     2.054347954337   109.72188419   180.47764257
 H     55  54  53     2.053384993998   112.07468502    60.42866145
 H     56  53  52     2.066552900437   109.58487294    41.19195523
 H     56  53  52     2.064519102414   108.71335094   284.30400059
 H     57  56  53     2.061525064190   110.19424221    56.82410139
 H     57  56  53     2.064291965549   109.41702382   298.68026168
 H     58  57  56     2.065280077653   109.29075096    56.83889175
 H     58  57  56     2.061766897282   109.06139180   299.11444423
 H     59  58  57     2.057223759707   110.66255671   300.13491593
 H     59  58  57     2.054306131813   110.56140806   179.99194646
 H     59  58  57     2.055172513148   110.45084095    60.12238723
 H     67  66  65     2.030501454511   122.71878858   179.55014141
 H     68  66  65     2.051716168208   115.64300327   204.52948251
 H     77  76  70     2.037998247655   121.36854518   356.42562837
 H     78  77  76     2.040391914196   119.09561131   179.74081778
 H     79  78  77     2.040151814751   119.60447911   180.58072524
 H     80  79  78     2.039175156197   121.64329137   179.91370402

---------------------
BASIS SET INFORMATION
---------------------
There are 5 groups of distinct atoms

 Group   1 Type C   : 11s6p2d1f contracted to 5s3p2d1f pattern {62111/411/11/1}
 Group   2 Type O   : 11s6p2d1f contracted to 5s3p2d1f pattern {62111/411/11/1}
 Group   3 Type N   : 11s6p2d1f contracted to 5s3p2d1f pattern {62111/411/11/1}
 Group   4 Type S   : 14s9p3d1f contracted to 5s5p2d1f pattern {73211/51111/21/1}
 Group   5 Type H   : 5s1p contracted to 3s1p pattern {311/1}

Atom   0C    basis set group =>   1
Atom   1O    basis set group =>   2
Atom   2C    basis set group =>   1
Atom   3C    basis set group =>   1
Atom   4C    basis set group =>   1
Atom   5C    basis set group =>   1
Atom   6C    basis set group =>   1
Atom   7C    basis set group =>   1
Atom   8C    basis set group =>   1
Atom   9C    basis set group =>   1
Atom  10C    basis set group =>   1
Atom  11N    basis set group =>   3
Atom  12C    basis set group =>   1
Atom  13N    basis set group =>   3
Atom  14C    basis set group =>   1
Atom  15C    basis set group =>   1
Atom  16C    basis set group =>   1
Atom  17S    basis set group =>   4
Atom  18C    basis set group =>   1
Atom  19C    basis set group =>   1
Atom  20C    basis set group =>   1
Atom  21S    basis set group =>   4
Atom  22C    basis set group =>   1
Atom  23C    basis set group =>   1
Atom  24N    basis set group =>   3
Atom  25C    basis set group =>   1
Atom  26C    basis set group =>   1
Atom  27C    basis set group =>   1
Atom  28C    basis set group =>   1
Atom  29C    basis set group =>   1
Atom  30C    basis set group =>   1
Atom  31C    basis set group =>   1
Atom  32C    basis set group =>   1
Atom  33C    basis set group =>   1
Atom  34C    basis set group =>   1
Atom  35C    basis set group =>   1
Atom  36N    basis set group =>   3
Atom  37N    basis set group =>   3
Atom  38C    basis set group =>   1
Atom  39C    basis set group =>   1
Atom  40C    basis set group =>   1
Atom  41C    basis set group =>   1
Atom  42C    basis set group =>   1
Atom  43C    basis set group =>   1
Atom  44C    basis set group =>   1
Atom  45C    basis set group =>   1
Atom  46N    basis set group =>   3
Atom  47C    basis set group =>   1
Atom  48C    basis set group =>   1
Atom  49C    basis set group =>   1
Atom  50N    basis set group =>   3
Atom  51C    basis set group =>   1
Atom  52C    basis set group =>   1
Atom  53C    basis set group =>   1
Atom  54C    basis set group =>   1
Atom  55C    basis set group =>   1
Atom  56C    basis set group =>   1
Atom  57C    basis set group =>   1
Atom  58C    basis set group =>   1
Atom  59C    basis set group =>   1
Atom  60C    basis set group =>   1
Atom  61S    basis set group =>   4
Atom  62C    basis set group =>   1
Atom  63C    basis set group =>   1
Atom  64S    basis set group =>   4
Atom  65C    basis set group =>   1
Atom  66C    basis set group =>   1
Atom  67C    basis set group =>   1
Atom  68C    basis set group =>   1
Atom  69C    basis set group =>   1
Atom  70C    basis set group =>   1
Atom  71C    basis set group =>   1
Atom  72N    basis set group =>   3
Atom  73C    basis set group =>   1
Atom  74N    basis set group =>   3
Atom  75C    basis set group =>   1
Atom  76C    basis set group =>   1
Atom  77C    basis set group =>   1
Atom  78C    basis set group =>   1
Atom  79C    basis set group =>   1
Atom  80C    basis set group =>   1
Atom  81C    basis set group =>   1
Atom  82O    basis set group =>   2
Atom  83H    basis set group =>   5
Atom  84H    basis set group =>   5
Atom  85H    basis set group =>   5
Atom  86H    basis set group =>   5
Atom  87H    basis set group =>   5
Atom  88H    basis set group =>   5
Atom  89H    basis set group =>   5
Atom  90H    basis set group =>   5
Atom  91H    basis set group =>   5
Atom  92H    basis set group =>   5
Atom  93H    basis set group =>   5
Atom  94H    basis set group =>   5
Atom  95H    basis set group =>   5
Atom  96H    basis set group =>   5
Atom  97H    basis set group =>   5
Atom  98H    basis set group =>   5
Atom  99H    basis set group =>   5
Atom 100H    basis set group =>   5
Atom 101H    basis set group =>   5
Atom 102H    basis set group =>   5
Atom 103H    basis set group =>   5
Atom 104H    basis set group =>   5
Atom 105H    basis set group =>   5
Atom 106H    basis set group =>   5
Atom 107H    basis set group =>   5
Atom 108H    basis set group =>   5
Atom 109H    basis set group =>   5
Atom 110H    basis set group =>   5
Atom 111H    basis set group =>   5
Atom 112H    basis set group =>   5
Atom 113H    basis set group =>   5
Atom 114H    basis set group =>   5
Atom 115H    basis set group =>   5
Atom 116H    basis set group =>   5
Atom 117H    basis set group =>   5
Atom 118H    basis set group =>   5
Atom 119H    basis set group =>   5
Atom 120H    basis set group =>   5
Atom 121H    basis set group =>   5
Atom 122H    basis set group =>   5
Atom 123H    basis set group =>   5
Atom 124H    basis set group =>   5
Atom 125H    basis set group =>   5
Atom 126H    basis set group =>   5
Atom 127H    basis set group =>   5
Atom 128H    basis set group =>   5
Atom 129H    basis set group =>   5
Atom 130H    basis set group =>   5
Atom 131H    basis set group =>   5
Atom 132H    basis set group =>   5
Atom 133H    basis set group =>   5
Atom 134H    basis set group =>   5
Atom 135H    basis set group =>   5
Atom 136H    basis set group =>   5
Atom 137H    basis set group =>   5
Atom 138H    basis set group =>   5
Atom 139H    basis set group =>   5
Atom 140H    basis set group =>   5
Atom 141H    basis set group =>   5
Atom 142H    basis set group =>   5
Atom 143H    basis set group =>   5
Atom 144H    basis set group =>   5
Atom 145H    basis set group =>   5
---------------------------------
AUXILIARY/J BASIS SET INFORMATION
---------------------------------
There are 5 groups of distinct atoms

 Group   1 Type C   : 12s5p4d2f1g contracted to 6s4p3d1f1g pattern {711111/2111/211/2/1}
 Group   2 Type O   : 12s5p4d2f1g contracted to 6s4p3d1f1g pattern {711111/2111/211/2/1}
 Group   3 Type N   : 12s5p4d2f1g contracted to 6s4p3d1f1g pattern {711111/2111/211/2/1}
 Group   4 Type S   : 14s5p5d2f1g contracted to 8s4p3d1f1g pattern {71111111/2111/311/2/1}
 Group   5 Type H   : 5s2p1d contracted to 3s1p1d pattern {311/2/1}

Atom   0C    basis set group =>   1
Atom   1O    basis set group =>   2
Atom   2C    basis set group =>   1
Atom   3C    basis set group =>   1
Atom   4C    basis set group =>   1
Atom   5C    basis set group =>   1
Atom   6C    basis set group =>   1
Atom   7C    basis set group =>   1
Atom   8C    basis set group =>   1
Atom   9C    basis set group =>   1
Atom  10C    basis set group =>   1
Atom  11N    basis set group =>   3
Atom  12C    basis set group =>   1
Atom  13N    basis set group =>   3
Atom  14C    basis set group =>   1
Atom  15C    basis set group =>   1
Atom  16C    basis set group =>   1
Atom  17S    basis set group =>   4
Atom  18C    basis set group =>   1
Atom  19C    basis set group =>   1
Atom  20C    basis set group =>   1
Atom  21S    basis set group =>   4
Atom  22C    basis set group =>   1
Atom  23C    basis set group =>   1
Atom  24N    basis set group =>   3
Atom  25C    basis set group =>   1
Atom  26C    basis set group =>   1
Atom  27C    basis set group =>   1
Atom  28C    basis set group =>   1
Atom  29C    basis set group =>   1
Atom  30C    basis set group =>   1
Atom  31C    basis set group =>   1
Atom  32C    basis set group =>   1
Atom  33C    basis set group =>   1
Atom  34C    basis set group =>   1
Atom  35C    basis set group =>   1
Atom  36N    basis set group =>   3
Atom  37N    basis set group =>   3
Atom  38C    basis set group =>   1
Atom  39C    basis set group =>   1
Atom  40C    basis set group =>   1
Atom  41C    basis set group =>   1
Atom  42C    basis set group =>   1
Atom  43C    basis set group =>   1
Atom  44C    basis set group =>   1
Atom  45C    basis set group =>   1
Atom  46N    basis set group =>   3
Atom  47C    basis set group =>   1
Atom  48C    basis set group =>   1
Atom  49C    basis set group =>   1
Atom  50N    basis set group =>   3
Atom  51C    basis set group =>   1
Atom  52C    basis set group =>   1
Atom  53C    basis set group =>   1
Atom  54C    basis set group =>   1
Atom  55C    basis set group =>   1
Atom  56C    basis set group =>   1
Atom  57C    basis set group =>   1
Atom  58C    basis set group =>   1
Atom  59C    basis set group =>   1
Atom  60C    basis set group =>   1
Atom  61S    basis set group =>   4
Atom  62C    basis set group =>   1
Atom  63C    basis set group =>   1
Atom  64S    basis set group =>   4
Atom  65C    basis set group =>   1
Atom  66C    basis set group =>   1
Atom  67C    basis set group =>   1
Atom  68C    basis set group =>   1
Atom  69C    basis set group =>   1
Atom  70C    basis set group =>   1
Atom  71C    basis set group =>   1
Atom  72N    basis set group =>   3
Atom  73C    basis set group =>   1
Atom  74N    basis set group =>   3
Atom  75C    basis set group =>   1
Atom  76C    basis set group =>   1
Atom  77C    basis set group =>   1
Atom  78C    basis set group =>   1
Atom  79C    basis set group =>   1
Atom  80C    basis set group =>   1
Atom  81C    basis set group =>   1
Atom  82O    basis set group =>   2
Atom  83H    basis set group =>   5
Atom  84H    basis set group =>   5
Atom  85H    basis set group =>   5
Atom  86H    basis set group =>   5
Atom  87H    basis set group =>   5
Atom  88H    basis set group =>   5
Atom  89H    basis set group =>   5
Atom  90H    basis set group =>   5
Atom  91H    basis set group =>   5
Atom  92H    basis set group =>   5
Atom  93H    basis set group =>   5
Atom  94H    basis set group =>   5
Atom  95H    basis set group =>   5
Atom  96H    basis set group =>   5
Atom  97H    basis set group =>   5
Atom  98H    basis set group =>   5
Atom  99H    basis set group =>   5
Atom 100H    basis set group =>   5
Atom 101H    basis set group =>   5
Atom 102H    basis set group =>   5
Atom 103H    basis set group =>   5
Atom 104H    basis set group =>   5
Atom 105H    basis set group =>   5
Atom 106H    basis set group =>   5
Atom 107H    basis set group =>   5
Atom 108H    basis set group =>   5
Atom 109H    basis set group =>   5
Atom 110H    basis set group =>   5
Atom 111H    basis set group =>   5
Atom 112H    basis set group =>   5
Atom 113H    basis set group =>   5
Atom 114H    basis set group =>   5
Atom 115H    basis set group =>   5
Atom 116H    basis set group =>   5
Atom 117H    basis set group =>   5
Atom 118H    basis set group =>   5
Atom 119H    basis set group =>   5
Atom 120H    basis set group =>   5
Atom 121H    basis set group =>   5
Atom 122H    basis set group =>   5
Atom 123H    basis set group =>   5
Atom 124H    basis set group =>   5
Atom 125H    basis set group =>   5
Atom 126H    basis set group =>   5
Atom 127H    basis set group =>   5
Atom 128H    basis set group =>   5
Atom 129H    basis set group =>   5
Atom 130H    basis set group =>   5
Atom 131H    basis set group =>   5
Atom 132H    basis set group =>   5
Atom 133H    basis set group =>   5
Atom 134H    basis set group =>   5
Atom 135H    basis set group =>   5
Atom 136H    basis set group =>   5
Atom 137H    basis set group =>   5
Atom 138H    basis set group =>   5
Atom 139H    basis set group =>   5
Atom 140H    basis set group =>   5
Atom 141H    basis set group =>   5
Atom 142H    basis set group =>   5
Atom 143H    basis set group =>   5
Atom 144H    basis set group =>   5
Atom 145H    basis set group =>   5
------------------------------------------------------------------------------
                           ORCA GTO INTEGRAL CALCULATION
                           -- RI-GTO INTEGRALS CHOSEN --
------------------------------------------------------------------------------

                         BASIS SET STATISTICS AND STARTUP INFO

Gaussian basis set:
 # of primitive gaussian shells          ... 2066
 # of primitive gaussian functions       ... 4390
 # of contracted shells                  ... 1173
 # of contracted basis functions         ... 2975
 Highest angular momentum                ...    3
 Maximum contraction depth               ...    7
Auxiliary gaussian basis set:
 # of primitive gaussian shells          ... 2508
 # of primitive gaussian functions       ... 6846
 # of contracted shells                  ... 1568
 # of contracted aux-basis functions     ... 4768
 Highest angular momentum                ...    4
 Maximum contraction depth               ...    7
Ratio of auxiliary to basis functions    ...  1.60
Integral package used                  ... LIBINT
 One Electron integrals                  ... done
 Ordering auxiliary basis shells         ... done
 Integral threshhold             Thresh  ...  2.500e-11
 Primitive cut-off               TCut    ...  2.500e-12
 Pre-screening matrix                    ... done
 Shell pair data                         ... 
 Ordering of the shell pairs             ... done (   0.055 sec) 232688 of 688551 pairs
 Determination of significant pairs      ... done (   0.001 sec)
 Creation of shell pair data             ... done (   0.027 sec)
 Storage of shell pair data              ... done (   0.034 sec)
 Shell pair data done in (   0.117 sec)
 Computing two index integrals           ... done
 Cholesky decomposition of the V-matrix  ... done


Timings:
 Total evaluation time                   ...  10.699 sec (  0.178 min)
 One electron matrix time                ...   4.283 sec (  0.071 min) = 40.0%
 Schwartz matrix evaluation time         ...   4.875 sec (  0.081 min) = 45.6%
 Two index repulsion integral time       ...   0.564 sec (  0.009 min) =  5.3%
 Cholesky decomposition of V             ...   0.843 sec (  0.014 min) =  7.9%
 Three index repulsion integral time     ...   0.000 sec (  0.000 min) =  0.0%

-------------------------------------------------------------------------------
                                 ORCA SCF
-------------------------------------------------------------------------------

------------
SCF SETTINGS
------------
Hamiltonian:
 Density Functional     Method          .... DFT(GTOs)
 Exchange Functional    Exchange        .... B88
   X-Alpha parameter    XAlpha          ....  0.666667
   Becke's b parameter  XBeta           ....  0.004200
 Correlation Functional Correlation     .... LYP
 LDA part of GGA corr.  LDAOpt          .... VWN-5
 Gradients option       PostSCFGGA      .... off
 Hybrid DFT is turned on
   Fraction HF Exchange ScalHFX         ....  0.200000
   Scaling of DF-GGA-X  ScalDFX         ....  0.720000
   Scaling of DF-GGA-C  ScalDFC         ....  0.810000
   Scaling of DF-LDA-C  ScalLDAC        ....  1.000000
   Perturbative correction              ....  0.000000
   Density functional embedding theory  .... OFF
   NL short-range parameter             ....  4.800000
 RI-approximation to the Coulomb term is turned on
   Number of auxiliary basis functions  .... 4768
   RIJ-COSX (HFX calculated with COS-X)).... on


General Settings:
 Integral files         IntName         .... Y1
 Hartree-Fock type      HFTyp           .... RHF
 Total Charge           Charge          ....    0
 Multiplicity           Mult            ....    1
 Number of Electrons    NEL             ....  614
 Basis Dimension        Dim             .... 2975
 Nuclear Repulsion      ENuc            ....  15040.0252239271 Eh

Convergence Acceleration:
 DIIS                   CNVDIIS         .... on
   Start iteration      DIISMaxIt       ....    12
   Startup error        DIISStart       ....  0.200000
   # of expansion vecs  DIISMaxEq       ....     5
   Bias factor          DIISBfac        ....   1.050
   Max. coefficient     DIISMaxC        ....  10.000
 Newton-Raphson         CNVNR           .... off
 SOSCF                  CNVSOSCF        .... on
   Start iteration      SOSCFMaxIt      ....   150
   Startup grad/error   SOSCFStart      ....  0.003300
 Level Shifting         CNVShift        .... on
   Level shift para.    LevelShift      ....    0.2500
   Turn off err/grad.   ShiftErr        ....    0.0010
 Zerner damping         CNVZerner       .... off
 Static damping         CNVDamp         .... on
   Fraction old density DampFac         ....    0.7000
   Max. Damping (<1)    DampMax         ....    0.9800
   Min. Damping (>=0)   DampMin         ....    0.0000
   Turn off err/grad.   DampErr         ....    0.1000
 Fernandez-Rico         CNVRico         .... off

SCF Procedure:
 Maximum # iterations   MaxIter         ....   125
 SCF integral mode      SCFMode         .... Direct
   Integral package                     .... LIBINT
 Reset frequency        DirectResetFreq ....    20
 Integral Threshold     Thresh          ....  2.500e-11 Eh
 Primitive CutOff       TCut            ....  2.500e-12 Eh

Convergence Tolerance:
 Convergence Check Mode ConvCheckMode   .... Total+1el-Energy
 Convergence forced     ConvForced      .... 1
 Energy Change          TolE            ....  1.000e-08 Eh
 1-El. energy change                    ....  1.000e-05 Eh
 Orbital Gradient       TolG            ....  1.000e-05
 Orbital Rotation angle TolX            ....  1.000e-05
 DIIS Error             TolErr          ....  5.000e-07


Diagonalization of the overlap matrix:
Smallest eigenvalue                        ... 1.702e-06
Time for diagonalization                   ...    6.355 sec
Threshold for overlap eigenvalues          ... 1.000e-08
Number of eigenvalues below threshold      ... 0
Time for construction of square roots      ...    1.828 sec
Total time needed                          ...    8.206 sec

-------------------
DFT GRID GENERATION
-------------------

General Integration Accuracy     IntAcc      ...  4.670
Radial Grid Type                 RadialGrid  ... Gauss-Chebyshev
Angular Grid (max. acc.)         AngularGrid ... Lebedev-302
Angular grid pruning method      GridPruning ... 3 (G Style)
Weight generation scheme         WeightScheme... Becke
Basis function cutoff            BFCut       ...    1.0000e-11
Integration weight cutoff        WCut        ...    1.0000e-14
Grids for H and He will be reduced by one unit

# of grid points (after initial pruning)     ... 731954 (   2.7 sec)
# of grid points (after weights+screening)   ... 609336 (  53.2 sec)
nearest neighbour list constructed           ...    0.0 sec
Grid point re-assignment to atoms done       ...    0.1 sec
Grid point division into batches done        ...    2.0 sec
Reduced shell lists constructed in   27.3 sec

Total number of grid points                  ...   609336
Total number of batches                      ...     9591
Average number of points per batch           ...       63
Average number of grid points per atom       ...     4174
Average number of shells per batch           ...   202.82 (17.29%)
Average number of basis functions per batch  ...   473.70 (15.92%)
Average number of large shells per batch     ...   113.08 (55.75%)
Average number of large basis fcns per batch ...   271.60 (57.33%)
Maximum spatial batch extension              ...  20.77, 20.64, 24.46 au
Average spatial batch extension              ...   1.95,  1.96,  2.08 au

Time for grid setup =   83.211 sec

------------------------------
INITIAL GUESS: MODEL POTENTIAL
------------------------------
Loading Hartree-Fock densities                     ... done
Calculating cut-offs                               ... done
Setting up the integral package                    ... done
Initializing the effective Hamiltonian             ... done
Starting the Coulomb interaction                   ... done (  54.8 sec)
Reading the grid                                   ... done
Mapping shells                                     ... done
Starting the XC term evaluation                    ... done (  42.0 sec)
  promolecular density results
     # of electrons  =    613.967627831
     EX              =   -544.506768087
     EC              =    -21.350610532
     EX+EC           =   -565.857378619
Transforming the Hamiltonian                       ... done (   1.8 sec)
Diagonalizing the Hamiltonian                      ... done (   5.8 sec)
Back transforming the eigenvectors                 ... done (   0.8 sec)
Now organizing SCF variables                       ... done
                      ------------------
                      INITIAL GUESS DONE ( 189.5 sec)
                      ------------------
--------------------
COSX GRID GENERATION
--------------------

General Integration Accuracy     IntAcc      ...  3.340
Radial Grid Type                 RadialGrid  ... Gauss-Chebyshev
Angular Grid (max. acc.)         AngularGrid ... Lebedev-50
Angular grid pruning method      GridPruning ... 3 (G Style)
Weight generation scheme         WeightScheme... Becke
Basis function cutoff            BFCut       ...    1.0000e-11
Integration weight cutoff        WCut        ...    1.0000e-14
Grids for H and He will be reduced by one unit

# of grid points (after initial pruning)     ...  68678 (   0.1 sec)
# of grid points (after weights+screening)   ...  59889 (   5.0 sec)
nearest neighbour list constructed           ...    0.0 sec
Grid point re-assignment to atoms done       ...    0.0 sec
Grid point division into batches done        ...    0.0 sec
Reduced shell lists constructed in    3.8 sec

Total number of grid points                  ...    59889
Total number of batches                      ...     1006
Average number of points per batch           ...       59
Average number of grid points per atom       ...      410
Average number of shells per batch           ...   247.66 (21.11%)
Average number of basis functions per batch  ...   586.88 (19.73%)
Average number of large shells per batch     ...   138.94 (56.10%)
Average number of large basis fcns per batch ...   338.93 (57.75%)
Maximum spatial batch extension              ...  20.68, 20.46, 21.42 au
Average spatial batch extension              ...   3.93,  4.11,  4.75 au

Overlap Fitting                  UseSFitting ... on
Constructing numerical overlap ... done (      3.7 sec)
Inverting numerical overlap    ... done (      0.6 sec)
Obtaining analytic overlap     ... done (      0.0 sec)
Final contraction and storage  ... done (      0.9 sec)


General Integration Accuracy     IntAcc      ...  3.670
Radial Grid Type                 RadialGrid  ... Gauss-Chebyshev
Angular Grid (max. acc.)         AngularGrid ... Lebedev-50
Angular grid pruning method      GridPruning ... 3 (G Style)
Weight generation scheme         WeightScheme... Becke
Basis function cutoff            BFCut       ...    1.0000e-11
Integration weight cutoff        WCut        ...    1.0000e-14
Grids for H and He will be reduced by one unit

# of grid points (after initial pruning)     ...  86770 (   0.2 sec)
# of grid points (after weights+screening)   ...  75366 (   6.3 sec)
nearest neighbour list constructed           ...    0.0 sec
Grid point re-assignment to atoms done       ...    0.0 sec
Grid point division into batches done        ...    0.0 sec
Reduced shell lists constructed in    4.7 sec

Total number of grid points                  ...    75366
Total number of batches                      ...     1249
Average number of points per batch           ...       60
Average number of grid points per atom       ...      516
Average number of shells per batch           ...   242.14 (20.64%)
Average number of basis functions per batch  ...   572.25 (19.24%)
Average number of large shells per batch     ...   134.96 (55.74%)
Average number of large basis fcns per batch ...   328.05 (57.33%)
Maximum spatial batch extension              ...  22.63, 22.75, 23.37 au
Average spatial batch extension              ...   3.63,  3.79,  4.38 au

Overlap Fitting                  UseSFitting ... on
Constructing numerical overlap ... done (      4.5 sec)
Inverting numerical overlap    ... done (      0.6 sec)
Obtaining analytic overlap     ... done (      0.0 sec)
Final contraction and storage  ... done (      0.9 sec)


General Integration Accuracy     IntAcc      ...  4.010
Radial Grid Type                 RadialGrid  ... Gauss-Chebyshev
Angular Grid (max. acc.)         AngularGrid ... Lebedev-110
Angular grid pruning method      GridPruning ... 3 (G Style)
Weight generation scheme         WeightScheme... Becke
Basis function cutoff            BFCut       ...    1.0000e-11
Integration weight cutoff        WCut        ...    1.0000e-14
Grids for H and He will be reduced by one unit

# of grid points (after initial pruning)     ... 164492 (   0.3 sec)
# of grid points (after weights+screening)   ... 141880 (  11.9 sec)
nearest neighbour list constructed           ...    0.0 sec
Grid point re-assignment to atoms done       ...    0.0 sec
Grid point division into batches done        ...    0.1 sec
Reduced shell lists constructed in    7.8 sec

Total number of grid points                  ...   141880
Total number of batches                      ...     2293
Average number of points per batch           ...       61
Average number of grid points per atom       ...      972
Average number of shells per batch           ...   229.17 (19.54%)
Average number of basis functions per batch  ...   541.10 (18.19%)
Average number of large shells per batch     ...   128.68 (56.15%)
Average number of large basis fcns per batch ...   312.56 (57.76%)
Maximum spatial batch extension              ...  22.23, 20.65, 24.23 au
Average spatial batch extension              ...   3.04,  3.11,  3.51 au

Overlap Fitting                  UseSFitting ... on
Constructing numerical overlap ... done (      7.4 sec)
Inverting numerical overlap    ... done (      0.6 sec)
Obtaining analytic overlap     ... done (      0.0 sec)
Final contraction and storage  ... done (      0.9 sec)

Time for X-Grid setup             =   60.414 sec
--------------
SCF ITERATIONS
--------------
ITER       Energy         Delta-E        Max-DP      RMS-DP      [F,P]     Damp
               ***  Starting incremental Fock matrix formation  ***
  0  -4861.7507348709   0.000000000000 0.18298711  0.00079281  0.2969611 0.7000
  1  -4862.8326477421  -1.081912871161 0.18334111  0.00069719  0.1042502 0.7000
                               ***Turning on DIIS***
  2  -4863.2308625157  -0.398214773599 0.36474780  0.00114914  0.0507465 0.0000
  3  -4863.8970007539  -0.666138238210 0.16332698  0.00059569  0.0584786 0.0000
  4  -4864.0286602283  -0.131659474451 0.05400826  0.00022381  0.0396145 0.0000
  5  -4864.0447397961  -0.016079567737 0.02622407  0.00010239  0.0114681 0.0000
                      *** Initiating the SOSCF procedure ***
                           *** Shutting down DIIS ***
                      *** Re-Reading the Fockian *** 
                      *** Removing any level shift *** 
ITER      Energy       Delta-E        Grad      Rot      Max-DP    RMS-DP
  6  -4864.04585363  -0.0011138342  0.001360  0.001360  0.008046  0.000030
               *** Restarting incremental Fock matrix formation ***
  7  -4864.04596466  -0.0001110269  0.000763  0.009654  0.013833  0.000083
  8  -4864.04597526  -0.0000106045  0.000414  0.006448  0.009292  0.000041
  9  -4864.04601225  -0.0000369867  0.000350  0.004537  0.010576  0.000042
 10  -4864.04601692  -0.0000046674  0.000120  0.000555  0.002340  0.000010
 11  -4864.04601956  -0.0000026472  0.000127  0.001907  0.003778  0.000015
 12  -4864.04602009  -0.0000005287  0.000107  0.000406  0.001447  0.000004
 13  -4864.04602071  -0.0000006203  0.000048  0.000498  0.000947  0.000006
 14  -4864.04602099  -0.0000002822  0.000040  0.000101  0.000370  0.000001
 15  -4864.04602145  -0.0000004583  0.000022  0.000395  0.001332  0.000004
 16  -4864.04602129   0.0000001577  0.000031  0.000159  0.000446  0.000001
 17  -4864.04602121   0.0000000803  0.000010  0.000095  0.000883  0.000003
 18  -4864.04602144  -0.0000002221  0.000007  0.000033  0.000443  0.000001
                  ***Gradient check signals convergence***
              ***Rediagonalizing the Fockian in SOSCF/NRSCF***

               *****************************************************
               *                     SUCCESS                       *
               *           SCF CONVERGED AFTER  19 CYCLES          *
               *****************************************************

Setting up the final grid:

[...]

STATE 45:  E=   0.153414 au      4.175 eV    33670.5 cm**-1
   294a -> 307a  :     0.081596 (c= -0.28564988)
   294a -> 308a  :     0.026426 (c= -0.16256010)
   297a -> 307a  :     0.015061 (c= -0.12272194)
   297a -> 309a  :     0.164582 (c= -0.40568686)
   297a -> 310a  :     0.030014 (c=  0.17324573)
   299a -> 307a  :     0.023706 (c= -0.15396703)
   299a -> 308a  :     0.021867 (c=  0.14787449)
   299a -> 309a  :     0.068868 (c= -0.26242677)
   299a -> 310a  :     0.011226 (c=  0.10595437)
   300a -> 307a  :     0.011116 (c= -0.10543447)
   300a -> 308a  :     0.012956 (c=  0.11382450)
   300a -> 309a  :     0.092432 (c= -0.30402660)
   300a -> 310a  :     0.027133 (c=  0.16472136)
   302a -> 309a  :     0.064689 (c= -0.25433993)
   302a -> 310a  :     0.015533 (c=  0.12463067)
   304a -> 309a  :     0.014481 (c=  0.12033729)
   304a -> 311a  :     0.015999 (c=  0.12648549)
   306a -> 314a  :     0.087190 (c= -0.29528006)
   306a -> 315a  :     0.031151 (c=  0.17649667)
   306a -> 317a  :     0.017640 (c= -0.13281569)

STATE 46:  E=   0.155192 au      4.223 eV    34060.6 cm**-1
   292a -> 307a  :     0.341736 (c= -0.58458229)
   292a -> 308a  :     0.012587 (c=  0.11219360)
   293a -> 307a  :     0.033277 (c=  0.18242072)
   295a -> 307a  :     0.030983 (c=  0.17602089)
   295a -> 308a  :     0.160903 (c= -0.40112711)
   296a -> 308a  :     0.012672 (c= -0.11257113)
   298a -> 310a  :     0.020262 (c=  0.14234559)
   300a -> 310a  :     0.021592 (c= -0.14694065)
   302a -> 310a  :     0.010945 (c=  0.10461977)
   304a -> 311a  :     0.181754 (c=  0.42632657)
   306a -> 315a  :     0.049574 (c=  0.22265187)

STATE 47:  E=   0.155377 au      4.228 eV    34101.4 cm**-1
   292a -> 307a  :     0.054587 (c=  0.23363860)
   297a -> 309a  :     0.014342 (c=  0.11975813)
   299a -> 309a  :     0.337053 (c=  0.58056286)
   299a -> 310a  :     0.023473 (c= -0.15320881)
   300a -> 309a  :     0.239111 (c= -0.48899018)
   300a -> 310a  :     0.133105 (c=  0.36483501)
   301a -> 309a  :     0.026210 (c= -0.16189470)
   302a -> 309a  :     0.043638 (c=  0.20889668)
   302a -> 310a  :     0.011060 (c=  0.10516715)
   304a -> 311a  :     0.021739 (c=  0.14744007)

STATE 48:  E=   0.156068 au      4.247 eV    34252.9 cm**-1
   292a -> 307a  :     0.199229 (c=  0.44635086)
   293a -> 307a  :     0.024994 (c= -0.15809346)
   295a -> 307a  :     0.026867 (c=  0.16391049)
   295a -> 308a  :     0.230429 (c= -0.48003060)
   298a -> 309a  :     0.022881 (c=  0.15126357)
   298a -> 310a  :     0.062184 (c=  0.24936809)
   299a -> 308a  :     0.010319 (c=  0.10158484)
   299a -> 309a  :     0.013218 (c= -0.11496980)
   299a -> 310a  :     0.031831 (c=  0.17841123)
   300a -> 308a  :     0.015460 (c= -0.12434021)
   300a -> 310a  :     0.069371 (c= -0.26338394)
   301a -> 310a  :     0.036144 (c= -0.19011638)
   302a -> 310a  :     0.035526 (c=  0.18848380)
   303a -> 311a  :     0.018099 (c=  0.13453083)
   304a -> 311a  :     0.056037 (c= -0.23672105)
   306a -> 315a  :     0.010518 (c=  0.10255550)

STATE 49:  E=   0.157391 au      4.283 eV    34543.3 cm**-1
   292a -> 307a  :     0.024581 (c=  0.15678432)
   294a -> 307a  :     0.046372 (c=  0.21534174)
   294a -> 308a  :     0.152294 (c=  0.39024813)
   297a -> 309a  :     0.010195 (c=  0.10096857)
   300a -> 309a  :     0.010868 (c=  0.10425035)
   302a -> 310a  :     0.010521 (c= -0.10257191)
   306a -> 314a  :     0.421457 (c= -0.64919694)
   306a -> 315a  :     0.080500 (c=  0.28372585)
   306a -> 316a  :     0.041246 (c= -0.20309201)
   306a -> 317a  :     0.052700 (c= -0.22956453)
   306a -> 318a  :     0.018349 (c= -0.13545723)

STATE 50:  E=   0.158261 au      4.306 eV    34734.3 cm**-1
   293a -> 308a  :     0.067670 (c= -0.26013403)
   294a -> 307a  :     0.019664 (c= -0.14022798)
   294a -> 308a  :     0.298042 (c= -0.54593195)
   297a -> 309a  :     0.030990 (c=  0.17604070)
   299a -> 309a  :     0.011561 (c=  0.10752385)
   299a -> 310a  :     0.013940 (c=  0.11806929)
   300a -> 309a  :     0.038004 (c=  0.19494523)
   302a -> 309a  :     0.025142 (c=  0.15856347)
   303a -> 311a  :     0.278199 (c= -0.52744544)
   306a -> 314a  :     0.086115 (c= -0.29345281)


-----------------------------
TD-DFT/TDA-EXCITATION SPECTRA
-----------------------------

Center of mass = ( -5.2173,-18.2727, -0.1832)
Calculating the Dipole integrals                  ... done
Transforming integrals                            ... done
Calculating the Linear Momentum integrals         ... done
Transforming integrals                            ... done
Calculating angular momentum integrals            ... done
Transforming integrals                            ... done

-----------------------------------------------------------------------------
         ABSORPTION SPECTRUM VIA TRANSITION ELECTRIC DIPOLE MOMENTS
-----------------------------------------------------------------------------
State   Energy    Wavelength  fosc         T2        TX        TY        TZ  
        (cm-1)      (nm)                 (au**2)    (au)      (au)      (au) 
-----------------------------------------------------------------------------
   1   13822.6    723.5   1.340642233  31.93001  -0.93856   5.53456  -0.64635
   2   15926.5    627.9   0.204782225   4.23299   1.54562   1.18138  -0.66961
   3   17023.3    587.4   0.006189962   0.11971   0.34259  -0.01930  -0.04435
   4   18719.1    534.2   0.033835972   0.59507   0.26109  -0.72529   0.02922
   5   18960.0    527.4   0.357920753   6.21474  -0.31401   2.46897   0.14263
   6   19551.9    511.5   0.049468122   0.83294  -0.34186   0.84620   0.00404
   7   20618.2    485.0   0.046851294   0.74808   0.36239   0.77876  -0.10141
   8   21331.0    468.8   0.468136204   7.22499   2.56020   0.47177  -0.66917
   9   22426.6    445.9   0.020935162   0.30732   0.52643   0.01706   0.17291
  10   22523.9    444.0   0.139156194   2.03393  -1.13451  -0.31211   0.80586
  11   23848.5    419.3   0.003345500   0.04618  -0.00555   0.21253  -0.03132
  12   24349.7    410.7   0.043195388   0.58401  -0.07895   0.32706   0.68615
  13   24537.0    407.5   0.030431655   0.40830   0.21550  -0.58636  -0.13431
  14   24808.5    403.1   0.014293380   0.18968   0.34896   0.26032  -0.01166
  15   25333.3    394.7   0.018074345   0.23488  -0.43308  -0.19287   0.10063
  16   25698.6    389.1   0.016871175   0.21613  -0.20302   0.41097  -0.07753
  17   26340.0    379.7   0.069195073   0.86484  -0.82914   0.32115   0.27244
  18   26757.6    373.7   0.059614911   0.73347   0.20485  -0.83110  -0.02788
  19   26810.6    373.0   0.025488453   0.31298  -0.19553  -0.52235   0.04359
  20   26894.2    371.8   0.060760337   0.74377  -0.68571  -0.48806   0.18808
  21   27102.0    369.0   0.040792365   0.49551   0.05699   0.69356  -0.10599
  22   27331.5    365.9   0.004025864   0.04849  -0.21950  -0.01608  -0.00745
  23   27475.7    364.0   0.001391531   0.01667   0.10411  -0.07042  -0.02960
  24   27835.8    359.2   0.296809861   3.51035  -0.12745   1.73567   0.69394
  25   27997.8    357.2   0.009502943   0.11174  -0.03381  -0.29904  -0.14550
  26   28183.9    354.8   0.140141666   1.63697  -0.98856   0.51794   0.62567
  27   28730.2    348.1   0.082044267   0.94012  -0.81945  -0.51701  -0.03658
  28   29221.3    342.2   0.049650233   0.55937   0.37485   0.63675   0.11580
  29   29823.5    335.3   0.046485346   0.51314   0.66059  -0.02406  -0.27601
  30   30371.2    329.3   0.059333202   0.64315   0.01881  -0.63977  -0.48321
  31   30490.9    328.0   0.030550998   0.32986  -0.50488   0.07622   0.26297
  32   30550.1    327.3   0.004296896   0.04630   0.13462   0.11503   0.12227
  33   30658.3    326.2   0.018592497   0.19965   0.32073  -0.10223  -0.29382
  34   30845.3    324.2   0.048323243   0.51575   0.59884   0.39626  -0.01117
  35   31333.6    319.1   0.014698405   0.15443  -0.03833   0.36872   0.13043
  36   31597.1    316.5   0.005940933   0.06190   0.18576   0.14518   0.07948
  37   31750.8    315.0   0.054820841   0.56842  -0.66625  -0.33294   0.11696
  38   31876.3    313.7   0.241314215   2.49224  -1.50046   0.19868   0.44876
  39   32224.8    310.3   0.044549816   0.45513   0.45815   0.48936   0.07587
  40   32328.5    309.3   0.047928590   0.48807  -0.46850   0.48961   0.16989
  41   32686.1    305.9   0.020071513   0.20216   0.44513  -0.04967  -0.03939
  42   32809.1    304.8   0.011793182   0.11833   0.23084   0.18323  -0.17742
  43   33190.8    301.3   0.035420487   0.35133  -0.54000  -0.24267   0.02898
  44   33542.6    298.1   0.203984754   2.00206   0.70511   1.17692   0.34604
  45   33670.5    297.0   0.337850344   3.30332  -0.87151   1.15678   1.09802
  46   34060.6    293.6   0.079618600   0.76955  -0.43466  -0.72797  -0.22512
  47   34101.4    293.2   0.044065041   0.42540  -0.47264  -0.43843  -0.09893
  48   34252.9    291.9   0.143662510   1.38077  -0.19156  -1.06641  -0.45481
  49   34543.3    289.5   0.088835843   0.84664   0.65177  -0.47302  -0.44507
  50   34734.3    287.9   0.096612804   0.91570   0.24889  -0.62159  -0.68365

-----------------------------------------------------------------------------
         ABSORPTION SPECTRUM VIA TRANSITION VELOCITY DIPOLE MOMENTS
-----------------------------------------------------------------------------
State   Energy    Wavelength   fosc        P2         PX        PY        PZ  
        (cm-1)      (nm)                 (au**2)     (au)      (au)      (au) 
-----------------------------------------------------------------------------
   1   13822.6    723.5   0.026549035   0.00251  -0.01805  -0.04074  -0.02286
   2   15926.5    627.9   0.039585850   0.00431   0.05854  -0.02743  -0.01138
   3   17023.3    587.4   0.084600571   0.00984   0.07984   0.01702  -0.05638
   4   18719.1    534.2   0.003664324   0.00047   0.01753  -0.00400  -0.01207
   5   18960.0    527.4   0.019185303   0.00249   0.01687  -0.02801   0.03764
   6   19551.9    511.5   0.007572791   0.00101  -0.03014  -0.00788   0.00646
   7   20618.2    485.0   0.017841165   0.00251  -0.00285  -0.04612   0.01946
   8   21331.0    468.8   0.006338071   0.00092   0.01756   0.00305   0.02463
   9   22426.6    445.9   0.032173404   0.00493   0.03172   0.05567   0.02874
  10   22523.9    444.0   0.058980169   0.00908  -0.02961   0.08436   0.03296
  11   23848.5    419.3   0.022078142   0.00360   0.04678  -0.00086  -0.03754
  12   24349.7    410.7   0.026155038   0.00435   0.01066   0.04094   0.05062
  13   24537.0    407.5   0.006080054   0.00102   0.01458   0.01218  -0.02567
  14   24808.5    403.1   0.003510731   0.00060  -0.00692   0.00809   0.02195
  15   25333.3    394.7   0.010164689   0.00176  -0.04155  -0.00562   0.00140
  16   25698.6    389.1   0.007498346   0.00132  -0.02459  -0.02616   0.00530
  17   26340.0    379.7   0.006081387   0.00109   0.03117  -0.00858  -0.00705
  18   26757.6    373.7   0.006143290   0.00112   0.02110   0.01767  -0.01913
  19   26810.6    373.0   0.003499978   0.00064  -0.02000   0.00442  -0.01490
  20   26894.2    371.8   0.002569934   0.00047   0.00027   0.01372  -0.01685
  21   27102.0    369.0   0.009953484   0.00184   0.01182  -0.04115   0.00328
  22   27331.5    365.9   0.001060210   0.00020  -0.00071   0.00259  -0.01381
  23   27475.7    364.0   0.004246030   0.00080   0.00670   0.02697  -0.00501
  24   27835.8    359.2   0.027432125   0.00522   0.00245  -0.02199   0.06877
  25   27997.8    357.2   0.006333077   0.00121  -0.03395   0.00608  -0.00474
  26   28183.9    354.8   0.021336114   0.00411   0.06257   0.00112   0.01393
  27   28730.2    348.1   0.036193077   0.00711   0.03218  -0.06191  -0.04731
  28   29221.3    342.2   0.027660120   0.00552  -0.00162  -0.07273   0.01520
  29   29823.5    335.3   0.000269882   0.00006  -0.00716  -0.00185   0.00054
  30   30371.2    329.3   0.016014674   0.00332  -0.00162  -0.04175  -0.03973
  31   30490.9    328.0   0.014386796   0.00300   0.01920  -0.04979  -0.01226
  32   30550.1    327.3   0.005331806   0.00111   0.01725   0.02818   0.00467
  33   30658.3    326.2   0.021867025   0.00458  -0.00975  -0.06444  -0.01828
  34   30845.3    324.2   0.005285179   0.00111  -0.01438  -0.02490   0.01696
  35   31333.6    319.1   0.000571709   0.00012  -0.00079  -0.00389   0.01033
  36   31597.1    316.5   0.003077402   0.00066  -0.00823   0.02428   0.00275
  37   31750.8    315.0   0.002037167   0.00044   0.00791  -0.00063   0.01947
  38   31876.3    313.7   0.024188101   0.00527   0.05038  -0.03158   0.04165
  39   32224.8    310.3   0.029435159   0.00648   0.03873  -0.05443  -0.04495
  40   32328.5    309.3   0.047103969   0.01041   0.00172  -0.10192  -0.00408
  41   32686.1    305.9   0.001171935   0.00026   0.00115   0.01565   0.00393
  42   32809.1    304.8   0.026621372   0.00597   0.00480  -0.07636  -0.01077
  43   33190.8    301.3   0.002241591   0.00051   0.01133   0.01241  -0.01503
  44   33542.6    298.1   0.042241153   0.00968  -0.03025  -0.08010   0.04851
  45   33670.5    297.0   0.056029811   0.01289   0.07709  -0.07977   0.02424
  46   34060.6    293.6   0.014698106   0.00342   0.04130   0.01885  -0.03688
  47   34101.4    293.2   0.008791906   0.00205   0.02921   0.01307  -0.03202
  48   34252.9    291.9   0.019207486   0.00450   0.01586   0.04684  -0.04528
  49   34543.3    289.5   0.018286472   0.00432  -0.04110   0.05009   0.01088
  50   34734.3    287.9   0.008052342   0.00191  -0.03950  -0.01164  -0.01468

-------------------------------------------------------------------
                             CD SPECTRUM
-------------------------------------------------------------------
State  Energy     Wavelength     R         MX        MY        MZ   
       (cm-1)       (nm)     (1e40*cgs)   (au)      (au)      (au)  
-------------------------------------------------------------------
   1   13822.6    723.5    485.43765  -0.05909   0.00710  -1.44644
   2   15926.5    627.9     85.25392   0.02277  -0.03392  -0.27735
   3   17023.3    587.4      3.36368   0.00354   0.07583  -0.16651
   4   18719.1    534.2     58.19820   0.26801  -0.03840   0.87692
   5   18960.0    527.4    117.20381  -0.03681   0.15765  -1.06699
   6   19551.9    511.5     50.90175  -0.23059   0.03648  -0.42762
   7   20618.2    485.0     15.93073   0.05623   0.01284  -0.03365
   8   21331.0    468.8    -377.70927  -0.28962  -0.15363  -0.01911
   9   22426.6    445.9     10.24409   0.02461   0.00198   0.05056
  10   22523.9    444.0    -30.42555   0.07166   0.07566   0.05010
  11   23848.5    419.3      8.17380  -0.03685   0.04144  -0.26582
  12   24349.7    410.7     79.92535   0.04722   0.17707   0.16810
  13   24537.0    407.5     -3.08101   0.10184  -0.04767   0.42016
  14   24808.5    403.1    -27.82660  -0.18532   0.01666  -0.11220
  15   25333.3    394.7      8.92326   0.02174  -0.05620   0.17395
  16   25698.6    389.1     35.97145  -0.10839   0.07534  -0.30090
  17   26340.0    379.7    -107.26723   0.21351   0.17232  -0.38847
  18   26757.6    373.7     33.04401   0.12491  -0.07282   0.57461
  19   26810.6    373.0    -21.44798   0.04698   0.09065   0.25331
  20   26894.2    371.8    -43.59301   0.22289   0.01004   0.34704
  21   27102.0    369.0     43.95911   0.01206   0.12510  -0.05462
  22   27331.5    365.9      4.28119  -0.05134   0.12553   0.02297
  23   27475.7    364.0     -1.66687  -0.08405  -0.02730  -0.11121
  24   27835.8    359.2    -264.84617  -0.01330  -0.12168  -0.50763
  25   27997.8    357.2     -3.14416  -0.06859   0.01457   0.03182
  26   28183.9    354.8    -70.27644   0.11525  -0.04180  -0.02156
  27   28730.2    348.1     19.27816  -0.10666   0.10558  -0.22064
  28   29221.3    342.2    -45.66209  -0.24757   0.07914  -0.47019
  29   29823.5    335.3    -21.59878  -0.08314  -0.03040  -0.03034
  30   30371.2    329.3    -13.26217  -0.02237   0.07321  -0.03959
  31   30490.9    328.0      7.31310  -0.02388   0.02842   0.00490
  32   30550.1    327.3      7.70784   0.13130   0.02089  -0.03050
  33   30658.3    326.2     -6.73654  -0.03542   0.04436  -0.00546
  34   30845.3    324.2    -10.87532  -0.01038  -0.04516  -0.09375
  35   31333.6    319.1    -20.17977  -0.01004   0.00336  -0.34062
  36   31597.1    316.5     -5.29747  -0.03253  -0.08998   0.09902
  37   31750.8    315.0    -17.91609   0.10734  -0.03293   0.19279
  38   31876.3    313.7    -34.68620  -0.03003  -0.07521  -0.23106
  39   32224.8    310.3     -7.16408  -0.11435   0.12400  -0.30958
  40   32328.5    309.3     29.75581  -0.17757   0.17123  -0.61166
  41   32686.1    305.9      4.91932   0.03977  -0.01805   0.20730
  42   32809.1    304.8     27.34884  -0.16349   0.09948  -0.43696
  43   33190.8    301.3     -6.03166   0.02284   0.00698   0.04248
  44   33542.6    298.1    -113.49603  -0.14035  -0.02355  -0.32963
  45   33670.5    297.0    -103.46224  -0.04520  -0.09075  -0.14013
  46   34060.6    293.6    -54.16319   0.11393   0.05958   0.09771
  47   34101.4    293.2    -28.56747   0.03850   0.10053  -0.01693
  48   34252.9    291.9    -101.82782   0.12992   0.05386   0.29390
  49   34543.3    289.5    -16.54410   0.09751   0.04533   0.17346
  50   34734.3    287.9     19.30956   0.05439   0.13396  -0.16190

Total run time:   442759.775 sec

           *** ORCA-CIS/TD-DFT FINISHED WITHOUT ERROR ***

-----------------------
CIS/TD-DFT TOTAL ENERGY
-----------------------

    E(SCF)  =  -4864.047118137 Eh
    DE(CIS) =      0.062980346 Eh (Root  1)
    ----------------------------- ---------
    E(tot)  =  -4863.984137791 Eh


-------------------------   --------------------
FINAL SINGLE POINT ENERGY     -4863.984137790647
-------------------------   --------------------


                            ***************************************
                            *     ORCA property calculations      *
                            ***************************************

                                    ---------------------
                                    Active property flags
                                    ---------------------
   (+) Dipole Moment


------------------------------------------------------------------------------
                       ORCA ELECTRIC PROPERTIES CALCULATION
------------------------------------------------------------------------------

Dipole Moment Calculation                       ... on
Quadrupole Moment Calculation                   ... off
Polarizability Calculation                      ... off
GBWName                                         ... Y1.gbw
Electron density file                           ... Y1.scfp
The origin for moment calculation is the CENTER OF MASS  = (-5.217312, -18.272700 -0.183212)

-------------
DIPOLE MOMENT
-------------
                                X             Y             Z
Electronic contribution:     21.43601     -10.48434     -42.88357
Nuclear contribution   :    -21.01890      10.38159      43.33807
                        -----------------------------------------
Total Dipole Moment    :      0.41711      -0.10276       0.45450
                        -----------------------------------------
Magnitude (a.u.)       :      0.62539
Magnitude (Debye)      :      1.58961



--------------------
Rotational spectrum 
--------------------
 
Rotational constants in cm-1:     0.000710     0.000439     0.000302 
Rotational constants in MHz :    21.278796    13.173103     9.054483 

 Dipole components along the rotational axes: 
x,y,z [a.u.] :     0.186321     0.351172     0.482778 
x,y,z [Debye]:     0.473589     0.892609     1.227125 

 

Timings for individual modules:

Sum of individual times         ...   470690.718 sec (=7844.845 min)
GTO integral calculation        ...       14.270 sec (=   0.238 min)   0.0 %
SCF iterations                  ...    27916.475 sec (= 465.275 min)   5.9 %
CIS module                      ...   442759.973 sec (=7379.333 min)  94.1 %
                             ****ORCA TERMINATED NORMALLY****
TOTAL RUN TIME: 5 days 10 hours 44 minutes 52 seconds 574 msec
