
                                 *****************
                                 * O   R   C   A *
                                 *****************

           --- An Ab Initio, DFT and Semiempirical electronic structure package ---

                  #######################################################
                  #                        -***-                        #
                  #          Department of theory and spectroscopy      #
                  #               Directorship: Frank Neese             #
                  #        Max Planck Institute fuer Kohlenforschung    #
                  #                Kaiser Wilhelm Platz 1               #
                  #                 D-45470 Muelheim/Ruhr               #
                  #                      Germany                        #
                  #                                                     #
                  #                  All rights reserved                #
                  #                        -***-                        #
                  #######################################################


                         Program Version 4.2.0 -  RELEASE  -


 With contributions from (in alphabetic order):
   Daniel Aravena         : Magnetic Suceptibility
   Michael Atanasov       : Ab Initio Ligand Field Theory (pilot matlab implementation)
   Alexander A. Auer      : GIAO ZORA, VPT2
   Ute Becker             : Parallelization
   Giovanni Bistoni       : ED, misc. LED, open-shell LED, HFLED
   Martin Brehm           : Molecular dynamics
   Dmytro Bykov           : SCF Hessian
   Vijay G. Chilkuri      : MRCI spin determinant printing, contributions to CSF-ICE
   Dipayan Datta          : RHF DLPNO-CCSD density
   Achintya Kumar Dutta   : EOM-CC, STEOM-CC
   Dmitry Ganyushin       : Spin-Orbit,Spin-Spin,Magnetic field MRCI
   Miquel Garcia          : C-PCM Hessian, Gaussian charge scheme
   Yang Guo               : DLPNO-NEVPT2, CIM, IAO-localization
   Andreas Hansen         : Spin unrestricted coupled pair/coupled cluster methods
   Benjamin Helmich-Paris : CASSCF linear response (MC-RPA)
   Lee Huntington         : MR-EOM, pCC
   Robert Izsak           : Overlap fitted RIJCOSX, COSX-SCS-MP3, EOM
   Christian Kollmar      : KDIIS, OOCD, Brueckner-CCSD(T), CCSD density
   Simone Kossmann        : Meta GGA functionals, TD-DFT gradient, OOMP2, MP2 Hessian
   Martin Krupicka        : AUTO-CI
   Lucas Lang             : DCDCAS
   Dagmar Lenk            : GEPOL surface, SMD
   Dimitrios Liakos       : Extrapolation schemes; Compound Job, initial MDCI parallelization
   Dimitrios Manganas     : Further ROCIS development; embedding schemes
   Dimitrios Pantazis     : SARC Basis sets
   Taras Petrenko         : DFT Hessian,TD-DFT gradient, ASA, ECA, R-Raman, ABS, FL, XAS/XES, NRVS
   Peter Pinski           : DLPNO-MP2, DLPNO-MP2 Gradient
   Christoph Reimann      : Effective Core Potentials
   Marius Retegan         : Local ZFS, SOC
   Christoph Riplinger    : Optimizer, TS searches, QM/MM, DLPNO-CCSD(T), (RO)-DLPNO pert. Triples
   Tobias Risthaus        : Range-separated hybrids, TD-DFT gradient, RPA, STAB
   Michael Roemelt        : Original ROCIS implementation
   Masaaki Saitow         : Open-shell DLPNO-CCSD energy and density
   Barbara Sandhoefer     : DKH picture change effects
   Avijit Sen             : IP-ROCIS
   Kantharuban Sivalingam : CASSCF convergence, NEVPT2, FIC-MRCI
   Bernardo de Souza      : ESD, SOC TD-DFT
   Georgi Stoychev        : AutoAux, RI-MP2 NMR
   Willem Van den Heuvel  : Paramagnetic NMR
   Boris Wezisla          : Elementary symmetry handling
   Frank Wennmohs         : Technical directorship


 We gratefully acknowledge several colleagues who have allowed us to
 interface, adapt or use parts of their codes:
   Stefan Grimme, W. Hujo, H. Kruse,             : VdW corrections, initial TS optimization,
                  C. Bannwarth                     DFT functionals, gCP, sTDA/sTD-DF
   Ed Valeev, F. Pavosevic, A. Kumar             : LibInt (2-el integral package), F12 methods
   Garnet Chan, S. Sharma, J. Yang, R. Olivares  : DMRG
   Ulf Ekstrom                                   : XCFun DFT Library
   Mihaly Kallay                                 : mrcc  (arbitrary order and MRCC methods)
   Andreas Klamt, Michael Diedenhofen            : otool_cosmo (COSMO solvation model)
   Jiri Pittner, Ondrej Demel                    : Mk-CCSD
   Frank Weinhold                                : gennbo (NPA and NBO analysis)
   Christopher J. Cramer and Donald G. Truhlar   : smd solvation model
   Lars Goerigk                                  : TD-DFT with DH, B97 family of functionals
   V. Asgeirsson, H. Jonsson                     : NEB implementation
   FAccTs GmbH                                   : IRC, NEB, NEB-TS, Multilevel, MM, QM/MM, CI optimization
   S Lehtola, MJT Oliveira, MAL Marques          : LibXC Library


 Your calculation uses the libint2 library for the computation of 2-el integrals
 For citations please refer to: http://libint.valeyev.net

 Your ORCA version has been built with support for libXC version: 4.2.3
 For citations please refer to: https://tddft.org/programs/libxc/

 This ORCA versions uses:
   CBLAS   interface :  Fast vector & matrix operations
   LAPACKE interface :  Fast linear algebra routines
   SCALAPACK package :  Parallel linear algebra routines


----- Orbital basis set information -----
Your calculation utilizes the basis: def2-TZVP
   F. Weigend and R. Ahlrichs, Phys. Chem. Chem. Phys. 7, 3297 (2005).

----- AuxJ basis set information -----
Your calculation utilizes the auxiliary basis: def2/J
   F. Weigend, Phys. Chem. Chem. Phys. 8, 1057 (2006).

================================================================================
                                        WARNINGS
                       Please study these warnings very carefully!
================================================================================

INFO   : Checking CIS options ...

WARNING: CIS/ROCIS methods need fully converged wavefunctions
  ===> : Setting SCFConvForced true
         You can overwrite this default with %scf ConvForced false 


INFO   : the flag for use of LIBINT has been found!

================================================================================
                                       INPUT FILE
================================================================================
NAME = Y11.orcainp
|  1> # ORCA input file
|  2> # Y11.out
|  3> ! B3LYP def2-TZVP def2/J RIJCOSX Grid4 TightSCF
|  4> 
|  5> %maxcore 6000
|  6> %tddft
|  7>   maxdim 5
|  8>   nroots 50
|  9>   end
| 10> %pal
| 11>   nprocs 6
| 12>   end
| 13> 
| 14> 
| 15> * xyz 0 1
| 16>    C        3.73263         3.59256        -2.29416
| 17>    O        4.94847         3.52348        -2.34216
| 18>    C        2.87666         4.42101        -3.16987
| 19>    C        3.25810         5.26535        -4.19277
| 20>    C        2.25765         5.93588        -4.87816
| 21>    F        2.58094         6.76457        -5.87910
| 22>    C        0.91811         5.75493        -4.53557
| 23>    F       -0.02750         6.41471        -5.21425
| 24>    C        0.53612         4.90593        -3.50670
| 25>    C        1.53037         4.23100        -2.81686
| 26>    C        1.46585         3.27883        -1.70558
| 27>    C        0.30826         2.84810        -1.10800
| 28>    C        0.22067         1.93027        -0.04086
| 29>    N        0.05892         1.18859         0.82196
| 30>    C       -0.98293         3.27101        -1.48867
| 31>    N       -2.06104         3.56904        -1.74616
| 32>    C        2.82407         2.89234        -1.38881
| 33>    C        3.18507         2.00354        -0.39977
| 34>    C        4.43418         1.52604        -0.00605
| 35>    S        5.97452         1.98067        -0.74283
| 36>    C        6.81375         0.92694         0.33054
| 37>    C        5.93613         0.26453         1.21071
| 38>    C        4.60116         0.59108         1.03526
| 39>    C        3.51258         0.04314         1.89838
| 40>    C        3.17439         1.01741         3.03055
| 41>    S        6.74353        -0.83836         2.30898
| 42>    C        8.25155        -0.41033         1.57700
| 43>    C        8.13707         0.54373         0.55700
| 44>    N        9.37368         0.83397         0.03945
| 45>    C        9.44150         1.36930        -1.30493
| 46>    C        9.55024         0.24617        -2.33378
| 47>    C       10.30048         0.05173         0.71571
| 48>    C        9.60421        -0.75514         1.66572
| 49>    C       10.27695        -1.75052         2.40359
| 50>    N        9.86270        -2.64830         3.29928
| 51>    N       10.93781        -3.34351         3.57380
| 52>    C       10.90530        -4.45768         4.47624
| 53>    C       10.50739        -5.73303         3.73898
| 54>    N       12.03459        -2.99930         2.94631
| 55>    C       11.66074        -1.97358         2.17956
| 56>    C       12.37391        -1.10876         1.32488
| 57>    C       11.71436        -0.04015         0.64678
| 58>    N       12.67560         0.73447         0.01985
| 59>    C       12.60260         2.08951        -0.47822
| 60>    C       12.79388         2.15916        -1.99234
| 61>    C       13.89640         0.16190         0.25767
| 62>    C       13.73888        -0.98666         1.04442
| 63>    S       15.22575        -1.78138         1.41998
| 64>    C       16.09468        -0.54180         0.54024
| 65>    C       15.23973         0.42493        -0.01799
| 66>    S       16.12867         1.63229        -0.86209
| 67>    C       17.65321         0.87458        -0.39115
| 68>    C       17.45767        -0.30951         0.32353
| 69>    C       18.54952        -1.25665         0.68567
| 70>    C       18.19852        -2.71681         0.41313
| 71>    C       18.82108         1.50138        -0.85451
| 72>    C       20.06030         1.50697        -0.26061
| 73>    C       21.28374         1.98006        -0.86913
| 74>    C       21.49136         2.21593        -2.20361
| 75>    C       22.71287         2.66657        -2.74554
| 76>    N       23.67976         3.03832        -3.23962
| 77>    C       20.52640         2.01141        -3.21251
| 78>    N       19.79898         1.84283        -4.08509
| 79>    C       22.29662         2.06846         0.18172
| 80>    C       23.62230         2.47072         0.14433
| 81>    C       24.34712         2.43126         1.32634
| 82>    F       25.62883         2.81523         1.31340
| 83>    C       23.77322         2.00452         2.52385
| 84>    F       24.51156         1.97868         3.64049
| 85>    C       22.44640         1.60701         2.56959
| 86>    C       21.72654         1.64172         1.39237
| 87>    C       20.30522         1.28200         1.17625
| 88>    O       19.50504         0.97366         2.03472
| 89>    H        4.29524         5.40182        -4.45414
| 90>    H       -0.51275         4.80223        -3.28305
| 91>    H        2.36940         1.59007         0.17714
| 92>    H        3.86094        -0.89709         2.33044
| 93>    H        2.61287        -0.16083         1.31611
| 94>    H        4.05158         1.20085         3.64664
| 95>    H        2.39046         0.59743         3.65393
| 96>    H        2.82505         1.96670         2.63153
| 97>    H       10.27002         2.06254        -1.41346
| 98>    H        8.51638         1.92788        -1.46645
| 99>    H       10.45031        -0.34262        -2.16694
|100>    H        9.58071         0.66411        -3.33612
|101>    H        8.68998        -0.41525        -2.26134
|102>    H       10.17938        -4.22802         5.25862
|103>    H       11.90409        -4.55809         4.90469
|104>    H        9.52094        -5.61650         3.29696
|105>    H       10.48516        -6.56861         4.43240
|106>    H       11.22427        -5.94983         2.95077
|107>    H       13.40634         2.66068         0.00042
|108>    H       11.65732         2.52997        -0.15924
|109>    H       13.80243         1.85009        -2.25369
|110>    H       12.65179         3.18058        -2.33418
|111>    H       12.09566         1.51086        -2.51391
|112>    H       18.78183        -1.12435         1.74727
|113>    H       19.44694        -0.98818         0.12350
|114>    H       17.41473        -3.06717         1.07814
|115>    H       19.07875        -3.33483         0.57063
|116>    H       17.86713        -2.84480        -0.61505
|117>    H       18.69539         2.08803        -1.75765
|118>    H       24.10882         2.81371        -0.75397
|119>    H       21.99861         1.28001         3.49437
|120> *
|121> 
|122>                          ****END OF INPUT****
================================================================================

                       ****************************
                       * Single Point Calculation *
                       ****************************

---------------------------------
CARTESIAN COORDINATES (ANGSTROEM)
---------------------------------
  C      3.732630    3.592560   -2.294160
  O      4.948470    3.523480   -2.342160
  C      2.876660    4.421010   -3.169870
  C      3.258100    5.265350   -4.192770
  C      2.257650    5.935880   -4.878160
  F      2.580940    6.764570   -5.879100
  C      0.918110    5.754930   -4.535570
  F     -0.027500    6.414710   -5.214250
  C      0.536120    4.905930   -3.506700
  C      1.530370    4.231000   -2.816860
  C      1.465850    3.278830   -1.705580
  C      0.308260    2.848100   -1.108000
  C      0.220670    1.930270   -0.040860
  N      0.058920    1.188590    0.821960
  C     -0.982930    3.271010   -1.488670
  N     -2.061040    3.569040   -1.746160
  C      2.824070    2.892340   -1.388810
  C      3.185070    2.003540   -0.399770
  C      4.434180    1.526040   -0.006050
  S      5.974520    1.980670   -0.742830
  C      6.813750    0.926940    0.330540
  C      5.936130    0.264530    1.210710
  C      4.601160    0.591080    1.035260
  C      3.512580    0.043140    1.898380
  C      3.174390    1.017410    3.030550
  S      6.743530   -0.838360    2.308980
  C      8.251550   -0.410330    1.577000
  C      8.137070    0.543730    0.557000
  N      9.373680    0.833970    0.039450
  C      9.441500    1.369300   -1.304930
  C      9.550240    0.246170   -2.333780
  C     10.300480    0.051730    0.715710
  C      9.604210   -0.755140    1.665720
  C     10.276950   -1.750520    2.403590
  N      9.862700   -2.648300    3.299280
  N     10.937810   -3.343510    3.573800
  C     10.905300   -4.457680    4.476240
  C     10.507390   -5.733030    3.738980
  N     12.034590   -2.999300    2.946310
  C     11.660740   -1.973580    2.179560
  C     12.373910   -1.108760    1.324880
  C     11.714360   -0.040150    0.646780
  N     12.675600    0.734470    0.019850
  C     12.602600    2.089510   -0.478220
  C     12.793880    2.159160   -1.992340
  C     13.896400    0.161900    0.257670
  C     13.738880   -0.986660    1.044420
  S     15.225750   -1.781380    1.419980
  C     16.094680   -0.541800    0.540240
  C     15.239730    0.424930   -0.017990
  S     16.128670    1.632290   -0.862090
  C     17.653210    0.874580   -0.391150
  C     17.457670   -0.309510    0.323530
  C     18.549520   -1.256650    0.685670
  C     18.198520   -2.716810    0.413130
  C     18.821080    1.501380   -0.854510
  C     20.060300    1.506970   -0.260610
  C     21.283740    1.980060   -0.869130
  C     21.491360    2.215930   -2.203610
  C     22.712870    2.666570   -2.745540
  N     23.679760    3.038320   -3.239620
  C     20.526400    2.011410   -3.212510
  N     19.798980    1.842830   -4.085090
  C     22.296620    2.068460    0.181720
  C     23.622300    2.470720    0.144330
  C     24.347120    2.431260    1.326340
  F     25.628830    2.815230    1.313400
  C     23.773220    2.004520    2.523850
  F     24.511560    1.978680    3.640490
  C     22.446400    1.607010    2.569590
  C     21.726540    1.641720    1.392370
  C     20.305220    1.282000    1.176250
  O     19.505040    0.973660    2.034720
  H      4.295240    5.401820   -4.454140
  H     -0.512750    4.802230   -3.283050
  H      2.369400    1.590070    0.177140
  H      3.860940   -0.897090    2.330440
  H      2.612870   -0.160830    1.316110
  H      4.051580    1.200850    3.646640
  H      2.390460    0.597430    3.653930
  H      2.825050    1.966700    2.631530
  H     10.270020    2.062540   -1.413460
  H      8.516380    1.927880   -1.466450
  H     10.450310   -0.342620   -2.166940
  H      9.580710    0.664110   -3.336120
  H      8.689980   -0.415250   -2.261340
  H     10.179380   -4.228020    5.258620
  H     11.904090   -4.558090    4.904690
  H      9.520940   -5.616500    3.296960
  H     10.485160   -6.568610    4.432400
  H     11.224270   -5.949830    2.950770
  H     13.406340    2.660680    0.000420
  H     11.657320    2.529970   -0.159240
  H     13.802430    1.850090   -2.253690
  H     12.651790    3.180580   -2.334180
  H     12.095660    1.510860   -2.513910
  H     18.781830   -1.124350    1.747270
  H     19.446940   -0.988180    0.123500
  H     17.414730   -3.067170    1.078140
  H     19.078750   -3.334830    0.570630
  H     17.867130   -2.844800   -0.615050
  H     18.695390    2.088030   -1.757650
  H     24.108820    2.813710   -0.753970
  H     21.998610    1.280010    3.494370

----------------------------
CARTESIAN COORDINATES (A.U.)
----------------------------
  NO LB      ZA    FRAG     MASS         X           Y           Z
   0 C     6.0000    0    12.011    7.053648    6.788955   -4.335334
   1 O     8.0000    0    15.999    9.351253    6.658412   -4.426041
   2 C     6.0000    0    12.011    5.436100    8.354498   -5.990186
   3 C     6.0000    0    12.011    6.156917    9.950069   -7.923187
   4 C     6.0000    0    12.011    4.266340   11.217188   -9.218386
   5 F     9.0000    0    18.998    4.877270   12.783185  -11.109889
   6 C     6.0000    0    12.011    1.734976   10.875242   -8.570985
   7 F     9.0000    0    18.998   -0.051967   12.122045   -9.853504
   8 C     6.0000    0    12.011    1.013120    9.270864   -6.626703
   9 C     6.0000    0    12.011    2.891980    7.995431   -5.323094
  10 C     6.0000    0    12.011    2.770055    6.196091   -3.223079
  11 C     6.0000    0    12.011    0.582527    5.382129   -2.093817
  12 C     6.0000    0    12.011    0.417006    3.647682   -0.077214
  13 N     7.0000    0    14.007    0.111343    2.246110    1.553279
  14 C     6.0000    0    12.011   -1.857469    6.181313   -2.813179
  15 N     7.0000    0    14.007   -3.894801    6.744508   -3.299764
  16 C     6.0000    0    12.011    5.336719    5.465730   -2.624471
  17 C     6.0000    0    12.011    6.018910    3.786142   -0.755456
  18 C     6.0000    0    12.011    8.379386    2.883798   -0.011433
  19 S    16.0000    0    32.060   11.290207    3.742924   -1.403745
  20 C     6.0000    0    12.011   12.876121    1.751663    0.624630
  21 C     6.0000    0    12.011   11.217660    0.499889    2.287910
  22 C     6.0000    0    12.011    8.694932    1.116979    1.956358
  23 C     6.0000    0    12.011    6.637814    0.081523    3.587418
  24 C     6.0000    0    12.011    5.998728    1.922626    5.726910
  25 S    16.0000    0    32.060   12.743425   -1.584271    4.363340
  26 C     6.0000    0    12.011   15.593170   -0.775411    2.980098
  27 C     6.0000    0    12.011   15.376834    1.027501    1.052577
  28 N     7.0000    0    14.007   17.713688    1.575975    0.074550
  29 C     6.0000    0    12.011   17.841849    2.587602   -2.465960
  30 C     6.0000    0    12.011   18.047338    0.465194   -4.410205
  31 C     6.0000    0    12.011   19.465086    0.097756    1.352496
  32 C     6.0000    0    12.011   18.149327   -1.427008    3.147755
  33 C     6.0000    0    12.011   19.420621   -3.308003    4.542127
  34 N     7.0000    0    14.007   18.637802   -5.004562    6.234736
  35 N     7.0000    0    14.007   20.669465   -6.318318    6.753503
  36 C     6.0000    0    12.011   20.608030   -8.423794    8.458868
  37 C     6.0000    0    12.011   19.856089  -10.833857    7.065648
  38 N     7.0000    0    14.007   22.742079   -5.667856    5.567719
  39 C     6.0000    0    12.011   22.035605   -3.729526    4.118771
  40 C     6.0000    0    12.011   23.383301   -2.095253    2.503660
  41 C     6.0000    0    12.011   22.136932   -0.075873    1.222237
  42 N     7.0000    0    14.007   23.953413    1.387947    0.037511
  43 C     6.0000    0    12.011   23.815463    3.948602   -0.903705
  44 C     6.0000    0    12.011   24.176929    4.080221   -3.764977
  45 C     6.0000    0    12.011   26.260390    0.305947    0.486926
  46 C     6.0000    0    12.011   25.962721   -1.864517    1.973668
  47 S    16.0000    0    32.060   28.772498   -3.366320    2.683373
  48 C     6.0000    0    12.011   30.414537   -1.023854    1.020906
  49 C     6.0000    0    12.011   28.798916    0.803001   -0.033996
  50 S    16.0000    0    32.060   30.478769    3.084581   -1.629114
  51 C     6.0000    0    12.011   33.359732    1.652717   -0.739166
  52 C     6.0000    0    12.011   32.990215   -0.584889    0.611383
  53 C     6.0000    0    12.011   35.053513   -2.374724    1.295729
  54 C     6.0000    0    12.011   34.390219   -5.134027    0.780703
  55 C     6.0000    0    12.011   35.566687    2.837197   -1.614790
  56 C     6.0000    0    12.011   37.908473    2.847761   -0.492482
  57 C     6.0000    0    12.011   40.220440    3.741771   -1.642418
  58 C     6.0000    0    12.011   40.612785    4.187501   -4.164219
  59 C     6.0000    0    12.011   42.921104    5.039087   -5.188319
  60 N     7.0000    0    14.007   44.748261    5.741593   -6.121995
  61 C     6.0000    0    12.011   38.789275    3.801014   -6.070764
  62 N     7.0000    0    14.007   37.414650    3.482444   -7.719701
  63 C     6.0000    0    12.011   42.134506    3.908823    0.343401
  64 C     6.0000    0    12.011   44.639678    4.668984    0.272744
  65 C     6.0000    0    12.011   46.009389    4.594416    2.506419
  66 F     9.0000    0    18.998   48.431470    5.320014    2.481966
  67 C     6.0000    0    12.011   44.924875    3.787994    4.769385
  68 F     9.0000    0    18.998   46.320136    3.739163    6.879529
  69 C     6.0000    0    12.011   42.417549    3.036809    4.855821
  70 C     6.0000    0    12.011   41.057210    3.102401    2.631198
  71 C     6.0000    0    12.011   38.371305    2.422629    2.222790
  72 O     8.0000    0    15.999   36.859184    1.839951    3.845064
  73 H     1.0000    0     1.008    8.116827   10.207960   -8.417105
  74 H     1.0000    0     1.008   -0.968957    9.074900   -6.204065
  75 H     1.0000    0     1.008    4.477517    3.004797    0.334746
  76 H     1.0000    0     1.008    7.296119   -1.695254    4.403893
  77 H     1.0000    0     1.008    4.937609   -0.303925    2.487087
  78 H     1.0000    0     1.008    7.656377    2.269278    6.891151
  79 H     1.0000    0     1.008    4.517315    1.128979    6.904927
  80 H     1.0000    0     1.008    5.338571    3.716524    4.972871
  81 H     1.0000    0     1.008   19.407525    3.897636   -2.671052
  82 H     1.0000    0     1.008   16.093626    3.643165   -2.771189
  83 H     1.0000    0     1.008   19.748224   -0.647458   -4.094923
  84 H     1.0000    0     1.008   18.104918    1.254986   -6.304353
  85 H     1.0000    0     1.008   16.421682   -0.784709   -4.273313
  86 H     1.0000    0     1.008   19.236240   -7.989800    9.937352
  87 H     1.0000    0     1.008   22.495470   -8.613542    9.268521
  88 H     1.0000    0     1.008   17.991969  -10.613647    6.230351
  89 H     1.0000    0     1.008   19.814081  -12.412874    8.376022
  90 H     1.0000    0     1.008   21.210796  -11.243549    5.576147
  91 H     1.0000    0     1.008   25.334311    5.027957    0.000794
  92 H     1.0000    0     1.008   22.029142    4.780950   -0.300920
  93 H     1.0000    0     1.008   26.082813    3.496163   -4.258857
  94 H     1.0000    0     1.008   23.908418    6.010425   -4.410961
  95 H     1.0000    0     1.008   22.857485    2.855112   -4.750601
  96 H     1.0000    0     1.008   35.492515   -2.124714    3.301862
  97 H     1.0000    0     1.008   36.749391   -1.867390    0.233381
  98 H     1.0000    0     1.008   32.909070   -5.796111    2.037389
  99 H     1.0000    0     1.008   36.053612   -6.301915    1.078334
 100 H     1.0000    0     1.008   33.763982   -5.375893   -1.162276
 101 H     1.0000    0     1.008   35.329167    3.945805   -3.321477
 102 H     1.0000    0     1.008   45.559067    5.317141   -1.424797
 103 H     1.0000    0     1.008   41.571348    2.418868    6.603402

--------------------------------
INTERNAL COORDINATES (ANGSTROEM)
--------------------------------
 C      0   0   0     0.000000000000     0.00000000     0.00000000
 O      1   0   0     1.218746467482     0.00000000     0.00000000
 C      1   2   0     1.478472876823   125.87421719     0.00000000
 C      3   1   2     1.380119893053   128.44740892   359.92455688
 C      4   3   1     1.385738119379   117.58588643   179.73914062
 F      5   4   3     1.339075958936   119.66029939   180.06312359
 C      5   4   3     1.394445489146   120.61252064     0.02693270
 F      7   5   4     1.337944118003   119.36165369   180.01525024
 C      7   5   4     1.387548498972   121.73772003     0.00000000
 C      9   7   5     1.385620003103   118.01230810   359.97332406
 C     10   9   7     1.464832337744   131.50693232   180.22746978
 C     11  10   9     1.372095039493   124.86333109     0.37530727
 C     12  11  10     1.410273624727   125.89210374   179.79752508
 N     13  12  11     1.149221752883   175.46972113   183.05479410
 C     12  11  10     1.411004653819   124.08615290   359.93805569
 N     15  12  11     1.147799700775   176.26099640   178.25110320
 C     11  10   9     1.447231605998   107.35582068   179.89144504
 C     17  11  10     1.377855784035   125.11838738   180.24564252
 C     18  17  11     1.394022051655   131.18217330   178.63781915
 S     19  18  17     1.766969303893   125.11517398   359.84897933
 C     20  19  18     1.722433471197    90.42931887   181.06921374
 C     21  20  19     1.408439953069   111.93505087   359.90559804
 C     22  21  20     1.385482769976   114.23056366     0.00000000
 C     23  22  21     1.493392377910   122.86675451   182.46626563
 C     24  23  22     1.531464468377   110.78249731    95.59363675
 S     22  21  20     1.753413272734   113.59864287   179.16579448
 C     26  22  21     1.730066103275    88.89677924   359.75921461
 C     21  20  19     1.396176872069   136.95354939   179.30976629
 N     28  21  20     1.371605465212   137.32820980     0.57902357
 C     29  28  21     1.448632232729   118.07211947   337.76252211
 C     30  29  28     1.527015948509   110.90444501   270.35530250
 C     29  28  21     1.388591100792   107.38428873   181.72252806
 C     27  26  22     1.398733087512   139.03558986   182.89620061
 C     33  27  26     1.409898077486   131.96467404     5.64452797
 N     34  33  27     1.334118648022   132.71051228   356.53395734
 N     35  34  33     1.309404325104   104.06939373   176.53501395
 C     36  35  34     1.434165137842   121.72093938   182.24291781
 C     37  36  35     1.525910317876   110.56048333    85.94614831
 N     36  35  34     1.309637580631   116.59121443   359.90990242
 C     39  36  35     1.334080546069   104.05013024     0.13440635
 C     40  39  36     1.409610933449   132.71939625   175.77036952
 C     32  29  28     1.418537956383   132.69301758   182.68474810
 N     42  32  29     1.384579252661   132.66672814    10.22700069
 C     43  42  32     1.445522786572   130.19551004    18.79424482
 C     44  43  42     1.527742954590   112.20375686   243.34274164
 C     43  42  32     1.369214153192   107.84217126   181.60180334
 C     41  40  39     1.398824264338   131.97511142   355.95102149
 S     47  41  40     1.727254349799   139.13374521     5.26687491
 C     48  47  41     1.750868467047    89.55423463   183.98102116
 C     46  43  42     1.396319700284   138.13396881   182.85556347
 S     50  46  43     1.720592137376   136.55846972   358.34634005
 C     51  50  46     1.766389294380    90.80831520   177.07062716
 C     52  51  50     1.396807976101   112.28556806     3.45173918
 C     53  52  51     1.490085897423   124.09731138   171.23247750
 C     54  53  52     1.526285123167   113.33981825   225.83753201
 C     52  51  50     1.404101515739   116.00188810   179.80461214
 C     56  52  51     1.374196007308   127.53558406   151.22313572
 C     57  56  52     1.446000059509   125.62222275   169.50755580
 C     58  57  56     1.370976874969   126.44465125   344.26746646
 C     59  58  57     1.410266362997   124.06900705   180.62125756
 N     60  59  58     1.147688712587   177.01313301   186.09090699
 C     59  58  57     1.410976768767   124.57573003   359.09042844
 N     62  59  58     1.148457630564   176.13163838   200.05110243
 C     58  57  56     1.462199089351   107.66378061   168.42006565
 C     64  58  57     1.385871055366   131.35960767   180.57031967
 C     65  64  58     1.387108057831   117.94333203   180.68168225
 F     66  65  64     1.338051168155   118.95572306   180.00271098
 C     66  65  64     1.394811255224   121.68870293   359.89844237
 F     68  66  65     1.338916932001   119.67153985   179.79598563
 C     68  66  65     1.385841859701   120.66540567   359.79371916
 C     70  68  66     1.380307984509   117.64216632     0.42647706
 C     57  56  52     1.474843709313   124.76297314   336.82136640
 O     72  57  56     1.213397020311   128.20825706     5.43390627
 H      4   3   1     1.078238247049   121.52981006   359.78086610
 H      9   7   5     1.077451293284   118.73776354   180.00955629
 H     18  17  11     1.081249341225   115.59567327   359.07583121
 H     24  23  22     1.091816370137   108.18617504   336.15968570
 H     24  23  22     1.090926302690   111.17921188   217.40926505
 H     25  24  23     1.087510651810   110.36479317   300.57944995
 H     25  24  23     1.086062645385   109.73792221   180.68509574
 H     25  24  23     1.087385350324   110.79605446    60.96564881
 H     30  29  28     1.085728257392   111.37347901   147.02699858
 H     30  29  28     1.092678974448   106.64585949    29.72037443
 H     31  30  29     1.088409506849   110.70096550   299.44481765
 H     31  30  29     1.086410484163   109.91806195   178.91489179
 H     31  30  29     1.087552866577   110.24947864    59.32833791
 H     37  36  35     1.091706016471   107.61358601   325.29480217
 H     37  36  35     1.091436225668   107.32195901   206.61876543
 H     38  37  36     1.087218710196   110.08729866   299.96018765
 H     38  37  36     1.086056815134   109.87007522   180.06679515
 H     38  37  36     1.087287532578   110.18059034    60.15464507
 H     44  43  42     1.096051735138   107.51745754   124.12483513
 H     44  43  42     1.090553772356   108.75952996     8.23887296
 H     45  44  43     1.086738786416   109.97291635   294.41577777
 H     45  44  43     1.086435902435   109.77484342   175.42525243
 H     45  44  43     1.086204089156   111.60479445    54.43035036
 H     54  53  52     1.094744621407   108.32162229   103.82030660
 H     54  53  52     1.092462313400   108.70264508   347.70561177
 H     55  54  53     1.085963716613   111.42489257   291.96329196
 H     55  54  53     1.086995778879   109.37968915   172.38202493
 H     55  54  53     1.087821163887   110.57244035    52.99776590
 H     56  52  51     1.084259220943   114.83414723   334.85074942
 H     65  64  58     1.077630150144   123.14346889     0.95216837
 H     70  68  66     1.078268488133   120.85676845   180.22648142

---------------------------
INTERNAL COORDINATES (A.U.)
---------------------------
 C      0   0   0     0.000000000000     0.00000000     0.00000000
 O      1   0   0     2.303097050225     0.00000000     0.00000000
 C      1   2   0     2.793908833625   125.87421719     0.00000000
 C      3   1   2     2.608048629846   128.44740892   359.92455688
 C      4   3   1     2.618665538961   117.58588643   179.73914062
 F      5   4   3     2.530486834907   119.66029939   180.06312359
 C      5   4   3     2.635120083168   120.61252064     0.02693270
 F      7   5   4     2.528347965517   119.36165369   180.01525024
 C      7   5   4     2.622086660591   121.73772003     0.00000000
 C      9   7   5     2.618442331548   118.01230810   359.97332406
 C     10   9   7     2.768131950447   131.50693232   180.22746978
 C     11  10   9     2.592883854353   124.86333109     0.37530727
 C     12  11  10     2.665030924626   125.89210374   179.79752508
 N     13  12  11     2.171714380094   175.46972113   183.05479410
 C     12  11  10     2.666412369407   124.08615290   359.93805569
 N     15  12  11     2.169027091062   176.26099640   178.25110320
 C     11  10   9     2.734871387692   107.35582068   179.89144504
 C     17  11  10     2.603770083866   125.11838738   180.24564252
 C     18  17  11     2.634319902275   131.18217330   178.63781915
 S     19  18  17     3.339088071403   125.11517398   359.84897933
 C     20  19  18     3.254927544462    90.42931887   181.06921374
 C     21  20  19     2.661565787373   111.93505087   359.90559804
 C     22  21  20     2.618182998521   114.23056366     0.00000000
 C     23  22  21     2.822102604736   122.86675451   182.46626563
 C     24  23  22     2.894048429063   110.78249731    95.59363675
 S     22  21  20     3.313470885050   113.59864287   179.16579448
 C     26  22  21     3.269351128769    88.89677924   359.75921461
 C     21  20  19     2.638391922725   136.95354939   179.30976629
 N     28  21  20     2.591958693041   137.32820980     0.57902357
 C     29  28  21     2.737518188628   118.07211947   337.76252211
 C     30  29  28     2.885641944811   110.90444501   270.35530250
 C     29  28  21     2.624056892498   107.38428873   181.72252806
 C     27  26  22     2.643222469851   139.03558986   182.89620061
 C     33  27  26     2.664321243191   131.96467404     5.64452797
 N     34  33  27     2.521118874919   132.71051228   356.53395734
 N     35  34  33     2.474415573018   104.06939373   176.53501395
 C     36  35  34     2.710179341338   121.72093938   182.24291781
 C     37  36  35     2.883552605710   110.56048333    85.94614831
 N     36  35  34     2.474856362083   116.59121443   359.90990242
 C     39  36  35     2.521046872663   104.05013024     0.13440635
 C     40  39  36     2.663778619600   132.71939625   175.77036952
 C     32  29  28     2.680648248137   132.69301758   182.68474810
 N     42  32  29     2.616475598239   132.66672814    10.22700069
 C     43  42  32     2.731642186965   130.19551004    18.79424482
 C     44  43  42     2.887015787203   112.20375686   243.34274164
 C     43  42  32     2.587439768221   107.84217126   181.60180334
 C     41  40  39     2.643394769082   131.97511142   355.95102149
 S     47  41  40     3.264037684745   139.13374521     5.26687491
 C     48  47  41     3.308661899238    89.55423463   183.98102116
 C     46  43  42     2.638661828935   138.13396881   182.85556347
 S     50  46  43     3.251447927819   136.55846972   358.34634005
 C     51  50  46     3.337992012268    90.80831520   177.07062716
 C     52  51  50     2.639584536508   112.28556806     3.45173918
 C     53  52  51     2.815854262148   124.09731138   171.23247750
 C     54  53  52     2.884260885063   113.33981825   225.83753201
 C     52  51  50     2.653367328970   116.00188810   179.80461214
 C     56  52  51     2.596854108139   127.53558406   151.22313572
 C     57  56  52     2.732544102106   125.62222275   169.50755580
 C     58  57  56     2.590770829631   126.44465125   344.26746646
 C     59  58  57     2.665017201945   124.06900705   180.62125756
 N     60  59  58     2.168817353782   177.01313301   186.09090699
 C     59  58  57     2.666359674295   124.57573003   359.09042844
 N     62  59  58     2.170270398178   176.13163838   200.05110243
 C     58  57  56     2.763155832143   107.66378061   168.42006565
 C     64  58  57     2.618916751569   131.35960767   180.57031967
 C     65  64  58     2.621254347456   117.94333203   180.68168225
 F     66  65  64     2.528550260986   118.95572306   180.00271098
 C     66  65  64     2.635811280885   121.68870293   359.89844237
 F     68  66  65     2.530186317553   119.67153985   179.79598563
 C     68  66  65     2.618861579759   120.66540567   359.79371916
 C     70  68  66     2.608404071187   117.64216632     0.42647706
 C     57  56  52     2.787050700938   124.76297314   336.82136640
 O     72  57  56     2.292988060104   128.20825706     5.43390627
 H      4   3   1     2.037574994043   121.52981006   359.78086610
 H      9   7   5     2.036087866947   118.73776354   180.00955629
 H     18  17  11     2.043265137398   115.59567327   359.07583121
 H     24  23  22     2.063233928092   108.18617504   336.15968570
 H     24  23  22     2.061551944375   111.17921188   217.40926505
 H     25  24  23     2.055097299643   110.36479317   300.57944995
 H     25  24  23     2.052360964059   109.73792221   180.68509574
 H     25  24  23     2.054860514151   110.79605446    60.96564881
 H     30  29  28     2.051729062331   111.37347901   147.02699858
 H     30  29  28     2.064864014000   106.64585949    29.72037443
 H     31  30  29     2.056795889502   110.70096550   299.44481765
 H     31  30  29     2.053018284089   109.91806195   178.91489179
 H     31  30  29     2.055177073992   110.24947864    59.32833791
 H     37  36  35     2.063025389885   107.61358601   325.29480217
 H     37  36  35     2.062515559153   107.32195901   206.61876543
 H     38  37  36     2.054545609945   110.08729866   299.96018765
 H     38  37  36     2.052349946483   109.87007522   180.06679515
 H     38  37  36     2.054675665400   110.18059034    60.15464507
 H     44  43  42     2.071237608021   107.51745754   124.12483513
 H     44  43  42     2.060847964068   108.75952996     8.23887296
 H     45  44  43     2.053638685435   109.97291635   294.41577777
 H     45  44  43     2.053066317662   109.77484342   175.42525243
 H     45  44  43     2.052628254051   111.60479445    54.43035036
 H     54  53  52     2.068767521043   108.32162229   103.82030660
 H     54  53  52     2.064454583957   108.70264508   347.70561177
 H     55  54  53     2.052174015774   111.42489257   291.96329196
 H     55  54  53     2.054124330809   109.37968915   172.38202493
 H     55  54  53     2.055684082429   110.57244035    52.99776590
 H     56  52  51     2.048952985761   114.83414723   334.85074942
 H     65  64  58     2.036425857429   123.14346889     0.95216837
 H     70  68  66     2.037632141408   120.85676845   180.22648142

---------------------
BASIS SET INFORMATION
---------------------
There are 6 groups of distinct atoms

 Group   1 Type C   : 11s6p2d1f contracted to 5s3p2d1f pattern {62111/411/11/1}
 Group   2 Type O   : 11s6p2d1f contracted to 5s3p2d1f pattern {62111/411/11/1}
 Group   3 Type F   : 11s6p2d1f contracted to 5s3p2d1f pattern {62111/411/11/1}
 Group   4 Type N   : 11s6p2d1f contracted to 5s3p2d1f pattern {62111/411/11/1}
 Group   5 Type S   : 14s9p3d1f contracted to 5s5p2d1f pattern {73211/51111/21/1}
 Group   6 Type H   : 5s1p contracted to 3s1p pattern {311/1}

Atom   0C    basis set group =>   1
Atom   1O    basis set group =>   2
Atom   2C    basis set group =>   1
Atom   3C    basis set group =>   1
Atom   4C    basis set group =>   1
Atom   5F    basis set group =>   3
Atom   6C    basis set group =>   1
Atom   7F    basis set group =>   3
Atom   8C    basis set group =>   1
Atom   9C    basis set group =>   1
Atom  10C    basis set group =>   1
Atom  11C    basis set group =>   1
Atom  12C    basis set group =>   1
Atom  13N    basis set group =>   4
Atom  14C    basis set group =>   1
Atom  15N    basis set group =>   4
Atom  16C    basis set group =>   1
Atom  17C    basis set group =>   1
Atom  18C    basis set group =>   1
Atom  19S    basis set group =>   5
Atom  20C    basis set group =>   1
Atom  21C    basis set group =>   1
Atom  22C    basis set group =>   1
Atom  23C    basis set group =>   1
Atom  24C    basis set group =>   1
Atom  25S    basis set group =>   5
Atom  26C    basis set group =>   1
Atom  27C    basis set group =>   1
Atom  28N    basis set group =>   4
Atom  29C    basis set group =>   1
Atom  30C    basis set group =>   1
Atom  31C    basis set group =>   1
Atom  32C    basis set group =>   1
Atom  33C    basis set group =>   1
Atom  34N    basis set group =>   4
Atom  35N    basis set group =>   4
Atom  36C    basis set group =>   1
Atom  37C    basis set group =>   1
Atom  38N    basis set group =>   4
Atom  39C    basis set group =>   1
Atom  40C    basis set group =>   1
Atom  41C    basis set group =>   1
Atom  42N    basis set group =>   4
Atom  43C    basis set group =>   1
Atom  44C    basis set group =>   1
Atom  45C    basis set group =>   1
Atom  46C    basis set group =>   1
Atom  47S    basis set group =>   5
Atom  48C    basis set group =>   1
Atom  49C    basis set group =>   1
Atom  50S    basis set group =>   5
Atom  51C    basis set group =>   1
Atom  52C    basis set group =>   1
Atom  53C    basis set group =>   1
Atom  54C    basis set group =>   1
Atom  55C    basis set group =>   1
Atom  56C    basis set group =>   1
Atom  57C    basis set group =>   1
Atom  58C    basis set group =>   1
Atom  59C    basis set group =>   1
Atom  60N    basis set group =>   4
Atom  61C    basis set group =>   1
Atom  62N    basis set group =>   4
Atom  63C    basis set group =>   1
Atom  64C    basis set group =>   1
Atom  65C    basis set group =>   1
Atom  66F    basis set group =>   3
Atom  67C    basis set group =>   1
Atom  68F    basis set group =>   3
Atom  69C    basis set group =>   1
Atom  70C    basis set group =>   1
Atom  71C    basis set group =>   1
Atom  72O    basis set group =>   2
Atom  73H    basis set group =>   6
Atom  74H    basis set group =>   6
Atom  75H    basis set group =>   6
Atom  76H    basis set group =>   6
Atom  77H    basis set group =>   6
Atom  78H    basis set group =>   6
Atom  79H    basis set group =>   6
Atom  80H    basis set group =>   6
Atom  81H    basis set group =>   6
Atom  82H    basis set group =>   6
Atom  83H    basis set group =>   6
Atom  84H    basis set group =>   6
Atom  85H    basis set group =>   6
Atom  86H    basis set group =>   6
Atom  87H    basis set group =>   6
Atom  88H    basis set group =>   6
Atom  89H    basis set group =>   6
Atom  90H    basis set group =>   6
Atom  91H    basis set group =>   6
Atom  92H    basis set group =>   6
Atom  93H    basis set group =>   6
Atom  94H    basis set group =>   6
Atom  95H    basis set group =>   6
Atom  96H    basis set group =>   6
Atom  97H    basis set group =>   6
Atom  98H    basis set group =>   6
Atom  99H    basis set group =>   6
Atom 100H    basis set group =>   6
Atom 101H    basis set group =>   6
Atom 102H    basis set group =>   6
Atom 103H    basis set group =>   6
---------------------------------
AUXILIARY/J BASIS SET INFORMATION
---------------------------------
There are 6 groups of distinct atoms

 Group   1 Type C   : 12s5p4d2f1g contracted to 6s4p3d1f1g pattern {711111/2111/211/2/1}
 Group   2 Type O   : 12s5p4d2f1g contracted to 6s4p3d1f1g pattern {711111/2111/211/2/1}
 Group   3 Type F   : 12s5p4d2f1g contracted to 6s4p3d1f1g pattern {711111/2111/211/2/1}
 Group   4 Type N   : 12s5p4d2f1g contracted to 6s4p3d1f1g pattern {711111/2111/211/2/1}
 Group   5 Type S   : 14s5p5d2f1g contracted to 8s4p3d1f1g pattern {71111111/2111/311/2/1}
 Group   6 Type H   : 5s2p1d contracted to 3s1p1d pattern {311/2/1}

Atom   0C    basis set group =>   1
Atom   1O    basis set group =>   2
Atom   2C    basis set group =>   1
Atom   3C    basis set group =>   1
Atom   4C    basis set group =>   1
Atom   5F    basis set group =>   3
Atom   6C    basis set group =>   1
Atom   7F    basis set group =>   3
Atom   8C    basis set group =>   1
Atom   9C    basis set group =>   1
Atom  10C    basis set group =>   1
Atom  11C    basis set group =>   1
Atom  12C    basis set group =>   1
Atom  13N    basis set group =>   4
Atom  14C    basis set group =>   1
Atom  15N    basis set group =>   4
Atom  16C    basis set group =>   1
Atom  17C    basis set group =>   1
Atom  18C    basis set group =>   1
Atom  19S    basis set group =>   5
Atom  20C    basis set group =>   1
Atom  21C    basis set group =>   1
Atom  22C    basis set group =>   1
Atom  23C    basis set group =>   1
Atom  24C    basis set group =>   1
Atom  25S    basis set group =>   5
Atom  26C    basis set group =>   1
Atom  27C    basis set group =>   1
Atom  28N    basis set group =>   4
Atom  29C    basis set group =>   1
Atom  30C    basis set group =>   1
Atom  31C    basis set group =>   1
Atom  32C    basis set group =>   1
Atom  33C    basis set group =>   1
Atom  34N    basis set group =>   4
Atom  35N    basis set group =>   4
Atom  36C    basis set group =>   1
Atom  37C    basis set group =>   1
Atom  38N    basis set group =>   4
Atom  39C    basis set group =>   1
Atom  40C    basis set group =>   1
Atom  41C    basis set group =>   1
Atom  42N    basis set group =>   4
Atom  43C    basis set group =>   1
Atom  44C    basis set group =>   1
Atom  45C    basis set group =>   1
Atom  46C    basis set group =>   1
Atom  47S    basis set group =>   5
Atom  48C    basis set group =>   1
Atom  49C    basis set group =>   1
Atom  50S    basis set group =>   5
Atom  51C    basis set group =>   1
Atom  52C    basis set group =>   1
Atom  53C    basis set group =>   1
Atom  54C    basis set group =>   1
Atom  55C    basis set group =>   1
Atom  56C    basis set group =>   1
Atom  57C    basis set group =>   1
Atom  58C    basis set group =>   1
Atom  59C    basis set group =>   1
Atom  60N    basis set group =>   4
Atom  61C    basis set group =>   1
Atom  62N    basis set group =>   4
Atom  63C    basis set group =>   1
Atom  64C    basis set group =>   1
Atom  65C    basis set group =>   1
Atom  66F    basis set group =>   3
Atom  67C    basis set group =>   1
Atom  68F    basis set group =>   3
Atom  69C    basis set group =>   1
Atom  70C    basis set group =>   1
Atom  71C    basis set group =>   1
Atom  72O    basis set group =>   2
Atom  73H    basis set group =>   6
Atom  74H    basis set group =>   6
Atom  75H    basis set group =>   6
Atom  76H    basis set group =>   6
Atom  77H    basis set group =>   6
Atom  78H    basis set group =>   6
Atom  79H    basis set group =>   6
Atom  80H    basis set group =>   6
Atom  81H    basis set group =>   6
Atom  82H    basis set group =>   6
Atom  83H    basis set group =>   6
Atom  84H    basis set group =>   6
Atom  85H    basis set group =>   6
Atom  86H    basis set group =>   6
Atom  87H    basis set group =>   6
Atom  88H    basis set group =>   6
Atom  89H    basis set group =>   6
Atom  90H    basis set group =>   6
Atom  91H    basis set group =>   6
Atom  92H    basis set group =>   6
Atom  93H    basis set group =>   6
Atom  94H    basis set group =>   6
Atom  95H    basis set group =>   6
Atom  96H    basis set group =>   6
Atom  97H    basis set group =>   6
Atom  98H    basis set group =>   6
Atom  99H    basis set group =>   6
Atom 100H    basis set group =>   6
Atom 101H    basis set group =>   6
Atom 102H    basis set group =>   6
Atom 103H    basis set group =>   6


           ************************************************************
           *        Program running with 6 parallel MPI-processes     *
           *              working on a common directory               *
           ************************************************************
------------------------------------------------------------------------------
                           ORCA GTO INTEGRAL CALCULATION
                           -- RI-GTO INTEGRALS CHOSEN --
------------------------------------------------------------------------------

                         BASIS SET STATISTICS AND STARTUP INFO

Gaussian basis set:
 # of primitive gaussian shells          ... 1674
 # of primitive gaussian functions       ... 3674
 # of contracted shells                  ...  935
 # of contracted basis functions         ... 2473
 Highest angular momentum                ...    3
 Maximum contraction depth               ...    7
Auxiliary gaussian basis set:
 # of primitive gaussian shells          ... 2012
 # of primitive gaussian functions       ... 5634
 # of contracted shells                  ... 1258
 # of contracted aux-basis functions     ... 3926
 Highest angular momentum                ...    4
 Maximum contraction depth               ...    7
Ratio of auxiliary to basis functions    ...  1.59
Integral package used                  ... LIBINT
 One Electron integrals                  ... done
 Ordering auxiliary basis shells         ... done
 Integral threshhold             Thresh  ...  2.500e-11
 Primitive cut-off               TCut    ...  2.500e-12
 Pre-screening matrix                    ... done
 Shell pair data                         ... 
 Ordering of the shell pairs             ... done (   0.031 sec) 141056 of 437580 pairs
 Determination of significant pairs      ... done (   0.001 sec)
 Creation of shell pair data             ... done (   0.014 sec)
 Storage of shell pair data              ... done (   4.028 sec)
 Shell pair data done in (   4.074 sec)
 Computing two index integrals           ... done
 Cholesky decomposition of the V-matrix  ... done


Timings:
 Total evaluation time                   ...  15.141 sec (  0.252 min)
 One electron matrix time                ...   4.792 sec (  0.080 min) = 31.6%
 Schwartz matrix evaluation time         ...   3.384 sec (  0.056 min) = 22.4%
 Two index repulsion integral time       ...   0.714 sec (  0.012 min) =  4.7%
 Cholesky decomposition of V             ...   2.161 sec (  0.036 min) = 14.3%
 Three index repulsion integral time     ...   0.000 sec (  0.000 min) =  0.0%



           ************************************************************
           *        Program running with 6 parallel MPI-processes     *
           *              working on a common directory               *
           ************************************************************
-------------------------------------------------------------------------------
                                 ORCA SCF
-------------------------------------------------------------------------------

------------
SCF SETTINGS
------------
Hamiltonian:
 Density Functional     Method          .... DFT(GTOs)
 Exchange Functional    Exchange        .... B88
   X-Alpha parameter    XAlpha          ....  0.666667
   Becke's b parameter  XBeta           ....  0.004200
 Correlation Functional Correlation     .... LYP
 LDA part of GGA corr.  LDAOpt          .... VWN-5
 Gradients option       PostSCFGGA      .... off
 Hybrid DFT is turned on
   Fraction HF Exchange ScalHFX         ....  0.200000
   Scaling of DF-GGA-X  ScalDFX         ....  0.720000
   Scaling of DF-GGA-C  ScalDFC         ....  0.810000
   Scaling of DF-LDA-C  ScalLDAC        ....  1.000000
   Perturbative correction              ....  0.000000
   Density functional embedding theory  .... OFF
   NL short-range parameter             ....  4.800000
 RI-approximation to the Coulomb term is turned on
   Number of auxiliary basis functions  .... 3926
   RIJ-COSX (HFX calculated with COS-X)).... on


General Settings:
 Integral files         IntName         .... Y11.orcainp
 Hartree-Fock type      HFTyp           .... RHF
 Total Charge           Charge          ....    0
 Multiplicity           Mult            ....    1
 Number of Electrons    NEL             ....  534
 Basis Dimension        Dim             .... 2473
 Nuclear Repulsion      ENuc            ....  11152.3078478511 Eh

Convergence Acceleration:
 DIIS                   CNVDIIS         .... on
   Start iteration      DIISMaxIt       ....    12
   Startup error        DIISStart       ....  0.200000
   # of expansion vecs  DIISMaxEq       ....     5
   Bias factor          DIISBfac        ....   1.050
   Max. coefficient     DIISMaxC        ....  10.000
 Newton-Raphson         CNVNR           .... off
 SOSCF                  CNVSOSCF        .... on
   Start iteration      SOSCFMaxIt      ....   150
   Startup grad/error   SOSCFStart      ....  0.003300
 Level Shifting         CNVShift        .... on
   Level shift para.    LevelShift      ....    0.2500
   Turn off err/grad.   ShiftErr        ....    0.0010
 Zerner damping         CNVZerner       .... off
 Static damping         CNVDamp         .... on
   Fraction old density DampFac         ....    0.7000
   Max. Damping (<1)    DampMax         ....    0.9800
   Min. Damping (>=0)   DampMin         ....    0.0000
   Turn off err/grad.   DampErr         ....    0.1000
 Fernandez-Rico         CNVRico         .... off

SCF Procedure:
 Maximum # iterations   MaxIter         ....   125
 SCF integral mode      SCFMode         .... Direct
   Integral package                     .... LIBINT
 Reset frequency        DirectResetFreq ....    20
 Integral Threshold     Thresh          ....  2.500e-11 Eh
 Primitive CutOff       TCut            ....  2.500e-12 Eh

Convergence Tolerance:
 Convergence Check Mode ConvCheckMode   .... Total+1el-Energy
 Convergence forced     ConvForced      .... 1
 Energy Change          TolE            ....  1.000e-08 Eh
 1-El. energy change                    ....  1.000e-05 Eh
 Orbital Gradient       TolG            ....  1.000e-05
 Orbital Rotation angle TolX            ....  1.000e-05
 DIIS Error             TolErr          ....  5.000e-07


Diagonalization of the overlap matrix:
Smallest eigenvalue                        ... 2.583e-06
Time for diagonalization                   ...    8.517 sec
Threshold for overlap eigenvalues          ... 1.000e-08
Number of eigenvalues below threshold      ... 0
Time for construction of square roots      ...    3.022 sec
Total time needed                          ...   11.553 sec

-------------------
DFT GRID GENERATION
-------------------

General Integration Accuracy     IntAcc      ...  4.670
Radial Grid Type                 RadialGrid  ... Gauss-Chebyshev
Angular Grid (max. acc.)         AngularGrid ... Lebedev-302
Angular grid pruning method      GridPruning ... 3 (G Style)
Weight generation scheme         WeightScheme... Becke
Basis function cutoff            BFCut       ...    1.0000e-11
Integration weight cutoff        WCut        ...    1.0000e-14
Grids for H and He will be reduced by one unit

# of grid points (after initial pruning)     ... 561466 (   0.0 sec)
# of grid points (after weights+screening)   ... 479314 (  14.8 sec)
nearest neighbour list constructed           ...    0.0 sec
Grid point re-assignment to atoms done       ...    0.1 sec
Grid point division into batches done        ...    1.6 sec
Reduced shell lists constructed in    3.3 sec

Total number of grid points                  ...   479314
Total number of batches                      ...     7544
Average number of points per batch           ...       63
Average number of grid points per atom       ...     4609
Average number of shells per batch           ...   133.21 (14.25%)
Average number of basis functions per batch  ...   348.02 (14.07%)
Average number of large shells per batch     ...    85.00 (63.81%)
Average number of large basis fcns per batch ...   225.94 (64.92%)
Maximum spatial batch extension              ...  16.18, 18.11, 17.81 au
Average spatial batch extension              ...   0.36,  0.40,  0.40 au

Time for grid setup =   25.549 sec

------------------------------
INITIAL GUESS: MODEL POTENTIAL
------------------------------
Loading Hartree-Fock densities                     ... done
Calculating cut-offs                               ... done
Setting up the integral package                    ... done
Initializing the effective Hamiltonian             ... done
Starting the Coulomb interaction                   ... done (   4.4 sec)
Reading the grid                                   ... done
Mapping shells                                     ... done
Starting the XC term evaluation                    ... done (  13.1 sec)
  promolecular density results
     # of electrons  =    533.983693623
     EX              =   -503.165274323
     EC              =    -19.021905206
     EX+EC           =   -522.187179529
Transforming the Hamiltonian                       ... done (   2.5 sec)
Diagonalizing the Hamiltonian                      ... done (   4.1 sec)
Back transforming the eigenvectors                 ... done (   1.2 sec)
Now organizing SCF variables                       ... done
                      ------------------
                      INITIAL GUESS DONE (  51.4 sec)
                      ------------------
--------------------
COSX GRID GENERATION
--------------------

General Integration Accuracy     IntAcc      ...  3.340
Radial Grid Type                 RadialGrid  ... Gauss-Chebyshev
Angular Grid (max. acc.)         AngularGrid ... Lebedev-50
Angular grid pruning method      GridPruning ... 3 (G Style)
Weight generation scheme         WeightScheme... Becke
Basis function cutoff            BFCut       ...    1.0000e-11
Integration weight cutoff        WCut        ...    1.0000e-14
Grids for H and He will be reduced by one unit

# of grid points (after initial pruning)     ...  52638 (   0.0 sec)
# of grid points (after weights+screening)   ...  46964 (   1.5 sec)
nearest neighbour list constructed           ...    0.0 sec
Grid point re-assignment to atoms done       ...    0.0 sec
Grid point division into batches done        ...    0.0 sec
Reduced shell lists constructed in    0.2 sec

Total number of grid points                  ...    46964
Total number of batches                      ...      787
Average number of points per batch           ...       59
Average number of grid points per atom       ...      452
Average number of shells per batch           ...   160.96 (17.22%)
Average number of basis functions per batch  ...   424.92 (17.18%)
Average number of large shells per batch     ...   104.68 (65.04%)
Average number of large basis fcns per batch ...   281.99 (66.36%)
Maximum spatial batch extension              ...  16.55, 19.62, 18.52 au
Average spatial batch extension              ...   0.65,  0.93,  0.89 au

Overlap Fitting                  UseSFitting ... on
Constructing numerical overlap ... done (      0.9 sec)
Inverting numerical overlap    ... done (      2.0 sec)
Obtaining analytic overlap     ... done (      0.1 sec)
Final contraction and storage  ... done (      1.1 sec)


General Integration Accuracy     IntAcc      ...  3.670
Radial Grid Type                 RadialGrid  ... Gauss-Chebyshev
Angular Grid (max. acc.)         AngularGrid ... Lebedev-50
Angular grid pruning method      GridPruning ... 3 (G Style)
Weight generation scheme         WeightScheme... Becke
Basis function cutoff            BFCut       ...    1.0000e-11
Integration weight cutoff        WCut        ...    1.0000e-14
Grids for H and He will be reduced by one unit

# of grid points (after initial pruning)     ...  65758 (   0.0 sec)
# of grid points (after weights+screening)   ...  58399 (   2.5 sec)
nearest neighbour list constructed           ...    0.0 sec
Grid point re-assignment to atoms done       ...    0.0 sec
Grid point division into batches done        ...    0.0 sec
Reduced shell lists constructed in    0.3 sec

Total number of grid points                  ...    58399
Total number of batches                      ...      961
Average number of points per batch           ...       60
Average number of grid points per atom       ...      562
Average number of shells per batch           ...   158.13 (16.91%)
Average number of basis functions per batch  ...   416.71 (16.85%)
Average number of large shells per batch     ...   101.75 (64.34%)
Average number of large basis fcns per batch ...   273.65 (65.67%)
Maximum spatial batch extension              ...  17.52, 29.67, 25.11 au
Average spatial batch extension              ...   0.61,  0.90,  0.84 au

Overlap Fitting                  UseSFitting ... on
Constructing numerical overlap ... done (      0.9 sec)
Inverting numerical overlap    ... done (      1.0 sec)
Obtaining analytic overlap     ... done (      0.1 sec)
Final contraction and storage  ... done (      1.1 sec)


General Integration Accuracy     IntAcc      ...  4.010
Radial Grid Type                 RadialGrid  ... Gauss-Chebyshev
Angular Grid (max. acc.)         AngularGrid ... Lebedev-110
Angular grid pruning method      GridPruning ... 3 (G Style)
Weight generation scheme         WeightScheme... Becke
Basis function cutoff            BFCut       ...    1.0000e-11
Integration weight cutoff        WCut        ...    1.0000e-14
Grids for H and He will be reduced by one unit

# of grid points (after initial pruning)     ... 128348 (   0.0 sec)
# of grid points (after weights+screening)   ... 112959 (   4.4 sec)
nearest neighbour list constructed           ...    0.0 sec
Grid point re-assignment to atoms done       ...    0.0 sec
Grid point division into batches done        ...    0.1 sec
Reduced shell lists constructed in    0.6 sec

Total number of grid points                  ...   112959
Total number of batches                      ...     1813
Average number of points per batch           ...       62
Average number of grid points per atom       ...     1086
Average number of shells per batch           ...   150.58 (16.11%)
Average number of basis functions per batch  ...   396.46 (16.03%)
Average number of large shells per batch     ...    97.41 (64.69%)
Average number of large basis fcns per batch ...   261.58 (65.98%)
Maximum spatial batch extension              ...  18.57, 18.17, 19.53 au
Average spatial batch extension              ...   0.52,  0.68,  0.65 au

Overlap Fitting                  UseSFitting ... on
Constructing numerical overlap ... done (      1.3 sec)
Inverting numerical overlap    ... done (      1.3 sec)
Obtaining analytic overlap     ... done (      0.1 sec)
Final contraction and storage  ... done (      1.1 sec)

Time for X-Grid setup             =   23.628 sec
--------------
SCF ITERATIONS
--------------
ITER       Energy         Delta-E        Max-DP      RMS-DP      [F,P]     Damp
               ***  Starting incremental Fock matrix formation  ***
  0  -4709.1927794023   0.000000000000 0.16029795  0.00093369  0.2933542 0.7000
  1  -4710.0029165088  -0.810137106500 0.14256812  0.00080441  0.1035822 0.7000
                               ***Turning on DIIS***
  2  -4710.2957777246  -0.292861215736 0.25782369  0.00126700  0.0432173 0.0000
  3  -4710.7924092900  -0.496631565429 0.15825743  0.00071798  0.0576554 0.0000
  4  -4710.8891337204  -0.096724430427 0.06286307  0.00024512  0.0340427 0.0000
  5  -4710.9011853641  -0.012051643660 0.02590534  0.00011314  0.0090957 0.0000
                      *** Initiating the SOSCF procedure ***
                           *** Shutting down DIIS ***
                      *** Re-Reading the Fockian *** 
                      *** Removing any level shift *** 
ITER      Energy       Delta-E        Grad      Rot      Max-DP    RMS-DP
  6  -4710.90207526  -0.0008898967  0.000969  0.000969  0.007051  0.000033
               *** Restarting incremental Fock matrix formation ***
  7  -4710.90218820  -0.0001129429  0.000584  0.007137  0.016222  0.000077
  8  -4710.90220511  -0.0000169107  0.000362  0.004305  0.009294  0.000037
  9  -4710.90222171  -0.0000165967  0.000337  0.003715  0.009367  0.000036
 10  -4710.90222706  -0.0000053492  0.000131  0.000618  0.002264  0.000011
 11  -4710.90222946  -0.0000024020  0.000086  0.000961  0.002669  0.000012
 12  -4710.90222999  -0.0000005245  0.000056  0.000174  0.000876  0.000004
 13  -4710.90223040  -0.0000004090  0.000043  0.000460  0.001518  0.000006
 14  -4710.90223062  -0.0000002218  0.000044  0.000112  0.000446  0.000002
 15  -4710.90223071  -0.0000000945  0.000029  0.000138  0.000994  0.000003
 16  -4710.90223067   0.0000000451  0.000007  0.000024  0.000315  0.000001
 17  -4710.90223077  -0.0000001048  0.000006  0.000082  0.000275  0.000001
 18  -4710.90223083  -0.0000000575  0.000005  0.000036  0.000736  0.000002
 19  -4710.90223071   0.0000001146  0.000003  0.000011  0.000402  0.000001
                  ***Gradient check signals convergence***
              ***Rediagonalizing the Fockian in SOSCF/NRSCF***

               *****************************************************
               *                     SUCCESS                       *
               *           SCF CONVERGED AFTER  20 CYCLES          *
               *****************************************************

Setting up the final grid:

General Integration Accuracy     IntAcc      ...  5.010
Radial Grid Type                 RadialGrid  ... Gauss-Chebyshev
Angular Grid (max. acc.)         AngularGrid ... Lebedev-434
Angular grid pruning method      GridPruning ... 3 (G Style)
Weight generation scheme         WeightScheme... Becke
Basis function cutoff            BFCut       ...    1.0000e-11
Integration weight cutoff        WCut        ...    1.0000e-14
Grids for H and He will be reduced by one unit

# of grid points (after initial pruning)     ... 992370 (   0.1 sec)
# of grid points (after weights+screening)   ... 844089 (  23.5 sec)
nearest neighbour list constructed           ...    0.0 sec
Grid point re-assignment to atoms done       ...    0.1 sec
Grid point division into batches done        ...    5.3 sec
Reduced shell lists constructed in    8.0 sec

Total number of grid points                  ...   844089
Total number of batches                      ...    13243
Average number of points per batch           ...       63
Average number of grid points per atom       ...     8116
Average number of shells per batch           ...   128.37 (13.73%)
Average number of basis functions per batch  ...   334.31 (13.52%)
Average number of large shells per batch     ...    81.74 (63.68%)
Average number of large basis fcns per batch ...   216.84 (64.86%)
Maximum spatial batch extension              ...  16.85, 20.70, 18.35 au
Average spatial batch extension              ...   0.30,  0.33,  0.33 au

Final grid set up in   46.1 sec
Final integration                            ... done (  20.0 sec)
Change in XC energy                          ...    -0.000055792
Integrated number of electrons               ...   534.000002413
Previous integrated no of electrons          ...   533.999444731
Old exchange energy                            =   -101.571670407 Eh
New exchange energy                            =   -101.572574116 Eh
Exchange energy change after final integration =     -0.000903709 Eh
Total energy after final integration           =  -4710.903190158 Eh
Final COS-X integration done in                =   485.219 sec

----------------
TOTAL SCF ENERGY
----------------

Total Energy       :        -4710.90319016 Eh         -128190.19287 eV

Components:
Nuclear Repulsion  :        11152.30784785 Eh          303469.72464 eV
Electronic Energy  :       -15863.21103801 Eh         -431659.91751 eV
One Electron Energy:       -28665.42801773 Eh         -780025.95212 eV
Two Electron Energy:        12802.21697972 Eh          348366.03461 eV

Virial components:
Potential Energy   :        -9407.51753156 Eh         -255991.56639 eV
Kinetic Energy     :         4696.61434140 Eh          127801.37353 eV
Virial Ratio       :            2.00304237


DFT components:
N(Alpha)           :      267.000001206610 electrons
N(Beta)            :      267.000001206610 electrons
N(Total)           :      534.000002413220 electrons
E(X)               :     -403.879854769059 Eh       
E(C)               :      -22.325254420463 Eh       
E(XC)              :     -426.205109189522 Eh       
DFET-embed. en.    :        0.000000000000 Eh       

---------------
SCF CONVERGENCE
---------------

  Last Energy change         ...    5.7496e-08  Tolerance :   1.0000e-08
  Last MAX-Density change    ...    4.8850e-15  Tolerance :   1.0000e-07
  Last RMS-Density change    ...    1.2738e-17  Tolerance :   5.0000e-09
  Last Orbital Gradient      ...    1.2469e-06  Tolerance :   1.0000e-05
  Last Orbital Rotation      ...    1.0176e-05  Tolerance :   1.0000e-05

             **** THE GBW FILE WAS UPDATED (Y11.orcainp.gbw) ****
             **** DENSITY FILE WAS UPDATED (Y11.orcainp.scfp) ****
             **** ENERGY FILE WAS UPDATED (Y11.orcainp.en.tmp) ****
             **** THE GBW FILE WAS UPDATED (Y11.orcainp.gbw) ****
             **** DENSITY FILE WAS UPDATED (Y11.orcainp.scfp) ****
----------------
ORBITAL ENERGIES
----------------

  NO   OCC          E(Eh)            E(eV) 
   0   2.0000     -88.911696     -2419.4102 
   1   2.0000     -88.908221     -2419.3157 
   2   2.0000     -88.906521     -2419.2694 
   3   2.0000     -88.903109     -2419.1766 
   4   2.0000     -24.725082      -672.8037 
   5   2.0000     -24.724759      -672.7949 
   6   2.0000     -24.723320      -672.7557 
   7   2.0000     -24.722740      -672.7400 
   8   2.0000     -19.138372      -520.7816 
   9   2.0000     -19.132310      -520.6166 
  10   2.0000     -14.449029      -393.1781 
  11   2.0000     -14.403862      -391.9490 
  12   2.0000     -14.400818      -391.8662 
  13   2.0000     -14.362842      -390.8328 
  14   2.0000     -14.362762      -390.8306 
  15   2.0000     -14.331413      -389.9776 
  16   2.0000     -14.328712      -389.9041 
  17   2.0000     -14.327738      -389.8776 
  18   2.0000     -14.325648      -389.8207 
  19   2.0000     -10.299689      -280.2688 
  20   2.0000     -10.299091      -280.2525 
  21   2.0000     -10.299042      -280.2512 
  22   2.0000     -10.298439      -280.2348 
  23   2.0000     -10.280537      -279.7476 
  24   2.0000     -10.278307      -279.6869 
  25   2.0000     -10.257455      -279.1196 
  26   2.0000     -10.256481      -279.0930 
  27   2.0000     -10.256432      -279.0917 
  28   2.0000     -10.254804      -279.0474 
  29   2.0000     -10.253852      -279.0215 
  30   2.0000     -10.253822      -279.0207 
  31   2.0000     -10.251778      -278.9651 
  32   2.0000     -10.246438      -278.8197 
  33   2.0000     -10.244850      -278.7765 
  34   2.0000     -10.243291      -278.7341 
  35   2.0000     -10.240771      -278.6655 
  36   2.0000     -10.236064      -278.5375 
  37   2.0000     -10.236014      -278.5361 
  38   2.0000     -10.234169      -278.4859 
  39   2.0000     -10.234132      -278.4849 
  40   2.0000     -10.232568      -278.4423 
  41   2.0000     -10.230958      -278.3985 
  42   2.0000     -10.230867      -278.3961 
  43   2.0000     -10.229275      -278.3527 
  44   2.0000     -10.228779      -278.3392 
  45   2.0000     -10.227994      -278.3179 
  46   2.0000     -10.227847      -278.3139 
  47   2.0000     -10.227789      -278.3123 
  48   2.0000     -10.227461      -278.3033 
  49   2.0000     -10.227290      -278.2987 
  50   2.0000     -10.226516      -278.2777 
  51   2.0000     -10.226125      -278.2670 
  52   2.0000     -10.224682      -278.2277 
  53   2.0000     -10.223319      -278.1906 
  54   2.0000     -10.222379      -278.1651 
  55   2.0000     -10.221920      -278.1526 
  56   2.0000     -10.220079      -278.1025 
  57   2.0000     -10.219960      -278.0993 
  58   2.0000     -10.219144      -278.0771 
  59   2.0000     -10.218326      -278.0548 
  60   2.0000     -10.216145      -277.9954 
  61   2.0000     -10.215736      -277.9843 
  62   2.0000     -10.215572      -277.9798 
  63   2.0000     -10.215033      -277.9652 
  64   2.0000     -10.213437      -277.9218 
  65   2.0000     -10.210778      -277.8494 
  66   2.0000     -10.197240      -277.4810 
  67   2.0000     -10.196060      -277.4489 
  68   2.0000     -10.193205      -277.3712 
  69   2.0000     -10.190730      -277.3039 
  70   2.0000     -10.184302      -277.1289 
  71   2.0000     -10.174475      -276.8615 
  72   2.0000     -10.173934      -276.8468 
  73   2.0000      -7.988219      -217.3705 
  74   2.0000      -7.983943      -217.2541 
  75   2.0000      -7.982243      -217.2079 
  76   2.0000      -7.978163      -217.0968 
  77   2.0000      -5.950904      -161.9323 
  78   2.0000      -5.947164      -161.8306 
  79   2.0000      -5.946897      -161.8233 
  80   2.0000      -5.945183      -161.7766 
  81   2.0000      -5.944374      -161.7546 
  82   2.0000      -5.943141      -161.7211 
  83   2.0000      -5.941511      -161.6767 
  84   2.0000      -5.941177      -161.6676 
  85   2.0000      -5.939683      -161.6270 
  86   2.0000      -5.937960      -161.5801 
  87   2.0000      -5.936928      -161.5520 
  88   2.0000      -5.934110      -161.4754 
  89   2.0000      -1.267420       -34.4883 
  90   2.0000      -1.266961       -34.4758 
  91   2.0000      -1.254038       -34.1241 
  92   2.0000      -1.253590       -34.1119 
  93   2.0000      -1.139817       -31.0160 
  94   2.0000      -1.069215       -29.0948 
  95   2.0000      -1.063646       -28.9433 
  96   2.0000      -1.041782       -28.3483 
  97   2.0000      -1.029867       -28.0241 
  98   2.0000      -0.945606       -25.7313 
  99   2.0000      -0.945110       -25.7178 
 100   2.0000      -0.936981       -25.4965 
 101   2.0000      -0.932625       -25.3780 
 102   2.0000      -0.927835       -25.2477 
 103   2.0000      -0.926462       -25.2103 
 104   2.0000      -0.923933       -25.1415 
 105   2.0000      -0.923280       -25.1237 
 106   2.0000      -0.919790       -25.0288 
 107   2.0000      -0.907538       -24.6954 
 108   2.0000      -0.886229       -24.1155 
 109   2.0000      -0.884192       -24.0601 
 110   2.0000      -0.876665       -23.8553 
 111   2.0000      -0.874824       -23.8052 
 112   2.0000      -0.859122       -23.3779 
 113   2.0000      -0.839477       -22.8433 
 114   2.0000      -0.828950       -22.5569 
 115   2.0000      -0.826952       -22.5025 
 116   2.0000      -0.823350       -22.4045 
 117   2.0000      -0.820363       -22.3232 
 118   2.0000      -0.810766       -22.0621 
 119   2.0000      -0.805762       -21.9259 
 120   2.0000      -0.803621       -21.8676 
 121   2.0000      -0.800280       -21.7767 
 122   2.0000      -0.799813       -21.7640 
 123   2.0000      -0.780647       -21.2425 
 124   2.0000      -0.779188       -21.2028 
 125   2.0000      -0.760423       -20.6922 
 126   2.0000      -0.758535       -20.6408 
 127   2.0000      -0.752869       -20.4866 
 128   2.0000      -0.742180       -20.1958 
 129   2.0000      -0.732653       -19.9365 
 130   2.0000      -0.725943       -19.7539 
 131   2.0000      -0.718649       -19.5554 
 132   2.0000      -0.704380       -19.1671 
 133   2.0000      -0.702760       -19.1231 
 134   2.0000      -0.701220       -19.0812 
 135   2.0000      -0.696847       -18.9622 
 136   2.0000      -0.690537       -18.7905 
 137   2.0000      -0.672764       -18.3068 
 138   2.0000      -0.665406       -18.1066 
 139   2.0000      -0.659978       -17.9589 
 140   2.0000      -0.650092       -17.6899 
 141   2.0000      -0.647565       -17.6211 
 142   2.0000      -0.641163       -17.4469 
 143   2.0000      -0.639351       -17.3976 
 144   2.0000      -0.636040       -17.3075 
 145   2.0000      -0.632889       -17.2218 
 146   2.0000      -0.629783       -17.1373 
 147   2.0000      -0.620350       -16.8806 
 148   2.0000      -0.606357       -16.4998 
 149   2.0000      -0.602150       -16.3853 
 150   2.0000      -0.593402       -16.1473 
 151   2.0000      -0.592188       -16.1143 
 152   2.0000      -0.588185       -16.0053 
 153   2.0000      -0.580689       -15.8013 
 154   2.0000      -0.578703       -15.7473 
 155   2.0000      -0.575178       -15.6514 
 156   2.0000      -0.573742       -15.6123 
 157   2.0000      -0.569476       -15.4962 
 158   2.0000      -0.561837       -15.2884 
 159   2.0000      -0.552847       -15.0437 
 160   2.0000      -0.551763       -15.0142 
 161   2.0000      -0.543722       -14.7954 
 162   2.0000      -0.540324       -14.7030 
 163   2.0000      -0.538506       -14.6535 
 164   2.0000      -0.530089       -14.4245 
 165   2.0000      -0.525086       -14.2883 
 166   2.0000      -0.523345       -14.2409 
 167   2.0000      -0.521963       -14.2033 
 168   2.0000      -0.519582       -14.1385 
 169   2.0000      -0.519167       -14.1272 
 170   2.0000      -0.518132       -14.0991 
 171   2.0000      -0.516917       -14.0660 
 172   2.0000      -0.510395       -13.8886 
 173   2.0000      -0.501773       -13.6539 
 174   2.0000      -0.498061       -13.5529 
 175   2.0000      -0.492967       -13.4143 
 176   2.0000      -0.488450       -13.2914 
 177   2.0000      -0.486930       -13.2500 
 178   2.0000      -0.484545       -13.1851 
 179   2.0000      -0.484321       -13.1790 
 180   2.0000      -0.483937       -13.1686 
 181   2.0000      -0.482882       -13.1399 
 182   2.0000      -0.480610       -13.0780 
 183   2.0000      -0.477845       -13.0028 
 184   2.0000      -0.474264       -12.9054 
 185   2.0000      -0.471320       -12.8253 
 186   2.0000      -0.469579       -12.7779 
 187   2.0000      -0.467855       -12.7310 
 188   2.0000      -0.465769       -12.6742 
 189   2.0000      -0.464349       -12.6356 
 190   2.0000      -0.462733       -12.5916 
 191   2.0000      -0.460143       -12.5211 
 192   2.0000      -0.459455       -12.5024 
 193   2.0000      -0.455336       -12.3903 
 194   2.0000      -0.450186       -12.2502 
 195   2.0000      -0.448325       -12.1995 
 196   2.0000      -0.446873       -12.1600 
 197   2.0000      -0.442968       -12.0538 
 198   2.0000      -0.437584       -11.9073 
 199   2.0000      -0.435351       -11.8465 
 200   2.0000      -0.433159       -11.7869 
 201   2.0000      -0.430815       -11.7231 
 202   2.0000      -0.430326       -11.7098 
 203   2.0000      -0.429547       -11.6886 
 204   2.0000      -0.428336       -11.6556 
 205   2.0000      -0.427482       -11.6324 
 206   2.0000      -0.425881       -11.5888 
 207   2.0000      -0.423768       -11.5313 
 208   2.0000      -0.421399       -11.4668 
 209   2.0000      -0.421035       -11.4569 
 210   2.0000      -0.417199       -11.3526 
 211   2.0000      -0.414455       -11.2779 
 212   2.0000      -0.411505       -11.1976 
 213   2.0000      -0.410756       -11.1772 
 214   2.0000      -0.408970       -11.1286 
 215   2.0000      -0.402441       -10.9510 
 216   2.0000      -0.402231       -10.9453 
 217   2.0000      -0.399449       -10.8696 
 218   2.0000      -0.394859       -10.7447 
 219   2.0000      -0.393873       -10.7178 
 220   2.0000      -0.393536       -10.7087 
 221   2.0000      -0.392654       -10.6847 
 222   2.0000      -0.392194       -10.6721 
 223   2.0000      -0.388727       -10.5778 
 224   2.0000      -0.387169       -10.5354 
 225   2.0000      -0.386509       -10.5174 
 226   2.0000      -0.384121       -10.4525 
 227   2.0000      -0.382349       -10.4042 
 228   2.0000      -0.380184       -10.3453 
 229   2.0000      -0.379530       -10.3275 
 230   2.0000      -0.377325       -10.2675 
 231   2.0000      -0.376055       -10.2330 
 232   2.0000      -0.369301       -10.0492 
 233   2.0000      -0.367704       -10.0057 
 234   2.0000      -0.365426        -9.9437 
 235   2.0000      -0.363691        -9.8965 
 236   2.0000      -0.363478        -9.8908 
 237   2.0000      -0.362897        -9.8749 
 238   2.0000      -0.361657        -9.8412 
 239   2.0000      -0.361222        -9.8294 
 240   2.0000      -0.356684        -9.7059 
 241   2.0000      -0.355790        -9.6815 
[...]
   264a -> 271a  :     0.286769 (c=  0.53550815)

STATE 44:  E=   0.151818 au      4.131 eV    33320.2 cm**-1
   253a -> 267a  :     0.103660 (c=  0.32196308)
   254a -> 267a  :     0.056706 (c= -0.23813124)
   254a -> 268a  :     0.012168 (c=  0.11030752)
   256a -> 268a  :     0.098681 (c=  0.31413473)
   259a -> 267a  :     0.031636 (c=  0.17786494)
   259a -> 269a  :     0.105763 (c=  0.32521206)
   260a -> 268a  :     0.088092 (c=  0.29680222)
   260a -> 269a  :     0.053734 (c= -0.23180643)
   260a -> 270a  :     0.041722 (c=  0.20425936)
   261a -> 270a  :     0.021947 (c=  0.14814667)
   262a -> 269a  :     0.138403 (c=  0.37202531)
   264a -> 270a  :     0.017900 (c= -0.13378904)
   264a -> 271a  :     0.048614 (c= -0.22048566)
   265a -> 271a  :     0.017540 (c=  0.13243955)

STATE 45:  E=   0.152568 au      4.152 eV    33484.8 cm**-1
   253a -> 267a  :     0.182655 (c=  0.42738111)
   255a -> 267a  :     0.012014 (c= -0.10960747)
   256a -> 268a  :     0.076207 (c=  0.27605548)
   257a -> 268a  :     0.027308 (c=  0.16525257)
   257a -> 270a  :     0.011349 (c= -0.10653016)
   259a -> 267a  :     0.021649 (c= -0.14713625)
   259a -> 268a  :     0.028672 (c= -0.16932714)
   259a -> 269a  :     0.085354 (c= -0.29215414)
   259a -> 270a  :     0.063315 (c= -0.25162374)
   260a -> 267a  :     0.018326 (c= -0.13537329)
   260a -> 268a  :     0.025289 (c= -0.15902655)
   260a -> 269a  :     0.098296 (c= -0.31352243)
   260a -> 270a  :     0.018952 (c= -0.13766715)
   262a -> 268a  :     0.019330 (c= -0.13903405)
   262a -> 269a  :     0.062899 (c= -0.25079744)
   262a -> 270a  :     0.079282 (c= -0.28157104)
   264a -> 270a  :     0.011911 (c=  0.10913742)
   266a -> 274a  :     0.020083 (c= -0.14171527)

STATE 46:  E=   0.153728 au      4.183 eV    33739.4 cm**-1
   255a -> 268a  :     0.024124 (c= -0.15531977)
   255a -> 270a  :     0.010254 (c= -0.10126102)
   259a -> 269a  :     0.363264 (c=  0.60271404)
   259a -> 270a  :     0.048349 (c= -0.21988325)
   260a -> 268a  :     0.021395 (c= -0.14626991)
   260a -> 269a  :     0.019964 (c=  0.14129284)
   260a -> 270a  :     0.428271 (c= -0.65442408)
   262a -> 269a  :     0.011941 (c=  0.10927680)

STATE 47:  E=   0.154335 au      4.200 eV    33872.6 cm**-1
   252a -> 267a  :     0.022591 (c=  0.15030407)
   253a -> 267a  :     0.045180 (c=  0.21255552)
   255a -> 267a  :     0.067501 (c= -0.25980863)
   259a -> 270a  :     0.297565 (c=  0.54549542)
   260a -> 269a  :     0.090067 (c= -0.30011209)
   260a -> 270a  :     0.058681 (c= -0.24224098)
   262a -> 270a  :     0.033696 (c=  0.18356373)
   264a -> 271a  :     0.270856 (c=  0.52043797)
   266a -> 274a  :     0.011875 (c= -0.10897436)

STATE 48:  E=   0.155781 au      4.239 eV    34190.0 cm**-1
   252a -> 267a  :     0.080771 (c=  0.28420289)
   253a -> 267a  :     0.117893 (c=  0.34335576)
   255a -> 267a  :     0.013299 (c= -0.11532044)
   257a -> 268a  :     0.010587 (c= -0.10289210)
   257a -> 269a  :     0.020360 (c=  0.14268879)
   259a -> 268a  :     0.011407 (c=  0.10680218)
   259a -> 270a  :     0.187784 (c= -0.43334072)
   260a -> 269a  :     0.212035 (c=  0.46047230)
   260a -> 270a  :     0.037371 (c=  0.19331469)
   263a -> 271a  :     0.033076 (c=  0.18186912)
   264a -> 271a  :     0.110604 (c=  0.33257192)
   266a -> 274a  :     0.027074 (c= -0.16454295)
   266a -> 276a  :     0.012061 (c=  0.10982374)

STATE 49:  E=   0.156856 au      4.268 eV    34426.0 cm**-1
   252a -> 267a  :     0.011524 (c=  0.10734834)
   260a -> 269a  :     0.011224 (c=  0.10594315)
   263a -> 271a  :     0.761745 (c= -0.87278019)
   263a -> 273a  :     0.023740 (c=  0.15407672)
   266a -> 274a  :     0.048776 (c= -0.22085186)
   266a -> 275a  :     0.063988 (c=  0.25295770)

STATE 50:  E=   0.157348 au      4.282 eV    34534.0 cm**-1
   253a -> 268a  :     0.025886 (c= -0.16089246)
   254a -> 267a  :     0.056418 (c= -0.23752549)
   254a -> 269a  :     0.010213 (c=  0.10105999)
   255a -> 268a  :     0.722178 (c=  0.84981052)
   256a -> 269a  :     0.012983 (c=  0.11394090)
   259a -> 269a  :     0.017216 (c=  0.13121138)
   260a -> 270a  :     0.028209 (c= -0.16795586)
   266a -> 275a  :     0.023694 (c=  0.15392728)


-----------------------------
TD-DFT/TDA-EXCITATION SPECTRA
-----------------------------

Center of mass = ( 21.5129,  2.2968, -0.2243)
Calculating the Dipole integrals                  ... done
Transforming integrals                            ... done
Calculating the Linear Momentum integrals         ... done
Transforming integrals                            ... done
Calculating angular momentum integrals            ... done
Transforming integrals                            ... done

-----------------------------------------------------------------------------
         ABSORPTION SPECTRUM VIA TRANSITION ELECTRIC DIPOLE MOMENTS
-----------------------------------------------------------------------------
State   Energy    Wavelength  fosc         T2        TX        TY        TZ  
        (cm-1)      (nm)                 (au**2)    (au)      (au)      (au) 
-----------------------------------------------------------------------------
   1   14837.7    674.0   2.660711338  59.03472  -7.66448   0.43553  -0.31735
   2   16807.6    595.0   0.136592884   2.67546  -1.02323   0.98920  -0.80619
   3   18310.6    546.1   0.047655965   0.85682   0.84775   0.30315  -0.21506
   4   18519.9    540.0   0.323739569   5.75482  -2.24890   0.52586  -0.64865
   5   19201.2    520.8   0.014225597   0.24390   0.23236   0.41984  -0.11680
   6   20046.6    498.8   0.086279715   1.41692  -1.18606   0.07496   0.06746
   7   21492.7    465.3   0.005552418   0.08505   0.27415  -0.05202  -0.08475
   8   22125.2    452.0   0.392411677   5.83889   0.54852   1.88460  -1.40937
   9   22777.6    439.0   0.174036043   2.51539   1.40428  -0.57533   0.46086
  10   23235.1    430.4   0.026626665   0.37727  -0.07083  -0.48081   0.37559
  11   23767.1    420.7   0.055248799   0.76528  -0.67321   0.45002  -0.33098
  12   24105.2    414.8   0.032186571   0.43958  -0.41944   0.42954  -0.28133
  13   24554.9    407.3   0.008836463   0.11847  -0.30950  -0.14045   0.05440
  14   25225.9    396.4   0.087494577   1.14185  -0.87035   0.54750  -0.29082
  15   25430.1    393.2   0.025988035   0.33644   0.20645  -0.29037   0.45771
  16   25898.5    386.1   0.006127113   0.07789  -0.12698   0.14391  -0.20262
  17   26445.7    378.1   0.001185038   0.01475  -0.11227  -0.03493   0.03045
  18   26582.3    376.2   0.078061613   0.96677  -0.97900   0.04886   0.07711
  19   26687.6    374.7   0.149317960   1.84195   1.26118   0.30538  -0.39765
  20   27060.4    369.5   0.031983811   0.38911  -0.58194  -0.05168  -0.21861
  21   27296.3    366.4   0.102176096   1.23231  -1.04681  -0.00257  -0.36945
  22   27422.6    364.7   0.005091138   0.06112   0.03739   0.20469  -0.13351
  23   27508.4    363.5   0.143179884   1.71353  -0.38313  -1.07242   0.64549
  24   27691.5    361.1   0.028017591   0.33309  -0.11763  -0.29083   0.48443
  25   27854.7    359.0   0.018608244   0.21993  -0.32771   0.06964  -0.32815
  26   28339.1    352.9   0.006054626   0.07034  -0.01285  -0.03724   0.26227
  27   29088.3    343.8   0.014500789   0.16412   0.25706   0.12163   0.28851
  28   29657.0    337.2   0.009592276   0.10648  -0.06385  -0.19099   0.25676
  29   29951.1    333.9   0.014391053   0.15818  -0.15948  -0.33248   0.14901
  30   30122.0    332.0   0.015359497   0.16787   0.17746  -0.30012   0.21517
  31   30299.3    330.0   0.001783171   0.01937   0.05938   0.08930  -0.08874
  32   30975.6    322.8   0.006060270   0.06441   0.06358   0.08657  -0.22994
  33   31092.8    321.6   0.002771794   0.02935  -0.06878   0.03460   0.15304
  34   31216.9    320.3   0.043390633   0.45760   0.31745  -0.43823   0.40592
  35   31367.2    318.8   0.018399691   0.19311   0.33460   0.25673  -0.12349
  36   31382.9    318.6   0.000337713   0.00354   0.05807   0.00433   0.01231
  37   31693.3    315.5   0.012589905   0.13078   0.05558  -0.29647   0.19948
  38   31761.0    314.9   0.020721339   0.21478   0.40618   0.06429   0.21370
  39   31876.7    313.7   0.074941880   0.77397   0.19047   0.68152  -0.52271
  40   32097.1    311.6   0.065893533   0.67585   0.16196  -0.77045   0.23672
  41   32586.5    306.9   0.061827568   0.62463  -0.56811   0.26036  -0.48383
  42   32615.2    306.6   0.098235339   0.99157  -0.12442   0.55024  -0.82056
  43   32919.6    303.8   0.211146932   2.11157   1.25563   0.70689  -0.18780
  44   33320.2    300.1   0.415279750   4.10307   0.84789   0.67672  -1.71061
  45   33484.8    298.6   0.327739717   3.22223   0.30429  -0.30854   1.74196
  46   33739.4    296.4   0.033629527   0.32814  -0.00656  -0.17233   0.54626
  47   33872.6    295.2   0.021609628   0.21003  -0.17417   0.22783  -0.35747
  48   34190.0    292.5   0.070038620   0.67439  -0.70320  -0.21544  -0.36535
  49   34426.0    290.5   0.010228391   0.09781   0.23515  -0.14111   0.15034
  50   34534.0    289.6   0.021904326   0.20881  -0.44452  -0.03801   0.09886

-----------------------------------------------------------------------------
         ABSORPTION SPECTRUM VIA TRANSITION VELOCITY DIPOLE MOMENTS
-----------------------------------------------------------------------------
State   Energy    Wavelength   fosc        P2         PX        PY        PZ  
        (cm-1)      (nm)                 (au**2)     (au)      (au)      (au) 
-----------------------------------------------------------------------------
   1   14837.7    674.0   0.554382622   0.05622   0.22858  -0.03851   0.04987
   2   16807.6    595.0   0.007382489   0.00085   0.01599   0.00468  -0.02388
   3   18310.6    546.1   0.127248489   0.01592  -0.04457   0.09594  -0.06880
   4   18519.9    540.0   0.185388390   0.02347   0.14218   0.03233  -0.04696
   5   19201.2    520.8   0.005427323   0.00071   0.00556   0.02512  -0.00708
   6   20046.6    498.8   0.010878296   0.00149   0.02966  -0.01125   0.02201
   7   21492.7    465.3   0.002579415   0.00038   0.01574  -0.01116  -0.00259
   8   22125.2    452.0   0.018114338   0.00274  -0.04214  -0.02933  -0.01015
   9   22777.6    439.0   0.060947382   0.00949  -0.09652   0.00790  -0.01045
  10   23235.1    430.4   0.008809139   0.00140   0.00794   0.03107  -0.01925
  11   23767.1    420.7   0.050160566   0.00815   0.03290  -0.06882   0.04826
  12   24105.2    414.8   0.002001286   0.00033   0.01759   0.00335  -0.00302
  13   24554.9    407.3   0.002098045   0.00035   0.01207   0.01023  -0.01008
  14   25225.9    396.4   0.034360496   0.00592   0.07591  -0.00736   0.01037
  15   25430.1    393.2   0.012752250   0.00222  -0.04436   0.01472   0.00562
  16   25898.5    386.1   0.026211573   0.00464   0.00296  -0.05360   0.04193
  17   26445.7    378.1   0.002322201   0.00042   0.00282  -0.01179  -0.01652
  18   26582.3    376.2   0.019279243   0.00350   0.05681  -0.00693   0.01508
  19   26687.6    374.7   0.069451816   0.01267  -0.11162  -0.01343   0.00540
  20   27060.4    369.5   0.005652797   0.00105   0.02161  -0.01602   0.01793
  21   27296.3    366.4   0.017577315   0.00328   0.05363   0.01971  -0.00385
  22   27422.6    364.7   0.000114414   0.00002   0.00017  -0.00243   0.00394
  23   27508.4    363.5   0.014361421   0.00270   0.02027   0.04070  -0.02516
  24   27691.5    361.1   0.003277613   0.00062   0.02074   0.01307  -0.00443
  25   27854.7    359.0   0.004374357   0.00083   0.02794  -0.00173   0.00700
  26   28339.1    352.9   0.003535098   0.00068   0.01457   0.01263  -0.01769
  27   29088.3    343.8   0.034046190   0.00677  -0.07876  -0.01469   0.01870
  28   29657.0    337.2   0.001050612   0.00021   0.00044   0.01225  -0.00792
  29   29951.1    333.9   0.000526304   0.00011   0.00695   0.00752  -0.00170
  30   30122.0    332.0   0.005270856   0.00109   0.02546   0.01255  -0.01672
  31   30299.3    330.0   0.000445687   0.00009   0.00423  -0.00521  -0.00688
  32   30975.6    322.8   0.002226140   0.00047  -0.01874   0.01091   0.00107
  33   31092.8    321.6   0.008180856   0.00174  -0.03305  -0.01117   0.02284
  34   31216.9    320.3   0.014030751   0.00299  -0.04826   0.02299  -0.01165
  35   31367.2    318.8   0.006758767   0.00145  -0.03729   0.00716  -0.00263
  36   31382.9    318.6   0.000248624   0.00005  -0.00651   0.00193  -0.00269
  37   31693.3    315.5   0.001150540   0.00025  -0.00596   0.00209   0.01447
  38   31761.0    314.9   0.002603184   0.00057  -0.02116  -0.00975  -0.00473
  39   31876.7    313.7   0.009128217   0.00199  -0.01283   0.02844  -0.03186
  40   32097.1    311.6   0.005262340   0.00115  -0.00692  -0.02592   0.02085
  41   32586.5    306.9   0.035897478   0.00799   0.08475  -0.01086   0.02635
  42   32615.2    306.6   0.004003270   0.00089   0.00334  -0.02523   0.01564
  43   32919.6    303.8   0.002136525   0.00048  -0.00979  -0.01877   0.00572
  44   33320.2    300.1   0.027085770   0.00617   0.05816   0.03581  -0.03877
  45   33484.8    298.6   0.010396299   0.00238  -0.03013  -0.00710   0.03770
  46   33739.4    296.4   0.000118833   0.00003  -0.00211   0.00090   0.00470
  47   33872.6    295.2   0.002149459   0.00050   0.00884  -0.01622  -0.01250
  48   34190.0    292.5   0.009312254   0.00218   0.04474  -0.00173  -0.01311
  49   34426.0    290.5   0.043744542   0.01029  -0.10002   0.01419  -0.00935
  50   34534.0    289.6   0.004680111   0.00110  -0.00731  -0.02184   0.02396

-------------------------------------------------------------------
                             CD SPECTRUM
-------------------------------------------------------------------
State  Energy     Wavelength     R         MX        MY        MZ   
       (cm-1)       (nm)     (1e40*cgs)   (au)      (au)      (au)  
-------------------------------------------------------------------
   1   14837.7    674.0    326.24465  -0.08229  -0.22535  -0.50247
   2   16807.6    595.0    -81.65269  -0.00994  -0.41878  -0.28641
   3   18310.6    546.1      2.42438  -0.02142   0.11023   0.04704
   4   18519.9    540.0    -11.20188  -0.00038  -0.19544  -0.12050
   5   19201.2    520.8     59.36912  -0.04172   0.34064   0.06327
   6   20046.6    498.8     -0.26832  -0.07928  -0.60997  -0.72450
   7   21492.7    465.3    -14.82419   0.02619   0.24488   0.30543
   8   22125.2    452.0    -226.67809   0.03090  -0.32575  -0.08241
   9   22777.6    439.0     56.16581   0.05432   0.14236   0.27071
  10   23235.1    430.4    -26.38268   0.03557   0.16772   0.07242
  11   23767.1    420.7    -19.14300  -0.00615  -0.25144  -0.20670
  12   24105.2    414.8     -3.90353  -0.05885  -0.24033  -0.24977
  13   24554.9    407.3      0.95210   0.03945  -0.18326  -0.21158
  14   25225.9    396.4     33.04051  -0.03623  -0.04040  -0.20859
  15   25430.1    393.2    -18.41469  -0.05094   0.05483  -0.02757
  16   25898.5    386.1      0.19998  -0.00471  -0.07768  -0.05431
  17   26445.7    378.1     -8.85297   0.11390   0.06413  -0.12317
  18   26582.3    376.2      4.69667  -0.02960  -0.20703  -0.11538
  19   26687.6    374.7      3.83732  -0.00784   0.25732   0.15228
  20   27060.4    369.5    -13.15075   0.06035   0.02095  -0.03799
  21   27296.3    366.4     36.31159  -0.01499  -0.10590  -0.16527
  22   27422.6    364.7     -1.49876   0.19459  -0.05472  -0.00557
  23   27508.4    363.5    -13.41976   0.05443   0.08296   0.12604
  24   27691.5    361.1     15.71997  -0.11448  -0.05814   0.00613
  25   27854.7    359.0    -18.14890  -0.03356   0.09831   0.17168
  26   28339.1    352.9     -5.46375   0.03143   0.04289  -0.03656
  27   29088.3    343.8     67.78931   0.07030   0.29231   0.31251
  28   29657.0    337.2      0.35214  -0.00458  -0.04376  -0.03078
  29   29951.1    333.9     -9.80067  -0.00850   0.06492  -0.00376
  30   30122.0    332.0      2.98481  -0.02088   0.00241   0.05000
  31   30299.3    330.0      0.69039  -0.00027   0.03638   0.01992
  32   30975.6    322.8     -8.92451   0.01511  -0.02384   0.07753
  33   31092.8    321.6      8.47351   0.03921   0.08610   0.11561
  34   31216.9    320.3      9.72660   0.04518   0.12898   0.15474
  35   31367.2    318.8     13.02401   0.01304   0.17913   0.18403
  36   31382.9    318.6      1.20819   0.03805   0.02755   0.01898
  37   31693.3    315.5     -4.59945   0.05188   0.09970   0.08481
  38   31761.0    314.9    -14.03044   0.00280  -0.15959  -0.09656
  39   31876.7    313.7     -8.37200  -0.05672  -0.01489  -0.00611
  40   32097.1    311.6    -41.46283   0.03505   0.15178   0.09851
  41   32586.5    306.9     61.49925  -0.04939  -0.26059  -0.35185
  42   32615.2    306.6      7.78971  -0.02799  -0.12552  -0.10006
  43   32919.6    303.8    -63.82011   0.01293  -0.25266  -0.14374
  44   33320.2    300.1     16.99466  -0.09441  -0.15990  -0.13112
  45   33484.8    298.6     10.01748   0.13208   0.04047  -0.00371
  46   33739.4    296.4      2.76164   0.02966   0.02765   0.01980
  47   33872.6    295.2      2.18070  -0.04572  -0.15350  -0.08850
  48   34190.0    292.5     25.20683  -0.05511   0.00577  -0.04366
  49   34426.0    290.5      8.48659   0.03509   0.15644   0.21168
  50   34534.0    289.6     -5.77262   0.01265   0.04935  -0.04799

Total run time:    20466.475 sec

           *** ORCA-CIS/TD-DFT FINISHED WITHOUT ERROR ***

-----------------------
CIS/TD-DFT TOTAL ENERGY
-----------------------

    E(SCF)  =  -4710.903190158 Eh
    DE(CIS) =      0.067605421 Eh (Root  1)
    ----------------------------- ---------
    E(tot)  =  -4710.835584737 Eh


-------------------------   --------------------
FINAL SINGLE POINT ENERGY     -4710.835584737441
-------------------------   --------------------


                            ***************************************
                            *     ORCA property calculations      *
                            ***************************************

                                    ---------------------
                                    Active property flags
                                    ---------------------
   (+) Dipole Moment


------------------------------------------------------------------------------
                       ORCA ELECTRIC PROPERTIES CALCULATION
------------------------------------------------------------------------------

Dipole Moment Calculation                       ... on
Quadrupole Moment Calculation                   ... off
Polarizability Calculation                      ... off
GBWName                                         ... Y11.orcainp.gbw
Electron density file                           ... Y11.orcainp.scfp
The origin for moment calculation is the CENTER OF MASS  = (21.512870,  2.296842 -0.224298)

-------------
DIPOLE MOMENT
-------------
                                X             Y             Z
Electronic contribution:     15.76960      47.58210     -18.91176
Nuclear contribution   :    -15.21772     -49.24969      20.68942
                        -----------------------------------------
Total Dipole Moment    :      0.55188      -1.66759       1.77766
                        -----------------------------------------
Magnitude (a.u.)       :      2.49910
Magnitude (Debye)      :      6.35221



--------------------
Rotational spectrum 
--------------------
 
Rotational constants in cm-1:     0.001547     0.000258     0.000228 
Rotational constants in MHz :    46.387675     7.730200     6.834428 

 Dipole components along the rotational axes: 
x,y,z [a.u.] :     0.891808     2.329230     0.157678 
x,y,z [Debye]:     2.266796     5.920433     0.400786 

 

Timings for individual modules:

Sum of individual times         ...    26241.884 sec (= 437.365 min)
GTO integral calculation        ...       21.076 sec (=   0.351 min)   0.1 %
SCF iterations                  ...     5750.435 sec (=  95.841 min)  21.9 %
CIS module                      ...    20470.373 sec (= 341.173 min)  78.0 %
                             ****ORCA TERMINATED NORMALLY****
TOTAL RUN TIME: 0 days 7 hours 17 minutes 24 seconds 438 msec
