
                                 *****************
                                 * O   R   C   A *
                                 *****************

           --- An Ab Initio, DFT and Semiempirical electronic structure package ---

                  #######################################################
                  #                        -***-                        #
                  #          Department of theory and spectroscopy      #
                  #               Directorship: Frank Neese             #
                  #        Max Planck Institute fuer Kohlenforschung    #
                  #                Kaiser Wilhelm Platz 1               #
                  #                 D-45470 Muelheim/Ruhr               #
                  #                      Germany                        #
                  #                                                     #
                  #                  All rights reserved                #
                  #                        -***-                        #
                  #######################################################


                         Program Version 4.2.0 -  RELEASE  -


 With contributions from (in alphabetic order):
   Daniel Aravena         : Magnetic Suceptibility
   Michael Atanasov       : Ab Initio Ligand Field Theory (pilot matlab implementation)
   Alexander A. Auer      : GIAO ZORA, VPT2
   Ute Becker             : Parallelization
   Giovanni Bistoni       : ED, misc. LED, open-shell LED, HFLED
   Martin Brehm           : Molecular dynamics
   Dmytro Bykov           : SCF Hessian
   Vijay G. Chilkuri      : MRCI spin determinant printing, contributions to CSF-ICE
   Dipayan Datta          : RHF DLPNO-CCSD density
   Achintya Kumar Dutta   : EOM-CC, STEOM-CC
   Dmitry Ganyushin       : Spin-Orbit,Spin-Spin,Magnetic field MRCI
   Miquel Garcia          : C-PCM Hessian, Gaussian charge scheme
   Yang Guo               : DLPNO-NEVPT2, CIM, IAO-localization
   Andreas Hansen         : Spin unrestricted coupled pair/coupled cluster methods
   Benjamin Helmich-Paris : CASSCF linear response (MC-RPA)
   Lee Huntington         : MR-EOM, pCC
   Robert Izsak           : Overlap fitted RIJCOSX, COSX-SCS-MP3, EOM
   Christian Kollmar      : KDIIS, OOCD, Brueckner-CCSD(T), CCSD density
   Simone Kossmann        : Meta GGA functionals, TD-DFT gradient, OOMP2, MP2 Hessian
   Martin Krupicka        : AUTO-CI
   Lucas Lang             : DCDCAS
   Dagmar Lenk            : GEPOL surface, SMD
   Dimitrios Liakos       : Extrapolation schemes; Compound Job, initial MDCI parallelization
   Dimitrios Manganas     : Further ROCIS development; embedding schemes
   Dimitrios Pantazis     : SARC Basis sets
   Taras Petrenko         : DFT Hessian,TD-DFT gradient, ASA, ECA, R-Raman, ABS, FL, XAS/XES, NRVS
   Peter Pinski           : DLPNO-MP2, DLPNO-MP2 Gradient
   Christoph Reimann      : Effective Core Potentials
   Marius Retegan         : Local ZFS, SOC
   Christoph Riplinger    : Optimizer, TS searches, QM/MM, DLPNO-CCSD(T), (RO)-DLPNO pert. Triples
   Tobias Risthaus        : Range-separated hybrids, TD-DFT gradient, RPA, STAB
   Michael Roemelt        : Original ROCIS implementation
   Masaaki Saitow         : Open-shell DLPNO-CCSD energy and density
   Barbara Sandhoefer     : DKH picture change effects
   Avijit Sen             : IP-ROCIS
   Kantharuban Sivalingam : CASSCF convergence, NEVPT2, FIC-MRCI
   Bernardo de Souza      : ESD, SOC TD-DFT
   Georgi Stoychev        : AutoAux, RI-MP2 NMR
   Willem Van den Heuvel  : Paramagnetic NMR
   Boris Wezisla          : Elementary symmetry handling
   Frank Wennmohs         : Technical directorship


 We gratefully acknowledge several colleagues who have allowed us to
 interface, adapt or use parts of their codes:
   Stefan Grimme, W. Hujo, H. Kruse,             : VdW corrections, initial TS optimization,
                  C. Bannwarth                     DFT functionals, gCP, sTDA/sTD-DF
   Ed Valeev, F. Pavosevic, A. Kumar             : LibInt (2-el integral package), F12 methods
   Garnet Chan, S. Sharma, J. Yang, R. Olivares  : DMRG
   Ulf Ekstrom                                   : XCFun DFT Library
   Mihaly Kallay                                 : mrcc  (arbitrary order and MRCC methods)
   Andreas Klamt, Michael Diedenhofen            : otool_cosmo (COSMO solvation model)
   Jiri Pittner, Ondrej Demel                    : Mk-CCSD
   Frank Weinhold                                : gennbo (NPA and NBO analysis)
   Christopher J. Cramer and Donald G. Truhlar   : smd solvation model
   Lars Goerigk                                  : TD-DFT with DH, B97 family of functionals
   V. Asgeirsson, H. Jonsson                     : NEB implementation
   FAccTs GmbH                                   : IRC, NEB, NEB-TS, Multilevel, MM, QM/MM, CI optimization
   S Lehtola, MJT Oliveira, MAL Marques          : LibXC Library


 Your calculation uses the libint2 library for the computation of 2-el integrals
 For citations please refer to: http://libint.valeyev.net

 Your ORCA version has been built with support for libXC version: 4.2.3
 For citations please refer to: https://tddft.org/programs/libxc/

 This ORCA versions uses:
   CBLAS   interface :  Fast vector & matrix operations
   LAPACKE interface :  Fast linear algebra routines
   SCALAPACK package :  Parallel linear algebra routines


----- Orbital basis set information -----
Your calculation utilizes the basis: def2-TZVP
   F. Weigend and R. Ahlrichs, Phys. Chem. Chem. Phys. 7, 3297 (2005).

----- AuxJ basis set information -----
Your calculation utilizes the auxiliary basis: def2/J
   F. Weigend, Phys. Chem. Chem. Phys. 8, 1057 (2006).

================================================================================
                                        WARNINGS
                       Please study these warnings very carefully!
================================================================================

INFO   : Checking CIS options ...

WARNING: CIS/ROCIS methods need fully converged wavefunctions
  ===> : Setting SCFConvForced true
         You can overwrite this default with %scf ConvForced false 


INFO   : the flag for use of LIBINT has been found!

================================================================================
                                       INPUT FILE
================================================================================
NAME = Y11.inp
|  1> # ORCA input file
|  2> # ../Y11.out
|  3> ! B3LYP def2-TZVP def2/J RIJCOSX Grid4 TightSCF
|  4> %maxcore 10000
|  5> %tddft
|  6>   maxdim 5
|  7>   nroots 50
|  8>   end
|  9> * xyz 0 1
| 10>    C        2.91351         2.30544        -2.28313
| 11>    O        1.90047         1.66990        -2.46205
| 12>    C        3.49562         3.35185        -3.15901
| 13>    C        3.05832         3.78489        -4.39473
| 14>    C        3.80379         4.76272        -5.03499
| 15>    F        3.41933         5.20659        -6.23793
| 16>    C        4.95245         5.28758        -4.44215
| 17>    F        5.65840         6.22089        -5.09081
| 18>    C        5.38633         4.86262        -3.19498
| 19>    C        4.64804         3.88310        -2.55257
| 20>    C        4.81589         3.25726        -1.24164
| 21>    C        5.52285         3.78725        -0.19214
| 22>    C        5.37040         3.33412         1.13501
| 23>    N        5.21781         3.02287         2.22955
| 24>    C        6.41227         4.87219        -0.30527
| 25>    N        7.17907         5.72558        -0.34813
| 26>    C        3.87961         2.16220        -1.16917
| 27>    C        3.83223         1.05395        -0.36922
| 28>    C        4.84995         0.47212         0.40514
| 29>    S        6.55303         0.84744         0.12937
| 30>    C        7.02167        -0.28675         1.33638
| 31>    C        5.90824        -0.93290         1.89548
| 32>    C        4.68369        -0.52207         1.36995
| 33>    C        3.36390        -1.00809         1.86370
| 34>    C        2.75986        -0.00150         2.84674
| 35>    S        6.33618        -2.11375         3.11424
| 36>    C        8.00768        -1.73141         2.86953
| 37>    C        8.21520        -0.72985         1.89984
| 38>    N        9.54757        -0.47264         1.78204
| 39>    C       10.07703         0.50039         0.86104
| 40>    C       10.00136         1.91450         1.43247
| 41>    C       10.21274        -1.29423         2.66384
| 42>    C        9.26391        -2.11132         3.34183
| 43>    C        9.70348        -3.06589         4.30044
| 44>    N        9.02041        -3.88731         5.09414
| 45>    N        9.94001        -4.58805         5.70836
| 46>    C        9.60371        -5.62781         6.63777
| 47>    C        9.17042        -6.88925         5.89794
| 48>    N       11.18191        -4.31188         5.38577
| 49>    C       11.08129        -3.33036         4.49721
| 50>    C       12.09895        -2.63181         3.73326
| 51>    C       11.58563        -1.46432         2.92253
| 52>    N       12.67587        -0.70504         3.11604
| 53>    C       13.23034         0.51682         2.61061
| 54>    C       13.28551         1.56816         3.71711
| 55>    C       13.30533        -1.57294         4.03485
| 56>    C       13.24286        -3.37249         3.11441
| 57>    S       14.21312        -4.63084         2.30090
| 58>    C       15.35819        -3.25173         2.81842
| 59>    C       14.25781        -2.50218         3.34559
| 60>    S       19.16331        -3.84764         1.95760
| 61>    C       17.57768        -4.14633         2.32383
| 62>    C       16.69667        -3.12107         2.81100
| 63>    C       17.27242        -1.80970         3.27632
| 64>    C       17.42824        -0.83452         2.10875
| 65>    C       17.15708        -5.51631         2.13604
| 66>    C       16.42642        -6.23932         3.01954
| 67>    C       15.89994        -7.58675         2.83579
| 68>    C       16.26906        -8.48947         1.88066
| 69>    C       15.71445        -9.78377         1.76340
| 70>    N       15.30298       -10.84526         1.62447
| 71>    C       17.26780        -8.27806         0.90306
| 72>    N       18.06088        -8.18636         0.07943
| 73>    C       14.88876        -7.79620         3.86976
| 74>    C       13.98108        -8.82837         4.05917
| 75>    C       13.10300        -8.73184         5.12711
| 76>    F       12.20736        -9.70752         5.32273
| 77>    C       13.12011        -7.63995         5.99652
| 78>    F       12.25156        -7.59682         7.01551
| 79>    C       14.02015        -6.60424         5.81588
| 80>    C       14.89300        -6.70024         4.75001
| 81>    C       15.93207        -5.73453         4.33689
| 82>    O       16.34111        -4.78852         4.96694
| 83>    H        2.16951         3.38077        -4.85236
| 84>    H        6.27977         5.29416        -2.77347
| 85>    H        2.90263         0.49518        -0.42184
| 86>    H        3.51084        -1.96566         2.36690
| 87>    H        2.67841        -1.15605         1.02685
| 88>    H        3.42357         0.14100         3.69567
| 89>    H        1.80210        -0.36468         3.20926
| 90>    H        2.61197         0.96150         2.36407
| 91>    H        9.48213         0.44891        -0.05639
| 92>    H       11.10374         0.22007         0.61441
| 93>    H       10.53219         1.97980         2.37861
| 94>    H        8.96424         2.19304         1.60267
| 95>    H       10.43628         2.62304         0.73352
| 96>    H        8.78984        -5.26364         7.26813
| 97>    H       10.48890        -5.82012         7.24424
| 98>    H        8.29023        -6.68508         5.29374
| 99>    H        8.93682        -7.67166         6.61334
|100>    H        9.96746        -7.24153         5.24807
|101>    H       12.64214         0.87955         1.76870
|102>    H       14.24939         0.30430         2.26530
|103>    H       12.28795         1.78422         4.09236
|104>    H       13.72334         2.48511         3.33385
|105>    H       13.89084         1.20476         4.54321
|106>    H       18.24669        -1.99435         3.72848
|107>    H       16.61044        -1.38303         4.03080
|108>    H       18.13224        -1.22421         1.37827
|109>    H       17.80043         0.12005         2.47148
|110>    H       16.47277        -0.67252         1.61290
|111>    H       17.53922        -5.99452         1.24347
|112>    H       13.92466        -9.68957         3.41384
|113>    H       14.02553        -5.75009         6.47348
|114> *
|115> 
|116>                          ****END OF INPUT****
================================================================================

                       ****************************
                       * Single Point Calculation *
                       ****************************

---------------------------------
CARTESIAN COORDINATES (ANGSTROEM)
---------------------------------
  C      2.913510    2.305440   -2.283130
  O      1.900470    1.669900   -2.462050
  C      3.495620    3.351850   -3.159010
  C      3.058320    3.784890   -4.394730
  C      3.803790    4.762720   -5.034990
  F      3.419330    5.206590   -6.237930
  C      4.952450    5.287580   -4.442150
  F      5.658400    6.220890   -5.090810
  C      5.386330    4.862620   -3.194980
  C      4.648040    3.883100   -2.552570
  C      4.815890    3.257260   -1.241640
  C      5.522850    3.787250   -0.192140
  C      5.370400    3.334120    1.135010
  N      5.217810    3.022870    2.229550
  C      6.412270    4.872190   -0.305270
  N      7.179070    5.725580   -0.348130
  C      3.879610    2.162200   -1.169170
  C      3.832230    1.053950   -0.369220
  C      4.849950    0.472120    0.405140
  S      6.553030    0.847440    0.129370
  C      7.021670   -0.286750    1.336380
  C      5.908240   -0.932900    1.895480
  C      4.683690   -0.522070    1.369950
  C      3.363900   -1.008090    1.863700
  C      2.759860   -0.001500    2.846740
  S      6.336180   -2.113750    3.114240
  C      8.007680   -1.731410    2.869530
  C      8.215200   -0.729850    1.899840
  N      9.547570   -0.472640    1.782040
  C     10.077030    0.500390    0.861040
  C     10.001360    1.914500    1.432470
  C     10.212740   -1.294230    2.663840
  C      9.263910   -2.111320    3.341830
  C      9.703480   -3.065890    4.300440
  N      9.020410   -3.887310    5.094140
  N      9.940010   -4.588050    5.708360
  C      9.603710   -5.627810    6.637770
  C      9.170420   -6.889250    5.897940
  N     11.181910   -4.311880    5.385770
  C     11.081290   -3.330360    4.497210
  C     12.098950   -2.631810    3.733260
  C     11.585630   -1.464320    2.922530
  N     12.675870   -0.705040    3.116040
  C     13.230340    0.516820    2.610610
  C     13.285510    1.568160    3.717110
  C     13.305330   -1.572940    4.034850
  C     13.242860   -3.372490    3.114410
  S     14.213120   -4.630840    2.300900
  C     15.358190   -3.251730    2.818420
  C     14.257810   -2.502180    3.345590
  S     19.163310   -3.847640    1.957600
  C     17.577680   -4.146330    2.323830
  C     16.696670   -3.121070    2.811000
  C     17.272420   -1.809700    3.276320
  C     17.428240   -0.834520    2.108750
  C     17.157080   -5.516310    2.136040
  C     16.426420   -6.239320    3.019540
  C     15.899940   -7.586750    2.835790
  C     16.269060   -8.489470    1.880660
  C     15.714450   -9.783770    1.763400
  N     15.302980  -10.845260    1.624470
  C     17.267800   -8.278060    0.903060
  N     18.060880   -8.186360    0.079430
  C     14.888760   -7.796200    3.869760
  C     13.981080   -8.828370    4.059170
  C     13.103000   -8.731840    5.127110
  F     12.207360   -9.707520    5.322730
  C     13.120110   -7.639950    5.996520
  F     12.251560   -7.596820    7.015510
  C     14.020150   -6.604240    5.815880
  C     14.893000   -6.700240    4.750010
  C     15.932070   -5.734530    4.336890
  O     16.341110   -4.788520    4.966940
  H      2.169510    3.380770   -4.852360
  H      6.279770    5.294160   -2.773470
  H      2.902630    0.495180   -0.421840
  H      3.510840   -1.965660    2.366900
  H      2.678410   -1.156050    1.026850
  H      3.423570    0.141000    3.695670
  H      1.802100   -0.364680    3.209260
  H      2.611970    0.961500    2.364070
  H      9.482130    0.448910   -0.056390
  H     11.103740    0.220070    0.614410
  H     10.532190    1.979800    2.378610
  H      8.964240    2.193040    1.602670
  H     10.436280    2.623040    0.733520
  H      8.789840   -5.263640    7.268130
  H     10.488900   -5.820120    7.244240
  H      8.290230   -6.685080    5.293740
  H      8.936820   -7.671660    6.613340
  H      9.967460   -7.241530    5.248070
  H     12.642140    0.879550    1.768700
  H     14.249390    0.304300    2.265300
  H     12.287950    1.784220    4.092360
  H     13.723340    2.485110    3.333850
  H     13.890840    1.204760    4.543210
  H     18.246690   -1.994350    3.728480
  H     16.610440   -1.383030    4.030800
  H     18.132240   -1.224210    1.378270
  H     17.800430    0.120050    2.471480
  H     16.472770   -0.672520    1.612900
  H     17.539220   -5.994520    1.243470
  H     13.924660   -9.689570    3.413840
  H     14.025530   -5.750090    6.473480

----------------------------
CARTESIAN COORDINATES (A.U.)
----------------------------
  NO LB      ZA    FRAG     MASS         X           Y           Z
   0 C     6.0000    0    12.011    5.505736    4.356650   -4.314490
   1 O     8.0000    0    15.999    3.591368    3.155654   -4.652600
   2 C     6.0000    0    12.011    6.605764    6.334079   -5.969664
   3 C     6.0000    0    12.011    5.779387    7.152406   -8.304836
   4 C     6.0000    0    12.011    7.188121    9.000236   -9.514752
   5 F     9.0000    0    18.998    6.461597    9.839029  -11.787979
   6 C     6.0000    0    12.011    9.358774    9.992078   -8.394447
   7 F     9.0000    0    18.998   10.692826   11.755778   -9.620237
   8 C     6.0000    0    12.011   10.178689    9.189020   -6.037637
   9 C     6.0000    0    12.011    8.783523    7.337996   -4.823658
  10 C     6.0000    0    12.011    9.100713    6.155329   -2.346360
  11 C     6.0000    0    12.011   10.436674    7.156865   -0.363092
  12 C     6.0000    0    12.011   10.148585    6.300574    2.144858
  13 N     7.0000    0    14.007    9.860232    5.712396    4.213239
  14 C     6.0000    0    12.011   12.117434    9.207105   -0.576877
  15 N     7.0000    0    14.007   13.566476   10.819778   -0.657870
  16 C     6.0000    0    12.011    7.331400    4.085966   -2.209411
  17 C     6.0000    0    12.011    7.241865    1.991677   -0.697725
  18 C     6.0000    0    12.011    9.165077    0.892178    0.765604
  19 S    16.0000    0    32.060   12.383432    1.601430    0.244474
  20 C     6.0000    0    12.011   13.269033   -0.541879    2.525392
  21 C     6.0000    0    12.011   11.164956   -1.762926    3.581938
  22 C     6.0000    0    12.011    8.850891   -0.986569    2.588830
  23 C     6.0000    0    12.011    6.356850   -1.905014    3.521883
  24 C     6.0000    0    12.011    5.215380   -0.002835    5.379559
  25 S    16.0000    0    32.060   11.973645   -3.994409    5.885061
  26 C     6.0000    0    12.011   15.132322   -3.271891    5.422626
  27 C     6.0000    0    12.011   15.524478   -1.379217    3.590177
  28 N     7.0000    0    14.007   18.042293   -0.893160    3.367568
  29 C     6.0000    0    12.011   19.042827    0.945600    1.627130
  30 C     6.0000    0    12.011   18.899831    3.617881    2.706976
  31 C     6.0000    0    12.011   19.299282   -2.445740    5.033928
  32 C     6.0000    0    12.011   17.506253   -3.989817    6.315143
  33 C     6.0000    0    12.011   18.336920   -5.793692    8.126654
  34 N     7.0000    0    14.007   17.046105   -7.345951    9.626529
  35 N     7.0000    0    14.007   18.783897   -8.670158   10.787237
  36 C     6.0000    0    12.011   18.148382  -10.635020   12.543567
  37 C     6.0000    0    12.011   17.329582  -13.018796   11.145491
  38 N     7.0000    0    14.007   21.130748   -8.148272   10.177630
  39 C     6.0000    0    12.011   20.940603   -6.293468    8.498495
  40 C     6.0000    0    12.011   22.863702   -4.973400    7.054839
  41 C     6.0000    0    12.011   21.893668   -2.767164    5.522781
  42 N     7.0000    0    14.007   23.953923   -1.332333    5.888462
  43 C     6.0000    0    12.011   25.001719    0.976648    4.933338
  44 C     6.0000    0    12.011   25.105975    2.963393    7.024320
  45 C     6.0000    0    12.011   25.143430   -2.972426    7.624761
  46 C     6.0000    0    12.011   25.025379   -6.373082    5.885382
  47 S    16.0000    0    32.060   26.858904   -8.751019    4.348071
  48 C     6.0000    0    12.011   29.022773   -6.144879    5.326042
  49 C     6.0000    0    12.011   26.943356   -4.728435    6.322249
  50 S    16.0000    0    32.060   36.213408   -7.270986    3.699328
  51 C     6.0000    0    12.011   33.217001   -7.835428    4.391402
  52 C     6.0000    0    12.011   31.552134   -5.897968    5.312020
  53 C     6.0000    0    12.011   32.640143   -3.419837    6.191348
  54 C     6.0000    0    12.011   32.934601   -1.577014    3.984960
  55 C     6.0000    0    12.011   32.422182  -10.424315    4.036531
  56 C     6.0000    0    12.011   31.041435  -11.790606    5.706104
  57 C     6.0000    0    12.011   30.046532  -14.336880    5.358866
  58 C     6.0000    0    12.011   30.744068  -16.042773    3.553932
  59 C     6.0000    0    12.011   29.696007  -18.488646    3.332343
  60 N     7.0000    0    14.007   28.918441  -20.494571    3.069803
  61 C     6.0000    0    12.011   32.631413  -15.643266    1.706536
  62 N     7.0000    0    14.007   34.130117  -15.469978    0.150101
  63 C     6.0000    0    12.011   28.135679  -14.732683    7.312787
  64 C     6.0000    0    12.011   26.420412  -16.683202    7.670720
  65 C     6.0000    0    12.011   24.761082  -16.500786    9.688834
  66 F     9.0000    0    18.998   23.068567  -18.344554   10.058502
  67 C     6.0000    0    12.011   24.793415  -14.437413   11.331781
  68 F     9.0000    0    18.998   23.152093  -14.355909   13.257393
  69 C     6.0000    0    12.011   26.494244  -12.480205   10.990420
  70 C     6.0000    0    12.011   28.143691  -12.661619    8.976218
  71 C     6.0000    0    12.011   30.107249  -10.836691    8.195534
  72 O     8.0000    0    15.999   30.880223   -9.048991    9.386156
  73 H     1.0000    0     1.008    4.099780    6.388729   -9.169632
  74 H     1.0000    0     1.008   11.867045   10.004513   -5.241099
  75 H     1.0000    0     1.008    5.485176    0.935755   -0.797162
  76 H     1.0000    0     1.008    6.634526   -3.714559    4.472793
  77 H     1.0000    0     1.008    5.061461   -2.184618    1.940465
  78 H     1.0000    0     1.008    6.469610    0.266451    6.983804
  79 H     1.0000    0     1.008    3.405475   -0.689145    6.064622
  80 H     1.0000    0     1.008    4.935908    1.816972    4.467445
  81 H     1.0000    0     1.008   17.918629    0.848317   -0.106562
  82 H     1.0000    0     1.008   20.983028    0.415872    1.161067
  83 H     1.0000    0     1.008   19.902955    3.741280    4.494921
  84 H     1.0000    0     1.008   16.939959    4.144245    3.028607
  85 H     1.0000    0     1.008   19.721711    4.956827    1.386152
  86 H     1.0000    0     1.008   16.610390   -9.946838   13.734775
  87 H     1.0000    0     1.008   19.821148  -10.998433   13.689630
  88 H     1.0000    0     1.008   15.666264  -12.632970   10.003719
  89 H     1.0000    0     1.008   16.888142  -14.497336   12.497401
  90 H     1.0000    0     1.008   18.835770  -13.684508    9.917415
  91 H     1.0000    0     1.008   23.890182    1.662109    3.342359
  92 H     1.0000    0     1.008   26.927445    0.575044    4.280797
  93 H     1.0000    0     1.008   23.220860    3.371687    7.733440
  94 H     1.0000    0     1.008   25.933354    4.696177    6.300063
  95 H     1.0000    0     1.008   26.249883    2.276666    8.585423
  96 H     1.0000    0     1.008   34.481247   -3.768775    7.045806
  97 H     1.0000    0     1.008   31.389183   -2.613548    7.617108
  98 H     1.0000    0     1.008   34.264968   -2.313422    2.604553
  99 H     1.0000    0     1.008   33.637938    0.226862    4.670420
 100 H     1.0000    0     1.008   31.129024   -1.270879    3.047939
 101 H     1.0000    0     1.008   33.144322  -11.328001    2.349818
 102 H     1.0000    0     1.008   26.313794  -18.310634    6.451223
 103 H     1.0000    0     1.008   26.504411  -10.866095   12.233104

--------------------------------
INTERNAL COORDINATES (ANGSTROEM)
--------------------------------
 C      0   0   0     0.000000000000     0.00000000     0.00000000
 O      1   0   0     1.209203663408     0.00000000     0.00000000
 C      1   2   0     1.483573966676   127.73952784     0.00000000
 C      3   1   2     1.380492249163   128.71387982   356.31802067
 C      4   3   1     1.386293582687   117.66713561   181.68403680
 F      5   4   3     1.338616715905   119.63568134   179.66327256
 C      5   4   3     1.395119020299   120.78723901   359.83491443
 F      7   5   4     1.337980849713   119.39507446   179.33807844
 C      7   5   4     1.387182707829   121.62246812   359.55704366
 C      9   7   5     1.384637917508   117.84424789     0.62841954
 C     10   9   7     1.462322397079   131.10790441   181.79176581
 C     11  10   9     1.371908193612   125.42304428    20.74040414
 C     12  11  10     1.410636353530   122.67910747   162.88714710
 N     13  12  11     1.148119367575   176.71506652   249.32220054
 C     12  11  10     1.407466211637   124.19020175   346.38952722
 N     15  12  11     1.148082624074   176.41927260   215.75065823
 C     11  10   9     1.442577049207   107.18239999   188.38736910
 C     17  11  10     1.367619438806   131.83639795   160.30417092
 C     18  17  11     1.404960339974   129.26272650   342.52191135
 S     19  18  17     1.765614816912   121.64154361   342.61407589
 C     20  19  18     1.721302862892    90.74639369   183.43869325
 C     21  20  19     1.403505966286   111.51231475     1.11625725
 C     22  21  20     1.394448196349   114.26106171   359.68939875
 C     23  22  21     1.490587181952   123.82357007   183.74732261
 C     24  23  22     1.531161451742   110.34116073    97.72181204
 S     22  21  20     1.750118654177   113.20744668   179.19799030
 C     26  22  21     1.732044777048    89.34925993     0.11934836
 C     21  20  19     1.392242307395   136.62723371   181.02545328
 N     28  21  20     1.362073287676   138.02826961     1.09785212
 C     29  28  21     1.440609687771   122.84360550   359.69127105
 C     30  29  28     1.527077367359   111.59368963    82.23381868
 C     29  28  21     1.376601793185   107.73154818   180.09304761
 C     27  26  22     1.394816371785   139.56958642   180.55574088
 C     33  27  26     1.422448171956   133.57451571     0.58124566
 N     34  33  27     1.330892606975   131.10805543   357.62338152
 N     35  34  33     1.309185592649   104.45580259   176.56223934
 C     36  35  34     1.434573628539   121.81846219   181.82750996
 C     37  36  35     1.525227696641   110.59600694    77.66605690
 N     36  35  34     1.312497537902   115.89365714   359.52522632
 C     39  36  35     1.327796960533   104.37785586     1.01631461
 C     40  39  36     1.451627907075   130.90266908   182.67449393
 C     32  29  28     1.407365651243   131.39403000   178.04771819
 N     42  32  29     1.342600274132   138.61539773    45.28536086
 C     43  42  32     1.433819488429   138.17132036   322.46460231
 C     44  43  42     1.527318491507   110.19313985   115.13158697
 C     43  42  32     1.411978086834    96.21050411   146.42977896
 C     41  40  39     1.496700462016   121.01480895    41.59766014
 S     47  41  40     1.785118402292   162.30397751    36.56908134
 C     48  47  41     1.865732201416    71.70676450   184.76327706
 C     47  41  40     1.356837201362   100.59311082   219.64511556
 S     49  48  47     3.946524802266   114.81131226   178.71932473
 C     51  49  48     1.654558136150    19.08676055   332.65603216
 C     49  48  47     1.344862744818   132.93038446   172.20951755
 C     53  49  48     1.505889120022   117.60788847   178.00437110
 C     54  53  49     1.529207510346   110.99961889   269.89545562
 C     52  51  49     1.445342396977   114.91253841   166.99224879
 C     56  52  51     1.355426038447   125.29489951   133.95491149
 C     57  56  52     1.458256787332   127.25512409   175.32730235
 C     58  57  56     1.365073730500   126.98317100    15.30369033
 C     59  58  57     1.412994922036   123.89531422   179.91357511
 N     60  59  58     1.146895865325   177.03103313   184.34004854
 C     59  58  57     1.413462958729   125.17568033     1.50322878
 N     62  59  58     1.147061965763   175.64470668   180.49781957
 C     58  57  56     1.461317301547   107.04375932   195.52117264
 C     64  58  57     1.387491996157   130.98716236   171.68275163
 C     65  64  58     1.385943134079   117.89449746   181.91957291
 F     66  65  64     1.338801574693   119.05671511   179.25968033
 C     66  65  64     1.395847510404   121.77991333   359.81536224
 F     68  66  65     1.339619318874   119.40736447   180.15053491
 C     68  66  65     1.383979051612   120.80187511     0.26701607
 C     70  68  66     1.381000354598   117.37102969   359.86060490
 C     71  70  68     1.477474332569   127.94247914   179.47134562
 O     72  71  70     1.207978329359   127.16952736    12.09669040
 H      4   3   1     1.078295602977   121.56316596     1.63636939
 H      9   7   5     1.078022488309   119.21759764   179.96417080
 H     18  17  11     1.085886245101   114.72727730   169.21854323
 H     24  23  22     1.091669321956   108.63357361   337.67471383
 H     24  23  22     1.091836354130   110.25457935   218.78080251
 H     25  24  23     1.086967965949   110.28717900   300.41234127
 H     25  24  23     1.086565543536   110.01107765   180.45366772
 H     25  24  23     1.087295167376   110.54262404    60.12277050
 H     30  29  28     1.094638755618   107.71684321   322.28045038
 H     30  29  28     1.092492143404   108.44614519   205.59870525
 H     31  30  29     1.086841974944   110.92775935    57.39962925
 H     31  30  29     1.087276628094   110.06418321   297.54356331
 H     31  30  29     1.086147062096   110.08667065   178.11885363
 H     37  36  35     1.091951416227   107.87880460   317.17011468
 H     37  36  35     1.090114825649   107.33363527   198.60750302
 H     38  37  36     1.086957894769   110.14032254   299.11081217
 H     38  37  36     1.085601919720   109.72743722   178.97700852
 H     38  37  36     1.087062545073   110.46952324    59.33074059
 H     44  43  42     1.089203718778   110.33034705   352.83791112
 H     44  43  42     1.096752774786   107.76836458   234.12823966
 H     45  44  43     1.087483535370   110.70859162   299.26225655
 H     45  44  43     1.085992927693   109.88277686   178.93871951
 H     45  44  43     1.086703813787   109.91748492    58.95007495
 H     54  53  49     1.089837749851   108.81092508   149.33839459
 H     54  53  49     1.090644249836   108.80649169    30.96479873
 H     55  54  53     1.086772895549   110.52045964   297.07058476
 H     55  54  53     1.086877331579   109.88636178   177.34756911
 H     55  54  53     1.088592735324   110.68577721    57.18475487
 H     56  52  51     1.082310948203   115.03717943   318.92028094
 H     65  64  58     1.077636054195   123.16160393     1.43090368
 H     70  68  66     1.077979093907   121.10397947   178.85852645

---------------------------
INTERNAL COORDINATES (A.U.)
---------------------------
 C      0   0   0     0.000000000000     0.00000000     0.00000000
 O      1   0   0     2.285063763976     0.00000000     0.00000000
 C      1   2   0     2.803548496434   127.73952784     0.00000000
 C      3   1   2     2.608752280920   128.71387982   356.31802067
 C      4   3   1     2.619715212492   117.66713561   181.68403680
 F      5   4   3     2.529618991349   119.63568134   179.66327256
 C      5   4   3     2.636392872590   120.78723901   359.83491443
 F      7   5   4     2.528417378390   119.39507446   179.33807844
 C      7   5   4     2.621395415508   121.62246812   359.55704366
 C      9   7   5     2.616586458733   117.84424789     0.62841954
 C     10   9   7     2.763388849979   131.10790441   181.79176581
 C     11  10   9     2.592530766809   125.42304428    20.74040414
 C     12  11  10     2.665716382725   122.67910747   162.88714710
 N     13  12  11     2.169631173767   176.71506652   249.32220054
 C     12  11  10     2.659725682742   124.19020175   346.38952722
 N     15  12  11     2.169561738613   176.41927260   215.75065823
 C     11  10   9     2.726075550082   107.18239999   188.38736910
 C     17  11  10     2.584426194770   131.83639795   160.30417092
 C     18  17  11     2.654990271572   129.26272650   342.52191135
 S     19  18  17     3.336528461958   121.64154361   342.61407589
 C     20  19  18     3.252791004400    90.74639369   183.43869325
 C     21  20  19     2.652241903605   111.51231475     1.11625725
 C     22  21  20     2.635125199039   114.26106171   359.68939875
 C     23  22  21     2.816801552623   123.82357007   183.74732261
 C     24  23  22     2.893475810609   110.34116073    97.72181204
 S     22  21  20     3.307244958262   113.20744668   179.19799030
 C     26  22  21     3.273090280310    89.34925993     0.11934836
 C     21  20  19     2.630956673035   136.62723371   181.02545328
 N     28  21  20     2.573945488037   138.02826961     1.09785212
 C     29  28  21     2.722357775761   122.84360550   359.69127105
 C     30  29  28     2.885758009618   111.59368963    82.23381868
 C     29  28  21     2.601400384584   107.73154818   180.09304761
 C     27  26  22     2.635820949784   139.56958642   180.55574088
 C     33  27  26     2.688037484693   133.57451571     0.58124566
 N     34  33  27     2.515022540843   131.10805543   357.62338152
 N     35  34  33     2.474002228582   104.45580259   176.56223934
 C     36  35  34     2.710951276885   121.81846219   181.82750996
 C     37  36  35     2.882262638523   110.59600694    77.66605690
 N     36  35  34     2.480260898082   115.89365714   359.52522632
 C     39  36  35     2.509172616860   104.37785586     1.01631461
 C     40  39  36     2.743179192730   130.90266908   182.67449393
 C     32  29  28     2.659535651138   131.39403000   178.04771819
 N     42  32  29     2.537146825438   138.61539773    45.28536086
 C     43  42  32     2.709526158611   138.17132036   322.46460231
 C     44  43  42     2.886213668222   110.19313985   115.13158697
 C     43  42  32     2.668251891215    96.21050411   146.42977896
 C     41  40  39     2.828353977724   121.01480895    41.59766014
 S     47  41  40     3.373384896954   162.30397751    36.56908134
 C     48  47  41     3.525722899914    71.70676450   184.76327706
 C     47  41  40     2.564050718890   100.59311082   219.64511556
 S     49  48  47     7.457851057010   114.81131226   178.71932473
 C     51  49  48     3.126661749975    19.08676055   332.65603216
 C     49  48  47     2.541422275420   132.93038446   172.20951755
 C     53  49  48     2.845718024893   117.60788847   178.00437110
 C     54  53  49     2.889783396490   110.99961889   269.89545562
 C     52  51  49     2.731301300032   114.91253841   166.99224879
 C     56  52  51     2.561384007451   125.29489951   133.95491149
 C     57  56  52     2.755705960989   127.25512409   175.32730235
 C     58  57  56     2.579615503254   126.98317100    15.30369033
 C     59  58  57     2.670173431270   123.89531422   179.91357511
 N     60  59  58     2.167319089591   177.03103313   184.34004854
 C     59  58  57     2.671057892441   125.17568033     1.50322878
 N     62  59  58     2.167632973929   175.64470668   180.49781957
 C     58  57  56     2.761489494684   107.04375932   195.52117264
 C     64  58  57     2.621979885745   130.98716236   171.68275163
 C     65  64  58     2.619052960597   117.89449746   181.91957291
 F     66  65  64     2.529968323832   119.05671511   179.25968033
 C     66  65  64     2.637769519379   121.77991333   359.81536224
 F     68  66  65     2.531513636382   119.40736447   180.15053491
 C     68  66  65     2.615341382630   120.80187511     0.26701607
 C     70  68  66     2.609712461038   117.37102969   359.86060490
 C     71  70  68     2.792021858453   127.94247914   179.47134562
 O     72  71  70     2.282748218199   127.16952736    12.09669040
 H      4   3   1     2.037683381038   121.56316596     1.63636939
 H      9   7   5     2.037167269112   119.21759764   179.96417080
 H     18  17  11     2.052027615833   114.72727730   169.21854323
 H     24  23  22     2.062956047300   108.63357361   337.67471383
 H     24  23  22     2.063271692365   110.25457935   218.78080251
 H     25  24  23     2.054071771990   110.28717900   300.41234127
 H     25  24  23     2.053311303839   110.01107765   180.45366772
 H     25  24  23     2.054690093077   110.54262404    60.12277050
 H     30  29  28     2.068567463694   107.71684321   322.28045038
 H     30  29  28     2.064510954495   108.44614519   205.59870525
 H     31  30  29     2.053833683494   110.92775935    57.39962925
 H     31  30  29     2.054655058911   110.06418321   297.54356331
 H     31  30  29     2.052520488525   110.08667065   178.11885363
 H     37  36  35     2.063489128216   107.87880460   317.17011468
 H     37  36  35     2.060018475004   107.33363527   198.60750302
 H     38  37  36     2.054052740216   110.14032254   299.11081217
 H     38  37  36     2.051490318730   109.72743722   178.97700852
 H     38  37  36     2.054250500631   110.46952324    59.33074059
 H     44  43  42     2.058296732539   110.33034705   352.83791112
 H     44  43  42     2.072562380963   107.76836458   234.12823966
 H     45  44  43     2.055046056997   110.70859162   299.26225655
 H     45  44  43     2.052229216716   109.88277686   178.93871951
 H     45  44  43     2.053572596746   109.91748492    58.95007495
 H     54  53  49     2.059494877627   108.81092508   149.33839459
 H     54  53  49     2.061018941726   108.80649169    30.96479873
 H     55  54  53     2.053703142356   110.52045964   297.07058476
 H     55  54  53     2.053900497851   109.88636178   177.34756911
 H     55  54  53     2.057142141138   110.68577721    57.18475487
 H     56  52  51     2.045271283848   115.03717943   318.92028094
 H     65  64  58     2.036437014467   123.16160393     1.43090368
 H     70  68  66     2.037085265576   121.10397947   178.85852645

---------------------
BASIS SET INFORMATION
---------------------
There are 6 groups of distinct atoms

 Group   1 Type C   : 11s6p2d1f contracted to 5s3p2d1f pattern {62111/411/11/1}
 Group   2 Type O   : 11s6p2d1f contracted to 5s3p2d1f pattern {62111/411/11/1}
 Group   3 Type F   : 11s6p2d1f contracted to 5s3p2d1f pattern {62111/411/11/1}
 Group   4 Type N   : 11s6p2d1f contracted to 5s3p2d1f pattern {62111/411/11/1}
 Group   5 Type S   : 14s9p3d1f contracted to 5s5p2d1f pattern {73211/51111/21/1}
 Group   6 Type H   : 5s1p contracted to 3s1p pattern {311/1}

Atom   0C    basis set group =>   1
Atom   1O    basis set group =>   2
Atom   2C    basis set group =>   1
Atom   3C    basis set group =>   1
Atom   4C    basis set group =>   1
Atom   5F    basis set group =>   3
Atom   6C    basis set group =>   1
Atom   7F    basis set group =>   3
Atom   8C    basis set group =>   1
Atom   9C    basis set group =>   1
Atom  10C    basis set group =>   1
Atom  11C    basis set group =>   1
Atom  12C    basis set group =>   1
Atom  13N    basis set group =>   4
Atom  14C    basis set group =>   1
Atom  15N    basis set group =>   4
Atom  16C    basis set group =>   1
Atom  17C    basis set group =>   1
Atom  18C    basis set group =>   1
Atom  19S    basis set group =>   5
Atom  20C    basis set group =>   1
Atom  21C    basis set group =>   1
Atom  22C    basis set group =>   1
Atom  23C    basis set group =>   1
Atom  24C    basis set group =>   1
Atom  25S    basis set group =>   5
Atom  26C    basis set group =>   1
Atom  27C    basis set group =>   1
Atom  28N    basis set group =>   4
Atom  29C    basis set group =>   1
Atom  30C    basis set group =>   1
Atom  31C    basis set group =>   1
Atom  32C    basis set group =>   1
Atom  33C    basis set group =>   1
Atom  34N    basis set group =>   4
Atom  35N    basis set group =>   4
Atom  36C    basis set group =>   1
Atom  37C    basis set group =>   1
Atom  38N    basis set group =>   4
Atom  39C    basis set group =>   1
Atom  40C    basis set group =>   1
Atom  41C    basis set group =>   1
Atom  42N    basis set group =>   4
Atom  43C    basis set group =>   1
Atom  44C    basis set group =>   1
Atom  45C    basis set group =>   1
Atom  46C    basis set group =>   1
Atom  47S    basis set group =>   5
Atom  48C    basis set group =>   1
Atom  49C    basis set group =>   1
Atom  50S    basis set group =>   5
Atom  51C    basis set group =>   1
Atom  52C    basis set group =>   1
Atom  53C    basis set group =>   1
Atom  54C    basis set group =>   1
Atom  55C    basis set group =>   1
Atom  56C    basis set group =>   1
Atom  57C    basis set group =>   1
Atom  58C    basis set group =>   1
Atom  59C    basis set group =>   1
Atom  60N    basis set group =>   4
Atom  61C    basis set group =>   1
Atom  62N    basis set group =>   4
Atom  63C    basis set group =>   1
Atom  64C    basis set group =>   1
Atom  65C    basis set group =>   1
Atom  66F    basis set group =>   3
Atom  67C    basis set group =>   1
Atom  68F    basis set group =>   3
Atom  69C    basis set group =>   1
Atom  70C    basis set group =>   1
Atom  71C    basis set group =>   1
Atom  72O    basis set group =>   2
Atom  73H    basis set group =>   6
Atom  74H    basis set group =>   6
Atom  75H    basis set group =>   6
Atom  76H    basis set group =>   6
Atom  77H    basis set group =>   6
Atom  78H    basis set group =>   6
Atom  79H    basis set group =>   6
Atom  80H    basis set group =>   6
Atom  81H    basis set group =>   6
Atom  82H    basis set group =>   6
Atom  83H    basis set group =>   6
Atom  84H    basis set group =>   6
Atom  85H    basis set group =>   6
Atom  86H    basis set group =>   6
Atom  87H    basis set group =>   6
Atom  88H    basis set group =>   6
Atom  89H    basis set group =>   6
Atom  90H    basis set group =>   6
Atom  91H    basis set group =>   6
Atom  92H    basis set group =>   6
Atom  93H    basis set group =>   6
Atom  94H    basis set group =>   6
Atom  95H    basis set group =>   6
Atom  96H    basis set group =>   6
Atom  97H    basis set group =>   6
Atom  98H    basis set group =>   6
Atom  99H    basis set group =>   6
Atom 100H    basis set group =>   6
Atom 101H    basis set group =>   6
Atom 102H    basis set group =>   6
Atom 103H    basis set group =>   6
---------------------------------
AUXILIARY/J BASIS SET INFORMATION
---------------------------------
There are 6 groups of distinct atoms

 Group   1 Type C   : 12s5p4d2f1g contracted to 6s4p3d1f1g pattern {711111/2111/211/2/1}
 Group   2 Type O   : 12s5p4d2f1g contracted to 6s4p3d1f1g pattern {711111/2111/211/2/1}
 Group   3 Type F   : 12s5p4d2f1g contracted to 6s4p3d1f1g pattern {711111/2111/211/2/1}
 Group   4 Type N   : 12s5p4d2f1g contracted to 6s4p3d1f1g pattern {711111/2111/211/2/1}
 Group   5 Type S   : 14s5p5d2f1g contracted to 8s4p3d1f1g pattern {71111111/2111/311/2/1}
 Group   6 Type H   : 5s2p1d contracted to 3s1p1d pattern {311/2/1}

Atom   0C    basis set group =>   1
Atom   1O    basis set group =>   2
Atom   2C    basis set group =>   1
Atom   3C    basis set group =>   1
Atom   4C    basis set group =>   1
Atom   5F    basis set group =>   3
Atom   6C    basis set group =>   1
Atom   7F    basis set group =>   3
Atom   8C    basis set group =>   1
Atom   9C    basis set group =>   1
Atom  10C    basis set group =>   1
Atom  11C    basis set group =>   1
Atom  12C    basis set group =>   1
Atom  13N    basis set group =>   4
Atom  14C    basis set group =>   1
Atom  15N    basis set group =>   4
Atom  16C    basis set group =>   1
Atom  17C    basis set group =>   1
Atom  18C    basis set group =>   1
Atom  19S    basis set group =>   5
Atom  20C    basis set group =>   1
Atom  21C    basis set group =>   1
Atom  22C    basis set group =>   1
Atom  23C    basis set group =>   1
Atom  24C    basis set group =>   1
Atom  25S    basis set group =>   5
Atom  26C    basis set group =>   1
Atom  27C    basis set group =>   1
Atom  28N    basis set group =>   4
Atom  29C    basis set group =>   1
Atom  30C    basis set group =>   1
Atom  31C    basis set group =>   1
Atom  32C    basis set group =>   1
Atom  33C    basis set group =>   1
Atom  34N    basis set group =>   4
Atom  35N    basis set group =>   4
Atom  36C    basis set group =>   1
Atom  37C    basis set group =>   1
Atom  38N    basis set group =>   4
Atom  39C    basis set group =>   1
Atom  40C    basis set group =>   1
Atom  41C    basis set group =>   1
Atom  42N    basis set group =>   4
Atom  43C    basis set group =>   1
Atom  44C    basis set group =>   1
Atom  45C    basis set group =>   1
Atom  46C    basis set group =>   1
Atom  47S    basis set group =>   5
Atom  48C    basis set group =>   1
Atom  49C    basis set group =>   1
Atom  50S    basis set group =>   5
Atom  51C    basis set group =>   1
Atom  52C    basis set group =>   1
Atom  53C    basis set group =>   1
Atom  54C    basis set group =>   1
Atom  55C    basis set group =>   1
Atom  56C    basis set group =>   1
Atom  57C    basis set group =>   1
Atom  58C    basis set group =>   1
Atom  59C    basis set group =>   1
Atom  60N    basis set group =>   4
Atom  61C    basis set group =>   1
Atom  62N    basis set group =>   4
Atom  63C    basis set group =>   1
Atom  64C    basis set group =>   1
Atom  65C    basis set group =>   1
Atom  66F    basis set group =>   3
Atom  67C    basis set group =>   1
Atom  68F    basis set group =>   3
Atom  69C    basis set group =>   1
Atom  70C    basis set group =>   1
Atom  71C    basis set group =>   1
Atom  72O    basis set group =>   2
Atom  73H    basis set group =>   6
Atom  74H    basis set group =>   6
Atom  75H    basis set group =>   6
Atom  76H    basis set group =>   6
Atom  77H    basis set group =>   6
Atom  78H    basis set group =>   6
Atom  79H    basis set group =>   6
Atom  80H    basis set group =>   6
Atom  81H    basis set group =>   6
Atom  82H    basis set group =>   6
Atom  83H    basis set group =>   6
Atom  84H    basis set group =>   6
Atom  85H    basis set group =>   6
Atom  86H    basis set group =>   6
Atom  87H    basis set group =>   6
Atom  88H    basis set group =>   6
Atom  89H    basis set group =>   6
Atom  90H    basis set group =>   6
Atom  91H    basis set group =>   6
Atom  92H    basis set group =>   6
Atom  93H    basis set group =>   6
Atom  94H    basis set group =>   6
Atom  95H    basis set group =>   6
Atom  96H    basis set group =>   6
Atom  97H    basis set group =>   6
Atom  98H    basis set group =>   6
Atom  99H    basis set group =>   6
Atom 100H    basis set group =>   6
Atom 101H    basis set group =>   6
Atom 102H    basis set group =>   6
Atom 103H    basis set group =>   6
------------------------------------------------------------------------------
                           ORCA GTO INTEGRAL CALCULATION
                           -- RI-GTO INTEGRALS CHOSEN --
------------------------------------------------------------------------------

                         BASIS SET STATISTICS AND STARTUP INFO

Gaussian basis set:
 # of primitive gaussian shells          ... 1674
 # of primitive gaussian functions       ... 3674
 # of contracted shells                  ...  935
 # of contracted basis functions         ... 2473
 Highest angular momentum                ...    3
 Maximum contraction depth               ...    7
Auxiliary gaussian basis set:
 # of primitive gaussian shells          ... 2012
 # of primitive gaussian functions       ... 5634
 # of contracted shells                  ... 1258
 # of contracted aux-basis functions     ... 3926
 Highest angular momentum                ...    4
 Maximum contraction depth               ...    7
Ratio of auxiliary to basis functions    ...  1.59
Integral package used                  ... LIBINT
 One Electron integrals                  ... done
 Ordering auxiliary basis shells         ... done
 Integral threshhold             Thresh  ...  2.500e-11
 Primitive cut-off               TCut    ...  2.500e-12
 Pre-screening matrix                    ... done
 Shell pair data                         ... 
 Ordering of the shell pairs             ... done (   0.041 sec) 160174 of 437580 pairs
 Determination of significant pairs      ... done (   0.001 sec)
 Creation of shell pair data             ... done (   0.016 sec)
 Storage of shell pair data              ... done (   0.030 sec)
 Shell pair data done in (   0.088 sec)
 Computing two index integrals           ... done
 Cholesky decomposition of the V-matrix  ... done


Timings:
 Total evaluation time                   ...   7.078 sec (  0.118 min)
 One electron matrix time                ...   2.366 sec (  0.039 min) = 33.4%
 Schwartz matrix evaluation time         ...   3.455 sec (  0.058 min) = 48.8%
 Two index repulsion integral time       ...   0.520 sec (  0.009 min) =  7.3%
 Cholesky decomposition of V             ...   0.631 sec (  0.011 min) =  8.9%
 Three index repulsion integral time     ...   0.000 sec (  0.000 min) =  0.0%

-------------------------------------------------------------------------------
                                 ORCA SCF
-------------------------------------------------------------------------------

------------
SCF SETTINGS
------------
Hamiltonian:
 Density Functional     Method          .... DFT(GTOs)
 Exchange Functional    Exchange        .... B88
   X-Alpha parameter    XAlpha          ....  0.666667
   Becke's b parameter  XBeta           ....  0.004200
 Correlation Functional Correlation     .... LYP
 LDA part of GGA corr.  LDAOpt          .... VWN-5
 Gradients option       PostSCFGGA      .... off
 Hybrid DFT is turned on
   Fraction HF Exchange ScalHFX         ....  0.200000
   Scaling of DF-GGA-X  ScalDFX         ....  0.720000
   Scaling of DF-GGA-C  ScalDFC         ....  0.810000
   Scaling of DF-LDA-C  ScalLDAC        ....  1.000000
   Perturbative correction              ....  0.000000
   Density functional embedding theory  .... OFF
   NL short-range parameter             ....  4.800000
 RI-approximation to the Coulomb term is turned on
   Number of auxiliary basis functions  .... 3926
   RIJ-COSX (HFX calculated with COS-X)).... on


General Settings:
 Integral files         IntName         .... Y11
 Hartree-Fock type      HFTyp           .... RHF
 Total Charge           Charge          ....    0
 Multiplicity           Mult            ....    1
 Number of Electrons    NEL             ....  534
 Basis Dimension        Dim             .... 2473
 Nuclear Repulsion      ENuc            ....  11928.5287158258 Eh

Convergence Acceleration:
 DIIS                   CNVDIIS         .... on
   Start iteration      DIISMaxIt       ....    12
   Startup error        DIISStart       ....  0.200000
   # of expansion vecs  DIISMaxEq       ....     5
   Bias factor          DIISBfac        ....   1.050
   Max. coefficient     DIISMaxC        ....  10.000
 Newton-Raphson         CNVNR           .... off
 SOSCF                  CNVSOSCF        .... on
   Start iteration      SOSCFMaxIt      ....   150
   Startup grad/error   SOSCFStart      ....  0.003300
 Level Shifting         CNVShift        .... on
   Level shift para.    LevelShift      ....    0.2500
   Turn off err/grad.   ShiftErr        ....    0.0010
 Zerner damping         CNVZerner       .... off
 Static damping         CNVDamp         .... on
   Fraction old density DampFac         ....    0.7000
   Max. Damping (<1)    DampMax         ....    0.9800
   Min. Damping (>=0)   DampMin         ....    0.0000
   Turn off err/grad.   DampErr         ....    0.1000
 Fernandez-Rico         CNVRico         .... off

SCF Procedure:
 Maximum # iterations   MaxIter         ....   125
 SCF integral mode      SCFMode         .... Direct
   Integral package                     .... LIBINT
 Reset frequency        DirectResetFreq ....    20
 Integral Threshold     Thresh          ....  2.500e-11 Eh
 Primitive CutOff       TCut            ....  2.500e-12 Eh

Convergence Tolerance:
 Convergence Check Mode ConvCheckMode   .... Total+1el-Energy
 Convergence forced     ConvForced      .... 1
 Energy Change          TolE            ....  1.000e-08 Eh
 1-El. energy change                    ....  1.000e-05 Eh
 Orbital Gradient       TolG            ....  1.000e-05
 Orbital Rotation angle TolX            ....  1.000e-05
 DIIS Error             TolErr          ....  5.000e-07


Diagonalization of the overlap matrix:
Smallest eigenvalue                        ... 3.306e-06
Time for diagonalization                   ...    3.585 sec
Threshold for overlap eigenvalues          ... 1.000e-08
Number of eigenvalues below threshold      ... 0
Time for construction of square roots      ...    1.177 sec
Total time needed                          ...    4.812 sec

-------------------
DFT GRID GENERATION
-------------------

General Integration Accuracy     IntAcc      ...  4.670
Radial Grid Type                 RadialGrid  ... Gauss-Chebyshev
Angular Grid (max. acc.)         AngularGrid ... Lebedev-302
Angular grid pruning method      GridPruning ... 3 (G Style)
Weight generation scheme         WeightScheme... Becke
Basis function cutoff            BFCut       ...    1.0000e-11
Integration weight cutoff        WCut        ...    1.0000e-14
Grids for H and He will be reduced by one unit

# of grid points (after initial pruning)     ... 561466 (   2.5 sec)
# of grid points (after weights+screening)   ... 474151 (  24.7 sec)
nearest neighbour list constructed           ...    0.0 sec
Grid point re-assignment to atoms done       ...    0.1 sec
Grid point division into batches done        ...    1.6 sec
Reduced shell lists constructed in   19.6 sec

Total number of grid points                  ...   474151
Total number of batches                      ...     7464
Average number of points per batch           ...       63
Average number of grid points per atom       ...     4559
Average number of shells per batch           ...   180.24 (19.28%)
Average number of basis functions per batch  ...   448.90 (18.15%)
Average number of large shells per batch     ...   104.87 (58.18%)
Average number of large basis fcns per batch ...   266.21 (59.30%)
Maximum spatial batch extension              ...  25.72, 20.38, 21.20 au
Average spatial batch extension              ...   2.07,  2.10,  2.13 au

Time for grid setup =   46.856 sec

------------------------------
INITIAL GUESS: MODEL POTENTIAL
------------------------------
Loading Hartree-Fock densities                     ... done
Calculating cut-offs                               ... done
Setting up the integral package                    ... done
Initializing the effective Hamiltonian             ... done
Starting the Coulomb interaction                   ... done (  30.5 sec)
Reading the grid                                   ... done
Mapping shells                                     ... done
Starting the XC term evaluation                    ... done (  23.9 sec)
  promolecular density results
     # of electrons  =    533.984324297
     EX              =   -503.031059831
     EC              =    -19.006148310
     EX+EC           =   -522.037208142
Transforming the Hamiltonian                       ... done (   1.1 sec)
Diagonalizing the Hamiltonian                      ... done (   3.1 sec)
Back transforming the eigenvectors                 ... done (   0.4 sec)
Now organizing SCF variables                       ... done
                      ------------------
                      INITIAL GUESS DONE ( 106.8 sec)
                      ------------------
--------------------
COSX GRID GENERATION
--------------------

General Integration Accuracy     IntAcc      ...  3.340
Radial Grid Type                 RadialGrid  ... Gauss-Chebyshev
Angular Grid (max. acc.)         AngularGrid ... Lebedev-50
Angular grid pruning method      GridPruning ... 3 (G Style)
Weight generation scheme         WeightScheme... Becke
Basis function cutoff            BFCut       ...    1.0000e-11
Integration weight cutoff        WCut        ...    1.0000e-14
Grids for H and He will be reduced by one unit

# of grid points (after initial pruning)     ...  52638 (   0.1 sec)
# of grid points (after weights+screening)   ...  46545 (   2.3 sec)
nearest neighbour list constructed           ...    0.0 sec
Grid point re-assignment to atoms done       ...    0.0 sec
Grid point division into batches done        ...    0.0 sec
Reduced shell lists constructed in    2.8 sec

Total number of grid points                  ...    46545
Total number of batches                      ...      782
Average number of points per batch           ...       59
Average number of grid points per atom       ...      448
Average number of shells per batch           ...   220.98 (23.63%)
Average number of basis functions per batch  ...   558.89 (22.60%)
Average number of large shells per batch     ...   129.41 (58.56%)
Average number of large basis fcns per batch ...   333.81 (59.73%)
Maximum spatial batch extension              ...  18.02, 20.16, 20.01 au
Average spatial batch extension              ...   4.08,  4.44,  4.57 au

Overlap Fitting                  UseSFitting ... on
Constructing numerical overlap ... done (      2.7 sec)
Inverting numerical overlap    ... done (      0.3 sec)
Obtaining analytic overlap     ... done (      0.0 sec)
Final contraction and storage  ... done (      0.5 sec)


General Integration Accuracy     IntAcc      ...  3.670
Radial Grid Type                 RadialGrid  ... Gauss-Chebyshev
Angular Grid (max. acc.)         AngularGrid ... Lebedev-50
Angular grid pruning method      GridPruning ... 3 (G Style)
Weight generation scheme         WeightScheme... Becke
Basis function cutoff            BFCut       ...    1.0000e-11
Integration weight cutoff        WCut        ...    1.0000e-14
Grids for H and He will be reduced by one unit

# of grid points (after initial pruning)     ...  65758 (   0.1 sec)
# of grid points (after weights+screening)   ...  57895 (   2.8 sec)
nearest neighbour list constructed           ...    0.0 sec
Grid point re-assignment to atoms done       ...    0.0 sec
Grid point division into batches done        ...    0.0 sec
Reduced shell lists constructed in    3.2 sec

Total number of grid points                  ...    57895
Total number of batches                      ...      956
Average number of points per batch           ...       60
Average number of grid points per atom       ...      557
Average number of shells per batch           ...   215.56 (23.05%)
Average number of basis functions per batch  ...   543.93 (21.99%)
Average number of large shells per batch     ...   125.59 (58.26%)
Average number of large basis fcns per batch ...   323.00 (59.38%)
Maximum spatial batch extension              ...  19.79, 23.43, 21.42 au
Average spatial batch extension              ...   3.91,  4.14,  4.25 au

Overlap Fitting                  UseSFitting ... on
Constructing numerical overlap ... done (      3.2 sec)
Inverting numerical overlap    ... done (      0.3 sec)
Obtaining analytic overlap     ... done (      0.0 sec)
Final contraction and storage  ... done (      0.5 sec)


General Integration Accuracy     IntAcc      ...  4.010
Radial Grid Type                 RadialGrid  ... Gauss-Chebyshev
Angular Grid (max. acc.)         AngularGrid ... Lebedev-110
Angular grid pruning method      GridPruning ... 3 (G Style)
Weight generation scheme         WeightScheme... Becke
Basis function cutoff            BFCut       ...    1.0000e-11
Integration weight cutoff        WCut        ...    1.0000e-14
Grids for H and He will be reduced by one unit

# of grid points (after initial pruning)     ... 128348 (   0.2 sec)
# of grid points (after weights+screening)   ... 111947 (   5.6 sec)
nearest neighbour list constructed           ...    0.0 sec
Grid point re-assignment to atoms done       ...    0.0 sec
Grid point division into batches done        ...    0.1 sec
Reduced shell lists constructed in    5.5 sec

Total number of grid points                  ...   111947
Total number of batches                      ...     1805
Average number of points per batch           ...       62
Average number of grid points per atom       ...     1076
Average number of shells per batch           ...   203.30 (21.74%)
Average number of basis functions per batch  ...   511.79 (20.70%)
Average number of large shells per batch     ...   119.25 (58.66%)
Average number of large basis fcns per batch ...   306.08 (59.81%)
Maximum spatial batch extension              ...  22.63, 21.17, 19.67 au
Average spatial batch extension              ...   3.21,  3.34,  3.42 au

Overlap Fitting                  UseSFitting ... on
Constructing numerical overlap ... done (      5.0 sec)
Inverting numerical overlap    ... done (      0.3 sec)
Obtaining analytic overlap     ... done (      0.0 sec)
Final contraction and storage  ... done (      0.5 sec)

Time for X-Grid setup             =   36.136 sec
--------------
SCF ITERATIONS
--------------
ITER       Energy         Delta-E        Max-DP      RMS-DP      [F,P]     Damp
               ***  Starting incremental Fock matrix formation  ***
  0  -4708.8886944894   0.000000000000 0.21012326  0.00096149  0.3040746 0.7000
  1  -4709.7062538215  -0.817559332128 0.15786754  0.00077112  0.1020076 0.7000
                               ***Turning on DIIS***
  2  -4709.9927925870  -0.286538765507 0.19231804  0.00109838  0.0479004 0.0000
  3  -4710.4980700636  -0.505277476550 0.16568457  0.00071169  0.0578361 0.0000
  4  -4710.5884783190  -0.090408255432 0.03775602  0.00021522  0.0371475 0.0000
  5  -4710.6023270811  -0.013848762117 0.02082456  0.00010018  0.0080783 0.0000
                      *** Initiating the SOSCF procedure ***
                           *** Shutting down DIIS ***
                      *** Re-Reading the Fockian *** 
                      *** Removing any level shift *** 
ITER      Energy       Delta-E        Grad      Rot      Max-DP    RMS-DP
  6  -4710.60317366  -0.0008465796  0.000963  0.000963  0.006528  0.000031
               *** Restarting incremental Fock matrix formation ***
  7  -4710.60332660  -0.0001529401  0.000648  0.010232  0.007657  0.000054
  8  -4710.60336042  -0.0000338223  0.000549  0.006791  0.004910  0.000038
  9  -4710.60337869  -0.0000182693  0.000493  0.006219  0.004565  0.000031
 10  -4710.60339724  -0.0000185501  0.000343  0.002219  0.002319  0.000017
 11  -4710.60339943  -0.0000021867  0.000338  0.001805  0.002011  0.000014
 12  -4710.60340666  -0.0000072329  0.000150  0.001056  0.001169  0.000008
 13  -4710.60340648   0.0000001834  0.000101  0.001273  0.000898  0.000006
 14  -4710.60340883  -0.0000023523  0.000070  0.000511  0.000631  0.000004
 15  -4710.60340843   0.0000004039  0.000112  0.000418  0.000622  0.000004
 16  -4710.60340939  -0.0000009632  0.000036  0.000257  0.000340  0.000002
 17  -4710.60340912   0.0000002655  0.000042  0.000204  0.000218  0.000002
 18  -4710.60340958  -0.0000004525  0.000012  0.000055  0.000232  0.000001
 19  -4710.60340949   0.0000000888  0.000026  0.000051  0.000213  0.000001
 20  -4710.60340957  -0.0000000790  0.000005  0.000013  0.000425  0.000001
 21  -4710.60340961  -0.0000000470  0.000009  0.000015  0.000178  0.000001
                  ***Gradient check signals convergence***
              ***Rediagonalizing the Fockian in SOSCF/NRSCF***

               *****************************************************
               *                     SUCCESS                       *
               *           SCF CONVERGED AFTER  22 CYCLES          *
               *****************************************************

Setting up the final grid:

General Integration Accuracy     IntAcc      ...  5.010
Radial Grid Type                 RadialGrid  ... Gauss-Chebyshev
Angular Grid (max. acc.)         AngularGrid ... Lebedev-434
Angular grid pruning method      GridPruning ... 3 (G Style)
Weight generation scheme         WeightScheme... Becke
Basis function cutoff            BFCut       ...    1.0000e-11
Integration weight cutoff        WCut        ...    1.0000e-14
Grids for H and He will be reduced by one unit

# of grid points (after initial pruning)     ... 992370 (   1.6 sec)
# of grid points (after weights+screening)   ... 835102 (  43.6 sec)
nearest neighbour list constructed           ...    0.0 sec
Grid point re-assignment to atoms done       ...    0.1 sec
Grid point division into batches done        ...    5.2 sec
Reduced shell lists constructed in   30.7 sec

Total number of grid points                  ...   835102
Total number of batches                      ...    13099
Average number of points per batch           ...       63
Average number of grid points per atom       ...     8030
Average number of shells per batch           ...   173.59 (18.57%)
Average number of basis functions per batch  ...   430.42 (17.40%)
Average number of large shells per batch     ...   100.80 (58.07%)
Average number of large basis fcns per batch ...   255.01 (59.25%)
Maximum spatial batch extension              ...  20.17, 23.03, 22.26 au
Average spatial batch extension              ...   1.69,  1.72,  1.73 au

Final grid set up in   76.0 sec
Final integration                            ... done (  53.4 sec)
Change in XC energy                          ...    -0.000053795
Integrated number of electrons               ...   533.999907019
Previous integrated no of electrons          ...   533.999502826
Old exchange energy                            =   -101.519163808 Eh
New exchange energy                            =   -101.520469717 Eh
Exchange energy change after final integration =     -0.001305909 Eh
Total energy after final integration           =  -4710.604769401 Eh
Final COS-X integration done in                =  1647.572 sec

----------------
TOTAL SCF ENERGY
----------------

Total Energy       :        -4710.60476940 Eh         -128182.07243 eV

Components:
Nuclear Repulsion  :        11928.52871583 Eh          324591.76828 eV
Electronic Energy  :       -16639.13348523 Eh         -452773.84071 eV
One Electron Energy:       -30216.91848797 Eh         -822244.15414 eV
Two Electron Energy:        13577.78500274 Eh          369470.31343 eV

Virial components:
Potential Energy   :        -9407.06360713 Eh         -255979.21448 eV
Kinetic Energy     :         4696.45883772 Eh          127797.14206 eV
Virial Ratio       :            2.00301204


DFT components:
N(Alpha)           :      266.999953509400 electrons
N(Beta)            :      266.999953509400 electrons
N(Total)           :      533.999907018799 electrons
E(X)               :     -403.724767532103 Eh       
E(C)               :      -22.308879655346 Eh       
E(XC)              :     -426.033647187449 Eh       
DFET-embed. en.    :        0.000000000000 Eh       

---------------
SCF CONVERGENCE
---------------

  Last Energy change         ...   -8.2322e-08  Tolerance :   1.0000e-08
  Last MAX-Density change    ...    3.9968e-15  Tolerance :   1.0000e-07
  Last RMS-Density change    ...    1.2357e-17  Tolerance :   5.0000e-09
  Last Orbital Gradient      ...    8.1841e-07  Tolerance :   1.0000e-05
  Last Orbital Rotation      ...    9.6014e-06  Tolerance :   1.0000e-05

             **** THE GBW FILE WAS UPDATED (Y11.gbw) ****
             **** DENSITY FILE WAS UPDATED (Y11.scfp) ****
             **** ENERGY FILE WAS UPDATED (Y11.en.tmp) ****
             **** THE GBW FILE WAS UPDATED (Y11.gbw) ****
             **** DENSITY FILE WAS UPDATED (Y11.scfp) ****
----------------
ORBITAL ENERGIES
----------------

  NO   OCC          E(Eh)            E(eV) 
   0   2.0000     -88.913079     -2419.4479 
   1   2.0000     -88.912214     -2419.4243 
   2   2.0000     -88.901640     -2419.1366 
   3   2.0000     -88.848201     -2417.6825 
   4   2.0000     -24.735530      -673.0880 
   5   2.0000     -24.730911      -672.9623 
   6   2.0000     -24.726061      -672.8303 
   7   2.0000     -24.726038      -672.8297 
   8   2.0000     -19.139793      -520.8203 
   9   2.0000     -19.132763      -520.6290 
  10   2.0000     -14.448185      -393.1551 
  11   2.0000     -14.415948      -392.2779 
  12   2.0000     -14.411937      -392.1688 
  13   2.0000     -14.369418      -391.0117 
  14   2.0000     -14.366565      -390.9341 
  15   2.0000     -14.337456      -390.1420 
  16   2.0000     -14.336108      -390.1053 
  17   2.0000     -14.332442      -390.0056 
  18   2.0000     -14.329016      -389.9124 
  19   2.0000     -10.306773      -280.4615 
  20   2.0000     -10.305973      -280.4398 
  21   2.0000     -10.301923      -280.3296 
  22   2.0000     -10.300804      -280.2991 
  23   2.0000     -10.287525      -279.9378 
  24   2.0000     -10.278746      -279.6989 
  25   2.0000     -10.269210      -279.4394 
  26   2.0000     -10.265109      -279.3278 
  27   2.0000     -10.264951      -279.3235 
  28   2.0000     -10.259276      -279.1691 
  29   2.0000     -10.258633      -279.1516 
  30   2.0000     -10.257926      -279.1323 
  31   2.0000     -10.257259      -279.1142 
  32   2.0000     -10.256519      -279.0941 
  33   2.0000     -10.253681      -279.0169 
  34   2.0000     -10.253185      -279.0034 
  35   2.0000     -10.249564      -278.9048 
  36   2.0000     -10.246526      -278.8222 
  37   2.0000     -10.245369      -278.7907 
  38   2.0000     -10.245129      -278.7841 
  39   2.0000     -10.237436      -278.5748 
  40   2.0000     -10.236480      -278.5488 
  41   2.0000     -10.234790      -278.5028 
  42   2.0000     -10.234653      -278.4991 
  43   2.0000     -10.234488      -278.4946 
  44   2.0000     -10.234193      -278.4866 
  45   2.0000     -10.234133      -278.4849 
  46   2.0000     -10.232975      -278.4534 
  47   2.0000     -10.232255      -278.4338 
  48   2.0000     -10.231727      -278.4194 
  49   2.0000     -10.230928      -278.3977 
  50   2.0000     -10.230774      -278.3935 
  51   2.0000     -10.230708      -278.3917 
  52   2.0000     -10.229332      -278.3543 
  53   2.0000     -10.229258      -278.3523 
  54   2.0000     -10.227808      -278.3128 
  55   2.0000     -10.226913      -278.2884 
  56   2.0000     -10.225969      -278.2628 
  57   2.0000     -10.224040      -278.2103 
  58   2.0000     -10.222742      -278.1750 
  59   2.0000     -10.221932      -278.1529 
  60   2.0000     -10.221764      -278.1483 
  61   2.0000     -10.221704      -278.1467 
  62   2.0000     -10.218382      -278.0563 
  63   2.0000     -10.217413      -278.0299 
  64   2.0000     -10.211954      -277.8814 
  65   2.0000     -10.205374      -277.7023 
  66   2.0000     -10.203041      -277.6389 
  67   2.0000     -10.199058      -277.5305 
  68   2.0000     -10.196443      -277.4593 
  69   2.0000     -10.187082      -277.2046 
  70   2.0000     -10.182641      -277.0837 
  71   2.0000     -10.176463      -276.9156 
  72   2.0000     -10.171795      -276.7886 
  73   2.0000      -7.989908      -217.4165 
  74   2.0000      -7.987825      -217.3598 
  75   2.0000      -7.976389      -217.0486 
  76   2.0000      -7.926002      -215.6775 
  77   2.0000      -5.952607      -161.9787 
  78   2.0000      -5.950823      -161.9301 
  79   2.0000      -5.948834      -161.8760 
  80   2.0000      -5.947078      -161.8282 
  81   2.0000      -5.945980      -161.7983 
  82   2.0000      -5.943519      -161.7314 
  83   2.0000      -5.939887      -161.6326 
  84   2.0000      -5.936240      -161.5333 
  85   2.0000      -5.930903      -161.3881 
  86   2.0000      -5.887907      -160.2181 
  87   2.0000      -5.887271      -160.2008 
  88   2.0000      -5.880180      -160.0078 
  89   2.0000      -1.276574       -34.7373 
  90   2.0000      -1.269339       -34.5405 
  91   2.0000      -1.262522       -34.3550 
  92   2.0000      -1.255981       -34.1770 
  93   2.0000      -1.142452       -31.0877 
  94   2.0000      -1.073185       -29.2029 
  95   2.0000      -1.063621       -28.9426 
  96   2.0000      -1.057784       -28.7838 
  97   2.0000      -1.043308       -28.3898 
  98   2.0000      -0.953309       -25.9408 
  99   2.0000      -0.949036       -25.8246 
 100   2.0000      -0.940252       -25.5856 
 101   2.0000      -0.934875       -25.4392 
 102   2.0000      -0.932120       -25.3643 
 103   2.0000      -0.931712       -25.3532 
 104   2.0000      -0.928639       -25.2695 
 105   2.0000      -0.926738       -25.2178 
 106   2.0000      -0.922118       -25.0921 
 107   2.0000      -0.906400       -24.6644 
 108   2.0000      -0.893571       -24.3153 
 109   2.0000      -0.889150       -24.1950 
 110   2.0000      -0.879007       -23.9190 
 111   2.0000      -0.877429       -23.8760 
 112   2.0000      -0.861609       -23.4456 
 113   2.0000      -0.848161       -23.0796 
 114   2.0000      -0.836940       -22.7743 
 115   2.0000      -0.831120       -22.6159 
 116   2.0000      -0.828185       -22.5361 
 117   2.0000      -0.816369       -22.2145 
 118   2.0000      -0.810667       -22.0594 
 119   2.0000      -0.807851       -21.9827 
 120   2.0000      -0.806822       -21.9547 
 121   2.0000      -0.802571       -21.8391 
 122   2.0000      -0.795907       -21.6577 
 123   2.0000      -0.777180       -21.1481 
 124   2.0000      -0.774082       -21.0638 
 125   2.0000      -0.769766       -20.9464 
 126   2.0000      -0.756620       -20.5887 
 127   2.0000      -0.742004       -20.1910 
 128   2.0000      -0.738693       -20.1009 
 129   2.0000      -0.732931       -19.9441 
 130   2.0000      -0.723333       -19.6829 
 131   2.0000      -0.713821       -19.4241 
 132   2.0000      -0.708547       -19.2805 
 133   2.0000      -0.704870       -19.1805 
 134   2.0000      -0.701614       -19.0919 
 135   2.0000      -0.697581       -18.9822 
 136   2.0000      -0.681094       -18.5335 
 137   2.0000      -0.669364       -18.2143 
 138   2.0000      -0.664167       -18.0729 
 139   2.0000      -0.660981       -17.9862 
 140   2.0000      -0.654691       -17.8151 
 141   2.0000      -0.648390       -17.6436 
 142   2.0000      -0.643664       -17.5150 
 143   2.0000      -0.641670       -17.4607 
 144   2.0000      -0.637170       -17.3383 
 145   2.0000      -0.633943       -17.2505 
 146   2.0000      -0.624430       -16.9916 
 147   2.0000      -0.620714       -16.8905 
 148   2.0000      -0.614725       -16.7275 
 149   2.0000      -0.605592       -16.4790 
 150   2.0000      -0.600433       -16.3386 
 151   2.0000      -0.594950       -16.1894 
 152   2.0000      -0.589761       -16.0482 
 153   2.0000      -0.584758       -15.9121 
 154   2.0000      -0.582203       -15.8426 
 155   2.0000      -0.575164       -15.6510 
 156   2.0000      -0.574082       -15.6216 
 157   2.0000      -0.568519       -15.4702 
 158   2.0000      -0.565184       -15.3794 
 159   2.0000      -0.556512       -15.1435 
 160   2.0000      -0.553658       -15.0658 
 161   2.0000      -0.546005       -14.8575 
 162   2.0000      -0.543011       -14.7761 
 163   2.0000      -0.541240       -14.7279 
 164   2.0000      -0.534127       -14.5343 
 165   2.0000      -0.532803       -14.4983 
 166   2.0000      -0.530110       -14.4250 
 167   2.0000      -0.528789       -14.3891 
 168   2.0000      -0.525238       -14.2924 
 169   2.0000      -0.521453       -14.1894 
 170   2.0000      -0.520448       -14.1621 
 171   2.0000      -0.511629       -13.9221 
 172   2.0000      -0.510499       -13.8914 
 173   2.0000      -0.503636       -13.7046 
 174   2.0000      -0.497534       -13.5386 
 175   2.0000      -0.494483       -13.4556 
 176   2.0000      -0.494076       -13.4445 
 177   2.0000      -0.491228       -13.3670 
 178   2.0000      -0.489863       -13.3299 
 179   2.0000      -0.486723       -13.2444 
 180   2.0000      -0.486245       -13.2314 
 181   2.0000      -0.485848       -13.2206 
 182   2.0000      -0.479131       -13.0378 
 183   2.0000      -0.477337       -12.9890 
 184   2.0000      -0.474609       -12.9148 
 185   2.0000      -0.473429       -12.8827 
 186   2.0000      -0.470590       -12.8054 
 187   2.0000      -0.469513       -12.7761 
 188   2.0000      -0.467085       -12.7100 
 189   2.0000      -0.464747       -12.6464 
 190   2.0000      -0.464448       -12.6383 
 191   2.0000      -0.461683       -12.5630 
 192   2.0000      -0.458500       -12.4764 
 193   2.0000      -0.456282       -12.4161 
 194   2.0000      -0.454906       -12.3786 
 195   2.0000      -0.449937       -12.2434 
 196   2.0000      -0.444265       -12.0891 
 197   2.0000      -0.442764       -12.0482 
 198   2.0000      -0.439038       -11.9468 
 199   2.0000      -0.437854       -11.9146 
 200   2.0000      -0.436372       -11.8743 
 201   2.0000      -0.433834       -11.8052 
 202   2.0000      -0.432285       -11.7631 
 203   2.0000      -0.431875       -11.7519 
 204   2.0000      -0.428843       -11.6694 
 205   2.0000      -0.428241       -11.6530 
 206   2.0000      -0.422843       -11.5061 
 207   2.0000      -0.421559       -11.4712 
 208   2.0000      -0.420074       -11.4308 
 209   2.0000      -0.416806       -11.3419 
 210   2.0000      -0.414543       -11.2803 
 211   2.0000      -0.411392       -11.1945 
 212   2.0000      -0.408266       -11.1095 
 213   2.0000      -0.407118       -11.0782 
 214   2.0000      -0.403540       -10.9809 
 215   2.0000      -0.402373       -10.9491 
 216   2.0000      -0.401354       -10.9214 
 217   2.0000      -0.398072       -10.8321 
 218   2.0000      -0.397981       -10.8296 
 219   2.0000      -0.395348       -10.7580 
 220   2.0000      -0.393189       -10.6992 
 221   2.0000      -0.392852       -10.6900 
 222   2.0000      -0.391695       -10.6586 
 223   2.0000      -0.390788       -10.6339 
 224   2.0000      -0.389840       -10.6081 
 225   2.0000      -0.388678       -10.5765 
 226   2.0000      -0.386517       -10.5176 
 227   2.0000      -0.383855       -10.4452 
 228   2.0000      -0.382586       -10.4107 
 229   2.0000      -0.381022       -10.3681 
 230   2.0000      -0.375918       -10.2292 
 231   2.0000      -0.371811       -10.1175 
 232   2.0000      -0.370963       -10.0944 
 233   2.0000      -0.370637       -10.0855 
 234   2.0000      -0.370403       -10.0792 
 235   2.0000      -0.369331       -10.0500 
 236   2.0000      -0.367028        -9.9874 
 237   2.0000      -0.366688        -9.9781 
 238   2.0000      -0.364192        -9.9102 
 239   2.0000      -0.360831        -9.8187 
 240   2.0000      -0.357973        -9.7409 
 241   2.0000      -0.355140        -9.6638 
 242   2.0000      -0.350403        -9.5349 
 243   2.0000      -0.347935        -9.4678 
 244   2.0000      -0.346806        -9.4371 
 245   2.0000      -0.338914        -9.2223 
 246   2.0000      -0.335247        -9.1225 
 247   2.0000      -0.334026        -9.0893 
 248   2.0000      -0.328424        -8.9369 
 249   2.0000      -0.320338        -8.7168 
 250   2.0000      -0.314534        -8.5589 
 251   2.0000      -0.302770        -8.2388 
 252   2.0000      -0.300477        -8.1764 
 253   2.0000      -0.297071        -8.0837 
[...]
   264a -> 272a  :     0.022906 (c= -0.15134648)
   265a -> 271a  :     0.027854 (c=  0.16689419)
   266a -> 273a  :     0.163962 (c= -0.40492225)

STATE 44:  E=   0.132753 au      3.612 eV    29135.9 cm**-1
   254a -> 267a  :     0.030969 (c= -0.17598124)
   255a -> 269a  :     0.010679 (c= -0.10334084)
   256a -> 269a  :     0.040802 (c=  0.20199529)
   256a -> 271a  :     0.035292 (c=  0.18786156)
   258a -> 267a  :     0.012904 (c= -0.11359418)
   259a -> 269a  :     0.068742 (c= -0.26218709)
   260a -> 269a  :     0.349111 (c=  0.59085610)
   261a -> 269a  :     0.252280 (c=  0.50227500)
   262a -> 271a  :     0.069776 (c=  0.26415237)
   266a -> 273a  :     0.016214 (c=  0.12733578)
   266a -> 274a  :     0.017549 (c=  0.13247152)

STATE 45:  E=   0.133665 au      3.637 eV    29336.0 cm**-1
   255a -> 268a  :     0.023562 (c= -0.15349876)
   262a -> 270a  :     0.051064 (c= -0.22597338)
   262a -> 271a  :     0.097551 (c= -0.31233078)
   263a -> 272a  :     0.083803 (c= -0.28948780)
   265a -> 271a  :     0.011868 (c=  0.10894257)
   266a -> 273a  :     0.258445 (c=  0.50837489)
   266a -> 274a  :     0.206258 (c=  0.45415614)
   266a -> 275a  :     0.135913 (c= -0.36866326)

STATE 46:  E=   0.134398 au      3.657 eV    29496.9 cm**-1
   251a -> 267a  :     0.030610 (c=  0.17495581)
   255a -> 267a  :     0.043134 (c= -0.20768672)
   255a -> 268a  :     0.037494 (c=  0.19363327)
   260a -> 269a  :     0.016987 (c= -0.13033593)
   262a -> 270a  :     0.027942 (c=  0.16715870)
   263a -> 270a  :     0.028595 (c=  0.16910066)
   263a -> 272a  :     0.657912 (c= -0.81111800)
   265a -> 272a  :     0.014011 (c=  0.11836822)
   266a -> 274a  :     0.063455 (c= -0.25190355)

STATE 47:  E=   0.134806 au      3.668 eV    29586.6 cm**-1
   251a -> 267a  :     0.275495 (c=  0.52487579)
   254a -> 271a  :     0.011322 (c= -0.10640602)
   255a -> 267a  :     0.218770 (c= -0.46772811)
   256a -> 267a  :     0.014696 (c= -0.12122699)
   256a -> 269a  :     0.035513 (c=  0.18844998)
   256a -> 271a  :     0.038268 (c=  0.19562324)
   258a -> 267a  :     0.025225 (c= -0.15882285)
   259a -> 269a  :     0.010807 (c=  0.10395497)
   260a -> 269a  :     0.050438 (c= -0.22458473)
   260a -> 271a  :     0.011364 (c= -0.10660389)
   261a -> 269a  :     0.019992 (c=  0.14139250)
   261a -> 271a  :     0.029694 (c=  0.17231966)
   262a -> 271a  :     0.060614 (c= -0.24619957)
   263a -> 272a  :     0.086717 (c=  0.29447757)

STATE 48:  E=   0.135938 au      3.699 eV    29835.0 cm**-1
   251a -> 267a  :     0.011131 (c= -0.10550346)
   256a -> 268a  :     0.630897 (c= -0.79429045)
   256a -> 271a  :     0.013312 (c=  0.11537945)
   260a -> 269a  :     0.011541 (c= -0.10742869)
   261a -> 270a  :     0.020755 (c=  0.14406423)
   261a -> 271a  :     0.013154 (c= -0.11469305)
   262a -> 272a  :     0.020108 (c= -0.14180265)
   263a -> 272a  :     0.032442 (c= -0.18011589)
   266a -> 273a  :     0.011008 (c= -0.10491892)
   266a -> 274a  :     0.061614 (c=  0.24822187)
   266a -> 275a  :     0.073519 (c=  0.27114403)

STATE 49:  E=   0.136463 au      3.713 eV    29950.1 cm**-1
   252a -> 267a  :     0.020330 (c= -0.14258224)
   253a -> 267a  :     0.018450 (c= -0.13583024)
   254a -> 267a  :     0.011888 (c= -0.10903420)
   255a -> 267a  :     0.059917 (c=  0.24478000)
   256a -> 268a  :     0.252402 (c=  0.50239585)
   260a -> 269a  :     0.013254 (c= -0.11512630)
   262a -> 270a  :     0.018467 (c=  0.13589196)
   262a -> 272a  :     0.037661 (c= -0.19406543)
   265a -> 275a  :     0.010491 (c= -0.10242474)
   266a -> 274a  :     0.275244 (c=  0.52463654)
   266a -> 275a  :     0.172782 (c=  0.41567046)

STATE 50:  E=   0.136760 au      3.721 eV    30015.4 cm**-1
   251a -> 267a  :     0.166963 (c= -0.40861123)
   252a -> 267a  :     0.035389 (c=  0.18812063)
   253a -> 267a  :     0.036892 (c=  0.19207220)
   254a -> 267a  :     0.120670 (c=  0.34737605)
   255a -> 267a  :     0.440212 (c= -0.66348482)
   256a -> 268a  :     0.012965 (c=  0.11386554)
   256a -> 269a  :     0.016391 (c= -0.12802626)
   261a -> 271a  :     0.026198 (c= -0.16185932)
   266a -> 274a  :     0.051679 (c=  0.22732927)
   266a -> 275a  :     0.017679 (c=  0.13296253)


-----------------------------
TD-DFT/TDA-EXCITATION SPECTRA
-----------------------------

Center of mass = ( 19.5651, -3.6905,  3.5028)
Calculating the Dipole integrals                  ... done
Transforming integrals                            ... done
Calculating the Linear Momentum integrals         ... done
Transforming integrals                            ... done
Calculating angular momentum integrals            ... done
Transforming integrals                            ... done

-----------------------------------------------------------------------------
         ABSORPTION SPECTRUM VIA TRANSITION ELECTRIC DIPOLE MOMENTS
-----------------------------------------------------------------------------
State   Energy    Wavelength  fosc         T2        TX        TY        TZ  
        (cm-1)      (nm)                 (au**2)    (au)      (au)      (au) 
-----------------------------------------------------------------------------
   1    9689.3   1032.1   0.008147171   0.27681   0.45545  -0.24069   0.10700
   2   13683.5    730.8   0.029239855   0.70348   0.20934  -0.77423   0.24541
   3   14244.5    702.0   0.864421224  19.97806   3.38941  -2.42236   1.61930
   4   15168.6    659.3   0.020500416   0.44493  -0.40491   0.41912  -0.32452
   5   16112.5    620.6   0.011818257   0.24147   0.48532  -0.06326  -0.04394
   6   18020.7    554.9   0.025069612   0.45799   0.66761  -0.04696   0.10038
   7   18142.6    551.2   0.296423841   5.37884   1.79503  -1.31756   0.64865
   8   18166.8    550.5   0.020733379   0.37572  -0.15263   0.51641  -0.29283
   9   18739.3    533.6   0.087137780   1.53084   1.07340  -0.33822   0.51406
  10   19579.4    510.7   0.475216420   7.99037  -1.88994   1.64865  -1.30401
  11   20006.1    499.8   0.006515126   0.10721   0.31520   0.04932   0.07365
  12   20499.0    487.8   0.023054496   0.37025  -0.12215   0.16791  -0.57196
  13   20799.6    480.8   0.060309911   0.95458  -0.69380   0.61885  -0.30041
  14   21025.1    475.6   0.024229685   0.37939  -0.39655   0.44646   0.15102
  15   21233.3    471.0   0.007341095   0.11382  -0.17279  -0.06864  -0.28152
  16   22020.3    454.1   0.023440468   0.35044   0.53490  -0.08613  -0.23854
  17   23054.0    433.8   0.008743494   0.12486  -0.10494  -0.33187   0.06091
  18   23378.1    427.8   0.049029567   0.69044   0.27241   0.73136  -0.28522
  19   23461.0    426.2   0.020270925   0.28445   0.49153  -0.20480   0.03009
  20   23748.8    421.1   0.107524492   1.49053  -1.20802  -0.17599  -0.01561
  21   23768.0    420.7   0.012360475   0.17121   0.39861   0.07169  -0.08471
  22   24161.8    413.9   0.026571197   0.36204   0.46073  -0.35955   0.14314
  23   24257.8    412.2   0.026888877   0.36492  -0.18760   0.11199   0.56319
  24   24842.1    402.5   0.023989681   0.31792  -0.25261   0.43385   0.25666
  25   25104.2    398.3   0.032863259   0.43096   0.47195  -0.37759   0.25621
  26   25255.4    396.0   0.067163160   0.87549   0.70431  -0.18206   0.58846
  27   25528.9    391.7   0.001827084   0.02356  -0.08732   0.07004  -0.10503
  28   25809.9    387.4   0.003536596   0.04511   0.17198   0.09212  -0.08395
  29   25848.6    386.9   0.012641291   0.16100   0.32622   0.22612  -0.05876
  30   26353.2    379.5   0.017135940   0.21407   0.33927  -0.04143  -0.31184
  31   26414.5    378.6   0.012200993   0.15206   0.31069   0.14941  -0.18224
  32   26696.0    374.6   0.008067357   0.09949  -0.22594   0.03212   0.21773
  33   26787.1    373.3   0.065731994   0.80784   0.51924   0.70471   0.20400
  34   27050.8    369.7   0.068500489   0.83366  -0.10295  -0.79671   0.43395
  35   27131.1    368.6   0.009733278   0.11810  -0.20526   0.09107  -0.26015
  36   27713.7    360.8   0.049711710   0.59053   0.41408  -0.32276   0.56115
  37   27942.4    357.9   0.129284821   1.52321  -0.58243   0.91863  -0.58319
  38   27968.3    357.5   0.029345041   0.34542  -0.13740   0.49253  -0.28975
  39   28068.7    356.3   0.003862702   0.04530  -0.12723   0.15149  -0.07855
  40   28368.6    352.5   0.219075167   2.54232   1.31550  -0.40124   0.80672
  41   28463.2    351.3   0.003137570   0.03629   0.14067  -0.04597   0.11995
  42   28671.4    348.8   0.060761542   0.69768  -0.70329   0.04525   0.44834
  43   29049.5    344.2   0.035590330   0.40334  -0.50133   0.15998  -0.35555
  44   29135.9    343.2   0.022360170   0.25265   0.29332   0.37535   0.16041
  45   29336.0    340.9   0.050004309   0.56115   0.04805  -0.49783   0.55768
  46   29496.9    339.0   0.018196860   0.20309   0.10288   0.40261  -0.17439
  47   29586.6    338.0   0.052376045   0.58279   0.54455   0.53116  -0.06418
  48   29835.0    335.2   0.008717019   0.09619   0.29902  -0.07680  -0.02960
  49   29950.1    333.9   0.021501771   0.23635   0.44125   0.19937  -0.04361
  50   30015.4    333.2   0.010026087   0.10997   0.07156  -0.30962   0.09478

-----------------------------------------------------------------------------
         ABSORPTION SPECTRUM VIA TRANSITION VELOCITY DIPOLE MOMENTS
-----------------------------------------------------------------------------
State   Energy    Wavelength   fosc        P2         PX        PY        PZ  
        (cm-1)      (nm)                 (au**2)     (au)      (au)      (au) 
-----------------------------------------------------------------------------
   1    9689.3   1032.1   0.029022577   0.00192   0.03766   0.02198   0.00452
   2   13683.5    730.8   0.030568844   0.00286  -0.05097  -0.00819   0.01391
   3   14244.5    702.0   0.078473273   0.00764  -0.01578   0.08595  -0.00203
   4   15168.6    659.3   0.020295403   0.00210  -0.01145  -0.03229  -0.03051
   5   16112.5    620.6   0.030419195   0.00335   0.04201   0.03979   0.00142
   6   18020.7    554.9   0.019667111   0.00242   0.01851   0.03999   0.02192
   7   18142.6    551.2   0.066543157   0.00825  -0.02890   0.07399  -0.04406
   8   18166.8    550.5   0.016384182   0.00203   0.03982   0.00094   0.02117
   9   18739.3    533.6   0.083724904   0.01072   0.03164   0.09395  -0.02992
  10   19579.4    510.7   0.086504298   0.01158   0.07808  -0.06486  -0.03567
  11   20006.1    499.8   0.002434891   0.00033   0.01588  -0.00866  -0.00241
  12   20499.0    487.8   0.005689046   0.00080   0.02568   0.00651  -0.00976
  13   20799.6    480.8   0.014629042   0.00208   0.02775  -0.03483   0.00981
  14   21025.1    475.6   0.002276590   0.00033   0.01234  -0.00950   0.00920
  15   21233.3    471.0   0.006404204   0.00093   0.00507  -0.01893  -0.02336
  16   22020.3    454.1   0.012603496   0.00190   0.03100   0.03057  -0.00112
  17   23054.0    433.8   0.015643237   0.00246  -0.02613  -0.01814  -0.03812
  18   23378.1    427.8   0.045778822   0.00731   0.05454   0.04515   0.04796
  19   23461.0    426.2   0.012582945   0.00202  -0.00834   0.04292  -0.01029
  20   23748.8    421.1   0.065115228   0.01057  -0.03814  -0.09496  -0.00984
  21   23768.0    420.7   0.008951287   0.00145   0.01585   0.03358   0.00867
  22   24161.8    413.9   0.006898760   0.00114  -0.01854   0.02361  -0.01543
  23   24257.8    412.2   0.003750175   0.00062  -0.02344   0.00270  -0.00805
  24   24842.1    402.5   0.005691953   0.00097   0.00829  -0.02953  -0.00504
  25   25104.2    398.3   0.022292739   0.00382  -0.02118   0.04654   0.03478
  26   25255.4    396.0   0.013553047   0.00234  -0.02119   0.04119   0.01391
  27   25528.9    391.7   0.016622148   0.00290   0.01906   0.01491  -0.04811
  28   25809.9    387.4   0.002481785   0.00044   0.01601   0.01347   0.00016
  29   25848.6    386.9   0.011020830   0.00195   0.02962   0.03242   0.00436
  30   26353.2    379.5   0.015739435   0.00283  -0.00268   0.04425   0.02949
  31   26414.5    378.6   0.003008549   0.00054   0.00874  -0.00356  -0.02131
  32   26696.0    374.6   0.002181814   0.00040  -0.00289  -0.01385   0.01407
  33   26787.1    373.3   0.017492961   0.00320   0.04346   0.02515   0.02610
  34   27050.8    369.7   0.019125845   0.00354  -0.05558   0.00631  -0.02017
  35   27131.1    368.6   0.006491922   0.00120   0.01285   0.00862   0.03105
  36   27713.7    360.8   0.011485470   0.00218  -0.02147   0.03881   0.01445
  37   27942.4    357.9   0.037976721   0.00725   0.06558  -0.05141  -0.01758
  38   27968.3    357.5   0.010932796   0.00209   0.03694  -0.02496  -0.01011
  39   28068.7    356.3   0.000830751   0.00016   0.00957  -0.00545  -0.00617
  40   28368.6    352.5   0.044342888   0.00860  -0.05272   0.06791  -0.03471
  41   28463.2    351.3   0.000761695   0.00015  -0.00582   0.00806  -0.00702
  42   28671.4    348.8   0.008375313   0.00164   0.00939  -0.01788  -0.03512
  43   29049.5    344.2   0.008955676   0.00178   0.01657  -0.03169  -0.02235
  44   29135.9    343.2   0.001833865   0.00037   0.01683  -0.00060  -0.00903
  45   29336.0    340.9   0.013348111   0.00268  -0.03137   0.02248  -0.03445
  46   29496.9    339.0   0.004305493   0.00087   0.02121  -0.01612   0.01257
  47   29586.6    338.0   0.004775267   0.00097   0.02893  -0.00730  -0.00868
  48   29835.0    335.2   0.004151164   0.00085   0.00562   0.02708   0.00904
  49   29950.1    333.9   0.011066900   0.00227   0.01995   0.02866   0.03234
  50   30015.4    333.2   0.007866597   0.00161  -0.00837   0.03092   0.02424

-------------------------------------------------------------------
                             CD SPECTRUM
-------------------------------------------------------------------
State  Energy     Wavelength     R         MX        MY        MZ   
       (cm-1)       (nm)     (1e40*cgs)   (au)      (au)      (au)  
-------------------------------------------------------------------
   1    9689.3   1032.1    -13.04860  -0.01961   0.01939  -0.13160
   2   13683.5    730.8    -56.19440   0.28244   0.20953  -0.06560
   3   14244.5    702.0    -271.32794   0.04954   0.26234  -0.06665
   4   15168.6    659.3    -14.79955  -0.15873  -0.17761   0.06540
   5   16112.5    620.6      5.41270  -0.01130  -0.01854  -0.35944
   6   18020.7    554.9    -33.15505  -0.12919   0.02422   0.16994
   7   18142.6    551.2    -86.42511   0.01401   0.20918   0.10352
   8   18166.8    550.5     -5.89960  -0.12320  -0.12334  -0.11056
   9   18739.3    533.6      8.08183  -0.00632   0.45597   0.34654
  10   19579.4    510.7    -334.58766   0.08908  -0.16552   0.20586
  11   20006.1    499.8      8.90448   0.04037  -0.10740   0.15560
  12   20499.0    487.8     92.59860  -0.11562  -0.16951  -0.36847
  13   20799.6    480.8    -14.83973  -0.08879  -0.04800   0.21098
  14   21025.1    475.6     28.09958   0.05292   0.11659   0.18894
  15   21233.3    471.0     -9.33380  -0.11460  -0.01544   0.14443
  16   22020.3    454.1     55.07712   0.14520   0.02834  -0.17438
  17   23054.0    433.8    -29.09250  -0.04410   0.17946  -0.11134
  18   23378.1    427.8    -57.81455  -0.08144  -0.37460  -0.60838
  19   23461.0    426.2    -27.49550  -0.06521   0.10150  -0.18215
  20   23748.8    421.1     -0.79114   0.00285  -0.02813   0.20414
  21   23768.0    420.7     -1.48084  -0.01842  -0.01390  -0.06134
  22   24161.8    413.9    -27.24006  -0.04818   0.07202  -0.06767
  23   24257.8    412.2     28.05133   0.03259   0.00866   0.11478
  24   24842.1    402.5      4.27708   0.09786  -0.11070   0.31879
  25   25104.2    398.3    -81.03777  -0.15079   0.05452  -0.31278
  26   25255.4    396.0     -6.54795  -0.11590  -0.06073   0.09632
  27   25528.9    391.7     -1.26045   0.02844   0.04540   0.03209
  28   25809.9    387.4      0.12697  -0.00866   0.04619   0.02975
  29   25848.6    386.9     -2.90192  -0.03774   0.05991   0.12579
  30   26353.2    379.5    113.54820   0.09933  -0.25122  -0.63090
  31   26414.5    378.6      0.26444   0.03668  -0.01272   0.04902
  32   26696.0    374.6    -15.25566   0.00973  -0.09101  -0.12509
  33   26787.1    373.3    -61.88698   0.04181  -0.17666  -0.13963
  34   27050.8    369.7    -11.05506  -0.04631   0.15583   0.22108
  35   27131.1    368.6     -4.89709   0.08188  -0.06647  -0.04795
  36   27713.7    360.8     41.26738   0.13289   0.21937   0.18410
  37   27942.4    357.9    -122.57256   0.08221  -0.15712   0.11622
  38   27968.3    357.5    -77.38893   0.12901   0.03435   0.56374
  39   28068.7    356.3     -4.37850  -0.02091  -0.10659  -0.05346
  40   28368.6    352.5    119.18714   0.06258   0.43371   0.42705
  41   28463.2    351.3      4.16565   0.01192   0.05987   0.08262
  42   28671.4    348.8     70.88440  -0.06643   0.10681   0.22037
  43   29049.5    344.2     30.29217  -0.01055  -0.17434  -0.24428
  44   29135.9    343.2      3.80531  -0.04811  -0.02964   0.20765
  45   29336.0    340.9     34.22245   0.00022   0.26508   0.36677
  46   29496.9    339.0    -13.57962  -0.07955  -0.09978  -0.11211
  47   29586.6    338.0    -48.70892  -0.08536  -0.11056  -0.02946
  48   29835.0    335.2     15.47628   0.07723  -0.04417  -0.21424
  49   29950.1    333.9     14.57681   0.05470  -0.03128  -0.29858
  50   30015.4    333.2    -11.35844   0.10582   0.01803  -0.27518

Total run time:   102979.498 sec

           *** ORCA-CIS/TD-DFT FINISHED WITHOUT ERROR ***

-----------------------
CIS/TD-DFT TOTAL ENERGY
-----------------------

    E(SCF)  =  -4710.604769401 Eh
    DE(CIS) =      0.044147892 Eh (Root  1)
    ----------------------------- ---------
    E(tot)  =  -4710.560621509 Eh


-------------------------   --------------------
FINAL SINGLE POINT ENERGY     -4710.560621509405
-------------------------   --------------------


                            ***************************************
                            *     ORCA property calculations      *
                            ***************************************

                                    ---------------------
                                    Active property flags
                                    ---------------------
   (+) Dipole Moment


------------------------------------------------------------------------------
                       ORCA ELECTRIC PROPERTIES CALCULATION
------------------------------------------------------------------------------

Dipole Moment Calculation                       ... on
Quadrupole Moment Calculation                   ... off
Polarizability Calculation                      ... off
GBWName                                         ... Y11.gbw
Electron density file                           ... Y11.scfp
The origin for moment calculation is the CENTER OF MASS  = (19.565116, -3.690547  3.502843)

-------------
DIPOLE MOMENT
-------------
                                X             Y             Z
Electronic contribution:     -9.51959     -18.08180     -27.85246
Nuclear contribution   :      8.04970      19.04710      28.89578
                        -----------------------------------------
Total Dipole Moment    :     -1.46990       0.96530       1.04332
                        -----------------------------------------
Magnitude (a.u.)       :      2.04473
Magnitude (Debye)      :      5.19729



--------------------
Rotational spectrum 
--------------------
 
Rotational constants in cm-1:     0.001577     0.000361     0.000329 
Rotational constants in MHz :    47.277269    10.809043     9.864132 

 Dipole components along the rotational axes: 
x,y,z [a.u.] :    -1.265782     1.067808    -1.199376 
x,y,z [Debye]:    -3.217361     2.714153    -3.048573 

 

Timings for individual modules:

Sum of individual times         ...   122876.313 sec (=2047.939 min)
GTO integral calculation        ...        9.329 sec (=   0.155 min)   0.0 %
SCF iterations                  ...    19884.681 sec (= 331.411 min)  16.2 %
CIS module                      ...   102982.302 sec (=1716.372 min)  83.8 %
                             ****ORCA TERMINATED NORMALLY****
TOTAL RUN TIME: 1 days 10 hours 8 minutes 0 seconds 27 msec
