
                                 *****************
                                 * O   R   C   A *
                                 *****************

           --- An Ab Initio, DFT and Semiempirical electronic structure package ---

                  #######################################################
                  #                        -***-                        #
                  #          Department of theory and spectroscopy      #
                  #               Directorship: Frank Neese             #
                  #        Max Planck Institute fuer Kohlenforschung    #
                  #                Kaiser Wilhelm Platz 1               #
                  #                 D-45470 Muelheim/Ruhr               #
                  #                      Germany                        #
                  #                                                     #
                  #                  All rights reserved                #
                  #                        -***-                        #
                  #######################################################


                         Program Version 4.2.0 -  RELEASE  -


 With contributions from (in alphabetic order):
   Daniel Aravena         : Magnetic Suceptibility
   Michael Atanasov       : Ab Initio Ligand Field Theory (pilot matlab implementation)
   Alexander A. Auer      : GIAO ZORA, VPT2
   Ute Becker             : Parallelization
   Giovanni Bistoni       : ED, misc. LED, open-shell LED, HFLED
   Martin Brehm           : Molecular dynamics
   Dmytro Bykov           : SCF Hessian
   Vijay G. Chilkuri      : MRCI spin determinant printing, contributions to CSF-ICE
   Dipayan Datta          : RHF DLPNO-CCSD density
   Achintya Kumar Dutta   : EOM-CC, STEOM-CC
   Dmitry Ganyushin       : Spin-Orbit,Spin-Spin,Magnetic field MRCI
   Miquel Garcia          : C-PCM Hessian, Gaussian charge scheme
   Yang Guo               : DLPNO-NEVPT2, CIM, IAO-localization
   Andreas Hansen         : Spin unrestricted coupled pair/coupled cluster methods
   Benjamin Helmich-Paris : CASSCF linear response (MC-RPA)
   Lee Huntington         : MR-EOM, pCC
   Robert Izsak           : Overlap fitted RIJCOSX, COSX-SCS-MP3, EOM
   Christian Kollmar      : KDIIS, OOCD, Brueckner-CCSD(T), CCSD density
   Simone Kossmann        : Meta GGA functionals, TD-DFT gradient, OOMP2, MP2 Hessian
   Martin Krupicka        : AUTO-CI
   Lucas Lang             : DCDCAS
   Dagmar Lenk            : GEPOL surface, SMD
   Dimitrios Liakos       : Extrapolation schemes; Compound Job, initial MDCI parallelization
   Dimitrios Manganas     : Further ROCIS development; embedding schemes
   Dimitrios Pantazis     : SARC Basis sets
   Taras Petrenko         : DFT Hessian,TD-DFT gradient, ASA, ECA, R-Raman, ABS, FL, XAS/XES, NRVS
   Peter Pinski           : DLPNO-MP2, DLPNO-MP2 Gradient
   Christoph Reimann      : Effective Core Potentials
   Marius Retegan         : Local ZFS, SOC
   Christoph Riplinger    : Optimizer, TS searches, QM/MM, DLPNO-CCSD(T), (RO)-DLPNO pert. Triples
   Tobias Risthaus        : Range-separated hybrids, TD-DFT gradient, RPA, STAB
   Michael Roemelt        : Original ROCIS implementation
   Masaaki Saitow         : Open-shell DLPNO-CCSD energy and density
   Barbara Sandhoefer     : DKH picture change effects
   Avijit Sen             : IP-ROCIS
   Kantharuban Sivalingam : CASSCF convergence, NEVPT2, FIC-MRCI
   Bernardo de Souza      : ESD, SOC TD-DFT
   Georgi Stoychev        : AutoAux, RI-MP2 NMR
   Willem Van den Heuvel  : Paramagnetic NMR
   Boris Wezisla          : Elementary symmetry handling
   Frank Wennmohs         : Technical directorship


 We gratefully acknowledge several colleagues who have allowed us to
 interface, adapt or use parts of their codes:
   Stefan Grimme, W. Hujo, H. Kruse,             : VdW corrections, initial TS optimization,
                  C. Bannwarth                     DFT functionals, gCP, sTDA/sTD-DF
   Ed Valeev, F. Pavosevic, A. Kumar             : LibInt (2-el integral package), F12 methods
   Garnet Chan, S. Sharma, J. Yang, R. Olivares  : DMRG
   Ulf Ekstrom                                   : XCFun DFT Library
   Mihaly Kallay                                 : mrcc  (arbitrary order and MRCC methods)
   Andreas Klamt, Michael Diedenhofen            : otool_cosmo (COSMO solvation model)
   Jiri Pittner, Ondrej Demel                    : Mk-CCSD
   Frank Weinhold                                : gennbo (NPA and NBO analysis)
   Christopher J. Cramer and Donald G. Truhlar   : smd solvation model
   Lars Goerigk                                  : TD-DFT with DH, B97 family of functionals
   V. Asgeirsson, H. Jonsson                     : NEB implementation
   FAccTs GmbH                                   : IRC, NEB, NEB-TS, Multilevel, MM, QM/MM, CI optimization
   S Lehtola, MJT Oliveira, MAL Marques          : LibXC Library


 Your calculation uses the libint2 library for the computation of 2-el integrals
 For citations please refer to: http://libint.valeyev.net

 Your ORCA version has been built with support for libXC version: 4.2.3
 For citations please refer to: https://tddft.org/programs/libxc/

 This ORCA versions uses:
   CBLAS   interface :  Fast vector & matrix operations
   LAPACKE interface :  Fast linear algebra routines
   SCALAPACK package :  Parallel linear algebra routines


----- Orbital basis set information -----
Your calculation utilizes the basis: def2-TZVP
   F. Weigend and R. Ahlrichs, Phys. Chem. Chem. Phys. 7, 3297 (2005).

----- AuxJ basis set information -----
Your calculation utilizes the auxiliary basis: def2/J
   F. Weigend, Phys. Chem. Chem. Phys. 8, 1057 (2006).

================================================================================
                                        WARNINGS
                       Please study these warnings very carefully!
================================================================================

INFO   : Checking CIS options ...

WARNING: CIS/ROCIS methods need fully converged wavefunctions
  ===> : Setting SCFConvForced true
         You can overwrite this default with %scf ConvForced false 


INFO   : the flag for use of LIBINT has been found!

================================================================================
                                       INPUT FILE
================================================================================
NAME = Y6_2.inp
|  1> # ORCA input file
|  2> # Y6_2.out
|  3> ! B3LYP def2-TZVP def2/J RIJCOSX Grid4 TightSCF
|  4> %maxcore 1000
|  5> %tddft
|  6>   maxdim 5
|  7>   nroots 50
|  8>   end
|  9> * xyz 0 1
| 10>    C        1.95345         3.55773         2.60812
| 11>    O        1.74284         4.44788         1.81814
| 12>    C        1.17119         3.21481         3.81942
| 13>    C        0.07405         3.86372         4.35066
| 14>    C       -0.47182         3.35467         5.51877
| 15>    F       -1.53421         3.95349         6.06906
| 16>    C        0.07599         2.22576         6.12965
| 17>    F       -0.46401         1.76586         7.26321
| 18>    C        1.17186         1.56702         5.59173
| 19>    C        1.72047         2.06983         4.42325
| 20>    C        2.83472         1.59404         3.60289
| 21>    C        3.34229         0.32168         3.62394
| 22>    C        4.22489        -0.18794         2.64994
| 23>    N        4.90873        -0.67238         1.86552
| 24>    C        2.97926        -0.65423         4.57530
| 25>    N        2.73476        -1.47700         5.33673
| 26>    C        3.08896         2.60142         2.59829
| 27>    C        4.12881         2.79885         1.73775
| 28>    C        5.44414         2.28007         1.76098
| 29>    S        6.20723         2.03645         0.19092
| 30>    C        7.64112         1.46999         0.94983
| 31>    C        7.54462         1.54631         2.34724
| 32>    C        6.30193         1.98972         2.81750
| 33>    C        6.02519         2.25972         4.26381
| 34>    C        6.26803         1.04061         5.15458
| 35>    S        9.00881         1.03735         3.15917
| 36>    C        9.71593         0.68099         1.62414
| 37>    C        8.87227         0.95348         0.54051
| 38>    N        9.49002         0.61307        -0.63496
| 39>    C        9.07825         1.26061        -1.86225
| 40>    C        9.29361         2.77213        -1.78576
| 41>    C       10.73152         0.09308        -0.31305
| 42>    C       10.91199         0.17167         1.09711
| 43>    C       12.14343        -0.16564         1.70300
| 44>    N       12.48605        -0.08172         2.97843
| 45>    S       14.03639        -0.52094         3.12534
| 46>    N       14.33083        -0.84110         1.56601
| 47>    C       13.22577        -0.61548         0.87437
| 48>    C       12.98555        -0.84213        -0.50057
| 49>    C       11.72076        -0.55510        -1.09318
| 50>    N       11.71195        -1.05365        -2.37896
| 51>    C       10.59408        -1.34161        -3.25215
| 52>    C       10.64143        -0.52532        -4.54429
| 53>    C       12.93680        -1.62032        -2.61616
| 54>    C       13.75029        -1.48618        -1.48070
| 55>    S       15.30812        -2.21651        -1.64460
| 56>    C       14.85204        -2.74954        -3.25239
| 57>    C       13.55580        -2.35066        -3.63234
| 58>    S       13.15073        -2.90408        -5.21172
| 59>    C       14.71522        -3.71008        -5.34631
| 60>    C       15.51125        -3.51676        -4.19981
| 61>    C       16.90438        -4.02077        -4.01322
| 62>    C       17.91415        -3.10321        -4.70872
| 63>    C       15.11728        -4.49475        -6.42663
| 64>    C       14.48650        -4.78793        -7.61556
| 65>    C       15.00083        -5.68042        -8.63275
| 66>    C       16.12705        -6.46106        -8.57038
| 67>    C       16.54717        -7.32690        -9.60234
| 68>    N       16.94774        -8.04919       -10.39912
| 69>    C       17.02043        -6.53361        -7.48077
| 70>    N       17.79446        -6.65392        -6.63976
| 71>    C       14.06845        -5.64022        -9.76144
| 72>    C       14.08755        -6.27910       -10.99086
| 73>    C       13.04245        -6.03282       -11.86903
| 74>    F       13.04429        -6.63774       -13.06215
| 75>    C       11.99603        -5.17148       -11.54041
| 76>    F       11.00931        -4.96035       -12.42011
| 77>    C       11.96832        -4.53019       -10.31237
| 78>    C       13.00850        -4.77615        -9.43956
| 79>    C       13.21948        -4.22859        -8.08264
| 80>    O       12.47435        -3.46196        -7.49705
| 81>    H       -0.34889         4.73575         3.87785
| 82>    H        1.56276         0.70005         6.09915
| 83>    H        3.91347         3.48660         0.92349
| 84>    H        5.00295         2.61930         4.38533
| 85>    H        6.69761         3.06110         4.58694
| 86>    H        5.72299         0.17113         4.79614
| 87>    H        5.94535         1.25652         6.17011
| 88>    H        7.32433         0.78776         5.17625
| 89>    H        8.01790         1.04365        -2.02462
| 90>    H        9.65822         0.87183        -2.69083
| 91>    H       10.34175         2.99434        -1.59535
| 92>    H        8.69467         3.21334        -0.99396
| 93>    H        9.00549         3.22762        -2.72900
| 94>    H        9.66717        -1.18135        -2.70046
| 95>    H       10.64390        -2.40424        -3.51390
| 96>    H        9.69860        -0.62513        -5.07418
| 97>    H       11.43420        -0.89021        -5.19082
| 98>    H       10.82617         0.52899        -4.34836
| 99>    H       17.00931        -5.03552        -4.40068
|100>    H       17.11927        -4.04005        -2.94302
|101>    H       17.72432        -3.06000        -5.77882
|102>    H       18.92082        -3.47925        -4.55165
|103>    H       17.85045        -2.09584        -4.30412
|104>    H       16.09054        -4.94550        -6.28896
|105>    H       14.87209        -6.95247       -11.29429
|106>    H       11.16067        -3.86418       -10.05399
|107> *
|108> 
|109>                          ****END OF INPUT****
================================================================================

                       ****************************
                       * Single Point Calculation *
                       ****************************

---------------------------------
CARTESIAN COORDINATES (ANGSTROEM)
---------------------------------
  C      1.953450    3.557730    2.608120
  O      1.742840    4.447880    1.818140
  C      1.171190    3.214810    3.819420
  C      0.074050    3.863720    4.350660
  C     -0.471820    3.354670    5.518770
  F     -1.534210    3.953490    6.069060
  C      0.075990    2.225760    6.129650
  F     -0.464010    1.765860    7.263210
  C      1.171860    1.567020    5.591730
  C      1.720470    2.069830    4.423250
  C      2.834720    1.594040    3.602890
  C      3.342290    0.321680    3.623940
  C      4.224890   -0.187940    2.649940
  N      4.908730   -0.672380    1.865520
  C      2.979260   -0.654230    4.575300
  N      2.734760   -1.477000    5.336730
  C      3.088960    2.601420    2.598290
  C      4.128810    2.798850    1.737750
  C      5.444140    2.280070    1.760980
  S      6.207230    2.036450    0.190920
  C      7.641120    1.469990    0.949830
  C      7.544620    1.546310    2.347240
  C      6.301930    1.989720    2.817500
  C      6.025190    2.259720    4.263810
  C      6.268030    1.040610    5.154580
  S      9.008810    1.037350    3.159170
  C      9.715930    0.680990    1.624140
  C      8.872270    0.953480    0.540510
  N      9.490020    0.613070   -0.634960
  C      9.078250    1.260610   -1.862250
  C      9.293610    2.772130   -1.785760
  C     10.731520    0.093080   -0.313050
  C     10.911990    0.171670    1.097110
  C     12.143430   -0.165640    1.703000
  N     12.486050   -0.081720    2.978430
  S     14.036390   -0.520940    3.125340
  N     14.330830   -0.841100    1.566010
  C     13.225770   -0.615480    0.874370
  C     12.985550   -0.842130   -0.500570
  C     11.720760   -0.555100   -1.093180
  N     11.711950   -1.053650   -2.378960
  C     10.594080   -1.341610   -3.252150
  C     10.641430   -0.525320   -4.544290
  C     12.936800   -1.620320   -2.616160
  C     13.750290   -1.486180   -1.480700
  S     15.308120   -2.216510   -1.644600
  C     14.852040   -2.749540   -3.252390
  C     13.555800   -2.350660   -3.632340
  S     13.150730   -2.904080   -5.211720
  C     14.715220   -3.710080   -5.346310
  C     15.511250   -3.516760   -4.199810
  C     16.904380   -4.020770   -4.013220
  C     17.914150   -3.103210   -4.708720
  C     15.117280   -4.494750   -6.426630
  C     14.486500   -4.787930   -7.615560
  C     15.000830   -5.680420   -8.632750
  C     16.127050   -6.461060   -8.570380
  C     16.547170   -7.326900   -9.602340
  N     16.947740   -8.049190  -10.399120
  C     17.020430   -6.533610   -7.480770
  N     17.794460   -6.653920   -6.639760
  C     14.068450   -5.640220   -9.761440
  C     14.087550   -6.279100  -10.990860
  C     13.042450   -6.032820  -11.869030
  F     13.044290   -6.637740  -13.062150
  C     11.996030   -5.171480  -11.540410
  F     11.009310   -4.960350  -12.420110
  C     11.968320   -4.530190  -10.312370
  C     13.008500   -4.776150   -9.439560
  C     13.219480   -4.228590   -8.082640
  O     12.474350   -3.461960   -7.497050
  H     -0.348890    4.735750    3.877850
  H      1.562760    0.700050    6.099150
  H      3.913470    3.486600    0.923490
  H      5.002950    2.619300    4.385330
  H      6.697610    3.061100    4.586940
  H      5.722990    0.171130    4.796140
  H      5.945350    1.256520    6.170110
  H      7.324330    0.787760    5.176250
  H      8.017900    1.043650   -2.024620
  H      9.658220    0.871830   -2.690830
  H     10.341750    2.994340   -1.595350
  H      8.694670    3.213340   -0.993960
  H      9.005490    3.227620   -2.729000
  H      9.667170   -1.181350   -2.700460
  H     10.643900   -2.404240   -3.513900
  H      9.698600   -0.625130   -5.074180
  H     11.434200   -0.890210   -5.190820
  H     10.826170    0.528990   -4.348360
  H     17.009310   -5.035520   -4.400680
  H     17.119270   -4.040050   -2.943020
  H     17.724320   -3.060000   -5.778820
  H     18.920820   -3.479250   -4.551650
  H     17.850450   -2.095840   -4.304120
  H     16.090540   -4.945500   -6.288960
  H     14.872090   -6.952470  -11.294290
  H     11.160670   -3.864180  -10.053990

----------------------------
CARTESIAN COORDINATES (A.U.)
----------------------------
  NO LB      ZA    FRAG     MASS         X           Y           Z
   0 C     6.0000    0    12.011    3.691486    6.723135    4.928633
   1 O     8.0000    0    15.999    3.293490    8.405275    3.435787
   2 C     6.0000    0    12.011    2.213228    6.075110    7.217658
   3 C     6.0000    0    12.011    0.139934    7.301373    8.221556
   4 C     6.0000    0    12.011   -0.891611    6.339408   10.428964
   5 F     9.0000    0    18.998   -2.899237    7.471013   11.468861
   6 C     6.0000    0    12.011    0.143600    4.206077   11.583360
   7 F     9.0000    0    18.998   -0.876852    3.336992   13.725478
   8 C     6.0000    0    12.011    2.214494    2.961239   10.566838
   9 C     6.0000    0    12.011    3.251217    3.911412    8.358731
  10 C     6.0000    0    12.011    5.356844    3.012299    6.808475
  11 C     6.0000    0    12.011    6.316013    0.607887    6.848254
  12 C     6.0000    0    12.011    7.983885   -0.355155    5.007661
  13 N     7.0000    0    14.007    9.276155   -1.270614    3.525322
  14 C     6.0000    0    12.011    5.629985   -1.236316    8.646064
  15 N     7.0000    0    14.007    5.167947   -2.791125   10.084958
  16 C     6.0000    0    12.011    5.837288    4.915971    4.910057
  17 C     6.0000    0    12.011    7.802320    5.289060    3.283872
  18 C     6.0000    0    12.011   10.287934    4.308708    3.327770
  19 S    16.0000    0    32.060   11.729965    3.848333    0.360787
  20 C     6.0000    0    12.011   14.439624    2.777879    1.794919
  21 C     6.0000    0    12.011   14.257266    2.922102    4.435641
  22 C     6.0000    0    12.011   11.908922    3.760026    5.324303
  23 C     6.0000    0    12.011   11.385959    4.270252    8.057433
  24 C     6.0000    0    12.011   11.844860    1.966468    9.740745
  25 S    16.0000    0    32.060   17.024184    1.960307    5.969966
  26 C     6.0000    0    12.011   18.360447    1.286885    3.069180
  27 C     6.0000    0    12.011   16.766160    1.801816    1.021416
  28 N     7.0000    0    14.007   17.933539    1.158534   -1.199901
  29 C     6.0000    0    12.011   17.155406    2.382208   -3.519142
  30 C     6.0000    0    12.011   17.562378    5.238567   -3.374597
  31 C     6.0000    0    12.011   20.279634    0.175896   -0.591579
  32 C     6.0000    0    12.011   20.620673    0.324409    2.073237
  33 C     6.0000    0    12.011   22.947757   -0.313014    3.218204
  34 N     7.0000    0    14.007   23.595215   -0.154428    5.628417
  35 S    16.0000    0    32.060   26.524933   -0.984434    5.906037
  36 N     7.0000    0    14.007   27.081344   -1.589449    2.959330
  37 C     6.0000    0    12.011   24.993083   -1.163089    1.652320
  38 C     6.0000    0    12.011   24.539133   -1.591395   -0.945940
  39 C     6.0000    0    12.011   22.149026   -1.048987   -2.065811
  40 N     7.0000    0    14.007   22.132378   -1.991110   -4.495583
  41 C     6.0000    0    12.011   20.019910   -2.535275   -6.145673
  42 C     6.0000    0    12.011   20.109388   -0.992711   -8.587464
  43 C     6.0000    0    12.011   24.447009   -3.061961   -4.943826
  44 C     6.0000    0    12.011   25.984282   -2.808473   -2.798117
  45 S    16.0000    0    32.060   28.928154   -4.188597   -3.107844
  46 C     6.0000    0    12.011   28.066288   -5.195878   -6.146126
  47 C     6.0000    0    12.011   25.616750   -4.442104   -6.864128
  48 S    16.0000    0    32.060   24.851278   -5.487916   -9.848723
  49 C     6.0000    0    12.011   27.807736   -7.011035  -10.103062
  50 C     6.0000    0    12.011   29.312014   -6.645713   -7.936491
  51 C     6.0000    0    12.011   31.944649   -7.598154   -7.583887
  52 C     6.0000    0    12.011   33.852837   -5.864217   -8.898191
  53 C     6.0000    0    12.011   28.567519   -8.493847  -12.144571
  54 C     6.0000    0    12.011   27.375518   -9.047876  -14.391323
  55 C     6.0000    0    12.011   28.347460  -10.734438  -16.313533
  56 C     6.0000    0    12.011   30.475708  -12.209634  -16.195671
  57 C     6.0000    0    12.011   31.269620  -13.845834  -18.145793
  58 N     7.0000    0    14.007   32.026587  -15.210765  -19.651489
  59 C     6.0000    0    12.011   32.163951  -12.346734  -14.136607
  60 N     7.0000    0    14.007   33.626656  -12.574087  -12.547328
  61 C     6.0000    0    12.011   26.585518  -10.658471  -18.446448
  62 C     6.0000    0    12.011   26.621611  -11.865779  -20.769715
  63 C     6.0000    0    12.011   24.646659  -11.400378  -22.429216
  64 F     9.0000    0    18.998   24.650136  -12.543511  -24.683886
  65 C     6.0000    0    12.011   22.669211   -9.772681  -21.808214
  66 F     9.0000    0    18.998   20.804581   -9.373703  -23.470606
  67 C     6.0000    0    12.011   22.616847   -8.560818  -19.487555
  68 C     6.0000    0    12.011   24.582502   -9.025615  -17.838183
  69 C     6.0000    0    12.011   24.981197   -7.990877  -15.273976
  70 O     8.0000    0    15.999   23.573105   -6.542156  -14.167371
  71 H     1.0000    0     1.008   -0.659307    8.949271    7.328074
  72 H     1.0000    0     1.008    2.953188    1.322903   11.525723
  73 H     1.0000    0     1.008    7.395387    6.588719    1.745143
  74 H     1.0000    0     1.008    9.454205    4.949760    8.287073
  75 H     1.0000    0     1.008   12.656649    5.784641    8.668060
  76 H     1.0000    0     1.008   10.814884    0.323389    9.063391
  77 H     1.0000    0     1.008   11.235083    2.374479   11.659818
  78 H     1.0000    0     1.008   13.840978    1.488651    9.781695
  79 H     1.0000    0     1.008   15.151635    1.972213   -3.825977
  80 H     1.0000    0     1.008   18.251391    1.647520   -5.084932
  81 H     1.0000    0     1.008   19.543075    5.658483   -3.014775
  82 H     1.0000    0     1.008   16.430545    6.072333   -1.878312
  83 H     1.0000    0     1.008   17.017910    6.099318   -5.157063
  84 H     1.0000    0     1.008   18.268304   -2.232428   -5.103130
  85 H     1.0000    0     1.008   20.114056   -4.543355   -6.640309
  86 H     1.0000    0     1.008   18.327698   -1.181324   -9.588811
  87 H     1.0000    0     1.008   21.607507   -1.682253   -9.809228
  88 H     1.0000    0     1.008   20.458496    0.999646   -8.217210
  89 H     1.0000    0     1.008   32.142938   -9.515754   -8.316080
  90 H     1.0000    0     1.008   32.350732   -7.634588   -5.561502
  91 H     1.0000    0     1.008   33.494111   -5.782562  -10.920387
  92 H     1.0000    0     1.008   35.755168   -6.574830   -8.601372
  93 H     1.0000    0     1.008   33.732462   -3.960564   -8.133608
  94 H     1.0000    0     1.008   30.406714   -9.345641  -11.884412
  95 H     1.0000    0     1.008   28.104177  -13.138264  -21.343115
  96 H     1.0000    0     1.008   21.090610   -7.302242  -18.999288

--------------------------------
INTERNAL COORDINATES (ANGSTROEM)
--------------------------------
 C      0   0   0     0.000000000000     0.00000000     0.00000000
 O      1   0   0     1.208632282789     0.00000000     0.00000000
 C      1   2   0     1.482151316162   127.77791386     0.00000000
 C      3   1   2     1.380947611352   128.68154938   356.65448752
 C      4   3   1     1.386213162360   117.67544342   181.13800975
 F      5   4   3     1.337937587707   119.66394616   179.89952445
 C      5   4   3     1.395603080607   120.75221608     0.04299653
 F      7   5   4     1.337185957001   119.39021280   179.32468323
 C      7   5   4     1.387165228406   121.63409529   359.46446551
 C      9   7   5     1.385328964037   117.87711192     0.41953169
 C     10   9   7     1.463188202590   131.03001791   181.78194102
 C     11  10   9     1.370025684796   125.13525058    19.61479827
 C     12  11  10     1.409741573623   123.85282490   166.75578074
 N     13  12  11     1.147882396241   176.09603620   214.87617039
 C     12  11  10     1.410417299454   123.89058876   350.78979478
 N     15  12  11     1.147391113701   177.01485110   201.00225207
 C     11  10   9     1.445224412332   107.27956383   187.60782833
 C     17  11  10     1.364109863244   132.33733656   166.76429297
 C     18  17  11     1.414130591636   130.20878549   342.46767567
 S     19  18  17     1.762596226054   116.02480285   149.07451274
 C     20  19  18     1.718389319043    90.76906523   179.20460090
 C     21  20  19     1.402815633111   111.38314941   356.69246093
 C     19  18  17     1.391524817242   131.48232809   324.69076274
 C     23  19  18     1.497096404277   125.58546746   355.88625005
 C     24  23  19     1.529271607858   112.92933982   129.83245749
 S     22  21  20     1.749892271713   112.88096563   182.25296494
 C     26  22  21     1.727231381402    89.43876356   358.32499256
 C     21  20  19     1.396443971307   136.73100619   176.57252765
 N     28  21  20     1.370847822152   137.77239069   356.91084725
 C     29  28  21     1.447447176445   119.19394301    25.64160369
 C     30  29  28     1.528699892098   111.09017738    60.54934689
 C     29  28  21     1.383957332507   107.34342786   182.44323889
 C     27  26  22     1.402756930797   139.27799886   181.47764890
 C     33  27  26     1.413267561999   131.95415366   353.15989619
 N     34  33  27     1.323311269392   128.58447865     0.13016456
 S     35  34  33     1.618039205984   108.56458776   182.93924475
 N     36  35  34     1.618859903790    98.07675568   359.80896360
 C     37  36  35     1.323037368180   108.53610172     0.00000000
 C     38  37  36     1.414049459708   128.52578485   184.57806252
 C     32  29  28     1.416804823150   132.07976639   171.46414611
 N     40  32  29     1.379079376613   132.40001114   349.35618031
 C     41  40  32     1.447416690038   129.74086636   344.48739776
 C     42  41  40     1.529116465872   112.31273920   119.65311990
 C     41  40  32     1.370268678544   107.76924624   181.88418461
 C     39  38  37     1.400100884579   131.42372899     8.07487419
 S     45  39  38     1.728316934998   138.85898966   354.99294105
 C     46  45  39     1.754171779331    88.90967032   173.62092861
 C     44  41  40     1.396130118578   137.61610604   174.97593008
 S     48  44  41     1.721858468545   137.00879017     3.33941039
 C     49  48  44     1.765043746823    90.46938260   182.15980796
 C     47  46  45     1.385925325874   132.15220082   182.94895817
 C     51  47  46     1.493202298786   123.03831010   356.64311827
 C     52  51  47     1.531428110131   110.86631546   262.79756481
 C     50  49  48     1.394435568572   124.86239843   176.50955207
 C     54  50  49     1.377458698364   131.02844964     3.05863811
 C     55  54  50     1.447670281901   125.09920672   183.15717762
 C     56  55  54     1.371736241010   127.63206888     5.29553708
 C     57  56  55     1.411070927204   124.08252494   178.76068875
 N     58  57  56     1.147613845072   176.26234492   179.23931282
 C     57  56  55     1.410900874973   125.74961540   359.49213032
 N     60  57  56     1.149301856389   175.52349001   178.42932226
 C     56  55  54     1.464544168163   107.36159217   183.63743962
 C     62  56  55     1.385642811406   131.47981631   178.88575132
 C     63  62  56     1.387108646538   117.99977084   180.14705893
 F     64  63  62     1.337709582234   118.90372442   179.84929198
 C     64  63  62     1.394594032828   121.72296802     0.00000000
 F     66  64  63     1.338680068314   119.71102073   179.83545906
 C     66  64  63     1.385677794366   120.64211547   359.92295820
 C     68  66  64     1.379952191237   117.57938206     0.06614313
 C     55  54  50     1.461630816041   126.25155089     5.17495701
 O     70  55  54     1.218956899115   128.10134275   356.58714125
 H      4   3   1     1.078361655754   121.52858344     1.20446192
 H      9   7   5     1.077921540419   119.07090651   179.87252132
 H     18  17  11     1.087377913009   114.39174918   164.40100547
 H     24  23  19     1.090430880157   109.90276327     6.21387739
 H     24  23  19     1.094884266806   107.67352052   249.34918064
 H     25  24  23     1.086988180985   111.46709256   306.74158625
 H     25  24  23     1.087216947716   109.79353203   186.42755227
 H     25  24  23     1.086357400398   110.58304592    66.81763067
 H     30  29  28     1.094430345431   108.22383434   299.84885715
 H     30  29  28     1.083540449499   109.60898686   180.46946094
 H     31  30  29     1.088223649715   110.26386642    58.62950842
 H     31  30  29     1.086435744856   111.12144067   298.03820758
 H     31  30  29     1.086363646345   109.49719045   178.27039979
 H     42  41  40     1.090507804557   108.78527076   355.03054027
 H     42  41  40     1.095526180335   107.57715738   238.77051565
 H     43  42  41     1.086127919308   109.65317423   190.96151317
 H     43  42  41     1.086107741387   110.25966322    71.92680594
 H     43  42  41     1.088157621211   111.73603602   311.82852978
 H     52  51  47     1.091262167859   111.05188849   140.92707876
 H     52  51  47     1.091731409505   108.18574880    22.29844891
 H     53  52  51     1.087665639340   110.82658732   299.18093859
 H     53  52  51     1.086030181625   109.75762654   179.31680224
 H     53  52  51     1.087452604438   110.33043433    59.50889433
 H     54  50  49     1.081371175406   113.29285292   183.34865296
 H     63  62  56     1.077497068859   123.23229658     0.05744192
 H     68  66  64     1.078252320656   120.87762302   180.05689202

---------------------------
INTERNAL COORDINATES (A.U.)
---------------------------
 C      0   0   0     0.000000000000     0.00000000     0.00000000
 O      1   0   0     2.283984011087     0.00000000     0.00000000
 C      1   2   0     2.800860076577   127.77791386     0.00000000
 C      3   1   2     2.609612790749   128.68154938   356.65448752
 C      4   3   1     2.619563240097   117.67544342   181.13800975
 F      5   4   3     2.528335625046   119.66394616   179.89952445
 C      5   4   3     2.637307614004   120.75221608     0.04299653
 F      7   5   4     2.526915248857   119.39021280   179.32468323
 C      7   5   4     2.621362384187   121.63409529   359.46446551
 C      9   7   5     2.617892347419   117.87711192     0.41953169
 C     10   9   7     2.765024985281   131.03001791   181.78194102
 C     11  10   9     2.588973340702   125.13525058    19.61479827
 C     12  11  10     2.664025493750   123.85282490   166.75578074
 N     13  12  11     2.169183362845   176.09603620   214.87617039
 C     12  11  10     2.665302430513   123.89058876   350.78979478
 N     15  12  11     2.168254973390   177.01485110   201.00225207
 C     11  10   9     2.731078341365   107.27956383   187.60782833
 C     17  11  10     2.577794058112   132.33733656   166.76429297
 C     18  17  11     2.672319535792   130.20878549   342.46767567
 S     19  18  17     3.330824151925   116.02480285   149.07451274
 C     20  19  18     3.247285204446    90.76906523   179.20460090
 C     21  20  19     2.650937362963   111.38314941   356.69246093
 C     19  18  17     2.629600813142   131.48232809   324.69076274
 C     23  19  18     2.829102200162   125.58546746   355.88625005
 C     24  23  19     2.889904523233   112.92933982   129.83245749
 S     22  21  20     3.306817157402   112.88096563   182.25296494
 C     26  22  21     3.263994280764    89.43876356   358.32499256
 C     21  20  19     2.638896667136   136.73100619   176.57252765
 N     28  21  20     2.590526955150   137.77239069   356.91084725
 C     29  28  21     2.735278756800   119.19394301    25.64160369
 C     30  29  28     2.888824137020   111.09017738    60.54934689
 C     29  28  21     2.615300339470   107.34342786   182.44323889
 C     27  26  22     2.650826431667   139.27799886   181.47764890
 C     33  27  26     2.670688646134   131.95415366   353.15989619
 N     34  33  27     2.500695889083   128.58447865     0.13016456
 S     35  34  33     3.057650973256   108.56458776   182.93924475
 N     36  35  34     3.059201867350    98.07675568   359.80896360
 C     37  36  35     2.500178290804   108.53610172     0.00000000
 C     38  37  36     2.672166218667   128.52578485   184.57806252
 C     32  29  28     2.677373100971   132.07976639   171.46414611
 N     40  32  29     2.606082338738   132.40001114   349.35618031
 C     41  40  32     2.735221145838   129.74086636   344.48739776
 C     42  41  40     2.889611347367   112.31273920   119.65311990
 C     41  40  32     2.589432532339   107.76924624   181.88418461
 C     39  38  37     2.645807231716   131.42372899     8.07487419
 S     45  39  38     3.266045679764   138.85898966   354.99294105
 C     46  45  39     3.314904254788    88.90967032   173.62092861
 C     44  41  40     2.638303571431   137.61610604   174.97593008
 S     48  44  41     3.253840946923   137.00879017     3.33941039
 C     49  48  44     3.335449295886    90.46938260   182.15980796
 C     47  46  45     2.619019307968   132.15220082   182.94895817
 C     51  47  46     2.821743407247   123.03831010   356.64311827
 C     52  51  47     2.893979721937   110.86631546   262.79756481
 C     50  49  48     2.635101336001   124.86239843   176.50955207
 C     54  50  49     2.603019700697   131.02844964     3.05863811
 C     55  54  50     2.735700365010   125.09920672   183.15717762
 C     56  55  54     2.592205823483   127.63206888     5.29553708
 C     57  56  55     2.666537607954   124.08252494   178.76068875
 N     58  57  56     2.168675874682   176.26234492   179.23931282
 C     57  56  55     2.666216255809   125.74961540   359.49213032
 N     60  57  56     2.171865753783   175.52349001   178.42932226
 C     56  55  54     2.767587388859   107.36159217   183.63743962
 C     62  56  55     2.618485432993   131.47981631   178.88575132
 C     63  62  56     2.621255459951   117.99977084   180.14705893
 F     64  63  62     2.527904757144   118.90372442   179.84929198
 C     64  63  62     2.635400790046   121.72296802     0.00000000
 F     66  64  63     2.529738710052   119.71102073   179.83545906
 C     66  64  63     2.618551541208   120.64211547   359.92295820
 C     68  66  64     2.607731719343   117.57938206     0.06614313
 C     55  54  50     2.762081951217   126.25155089     5.17495701
 O     70  55  54     2.303494708381   128.10134275   356.58714125
 H      4   3   1     2.037808202696   121.52858344     1.20446192
 H      9   7   5     2.036976505247   119.07090651   179.87252132
 H     18  17  11     2.054846459662   114.39174918   164.40100547
 H     24  23  19     2.060615731467   109.90276327     6.21387739
 H     24  23  19     2.069031412603   107.67352052   249.34918064
 H     25  24  23     2.054109972870   111.46709256   306.74158625
 H     25  24  23     2.054542279340   109.79353203   186.42755227
 H     25  24  23     2.052917970311   110.58304592    66.81763067
 H     30  29  28     2.068173625517   108.22383434   299.84885715
 H     30  29  28     2.047594704579   109.60898686   180.46946094
 H     31  30  29     2.056444670418   110.26386642    58.62950842
 H     31  30  29     2.053066019880   111.12144067   298.03820758
 H     31  30  29     2.052929773440   109.49719045   178.27039979
 H     42  41  40     2.060761097517   108.78527076   355.03054027
 H     42  41  40     2.070244453374   107.57715738   238.77051565
 H     43  42  41     2.052484313898   109.65317423   190.96151317
 H     43  42  41     2.052446183153   110.25966322    71.92680594
 H     43  42  41     2.056319894628   111.73603602   311.82852978
 H     52  51  47     2.062186637562   111.05188849   140.92707876
 H     52  51  47     2.063073375764   108.18574880    22.29844891
 H     53  52  51     2.055390183628   110.82658732   299.18093859
 H     53  52  51     2.052299616444   109.75762654   179.31680224
 H     53  52  51     2.054987606008   110.33043433    59.50889433
 H     54  50  49     2.043495370635   113.29285292   183.34865296
 H     63  62  56     2.036174370247   123.23229658     0.05744192
 H     68  66  64     2.037601589305   120.87762302   180.05689202

---------------------
BASIS SET INFORMATION
---------------------
There are 6 groups of distinct atoms

 Group   1 Type C   : 11s6p2d1f contracted to 5s3p2d1f pattern {62111/411/11/1}
 Group   2 Type O   : 11s6p2d1f contracted to 5s3p2d1f pattern {62111/411/11/1}
 Group   3 Type F   : 11s6p2d1f contracted to 5s3p2d1f pattern {62111/411/11/1}
 Group   4 Type N   : 11s6p2d1f contracted to 5s3p2d1f pattern {62111/411/11/1}
 Group   5 Type S   : 14s9p3d1f contracted to 5s5p2d1f pattern {73211/51111/21/1}
 Group   6 Type H   : 5s1p contracted to 3s1p pattern {311/1}

Atom   0C    basis set group =>   1
Atom   1O    basis set group =>   2
Atom   2C    basis set group =>   1
Atom   3C    basis set group =>   1
Atom   4C    basis set group =>   1
Atom   5F    basis set group =>   3
Atom   6C    basis set group =>   1
Atom   7F    basis set group =>   3
Atom   8C    basis set group =>   1
Atom   9C    basis set group =>   1
Atom  10C    basis set group =>   1
Atom  11C    basis set group =>   1
Atom  12C    basis set group =>   1
Atom  13N    basis set group =>   4
Atom  14C    basis set group =>   1
Atom  15N    basis set group =>   4
Atom  16C    basis set group =>   1
Atom  17C    basis set group =>   1
Atom  18C    basis set group =>   1
Atom  19S    basis set group =>   5
Atom  20C    basis set group =>   1
Atom  21C    basis set group =>   1
Atom  22C    basis set group =>   1
Atom  23C    basis set group =>   1
Atom  24C    basis set group =>   1
Atom  25S    basis set group =>   5
Atom  26C    basis set group =>   1
Atom  27C    basis set group =>   1
Atom  28N    basis set group =>   4
Atom  29C    basis set group =>   1
Atom  30C    basis set group =>   1
Atom  31C    basis set group =>   1
Atom  32C    basis set group =>   1
Atom  33C    basis set group =>   1
Atom  34N    basis set group =>   4
Atom  35S    basis set group =>   5
Atom  36N    basis set group =>   4
Atom  37C    basis set group =>   1
Atom  38C    basis set group =>   1
Atom  39C    basis set group =>   1
Atom  40N    basis set group =>   4
Atom  41C    basis set group =>   1
Atom  42C    basis set group =>   1
Atom  43C    basis set group =>   1
Atom  44C    basis set group =>   1
Atom  45S    basis set group =>   5
Atom  46C    basis set group =>   1
Atom  47C    basis set group =>   1
Atom  48S    basis set group =>   5
Atom  49C    basis set group =>   1
Atom  50C    basis set group =>   1
Atom  51C    basis set group =>   1
Atom  52C    basis set group =>   1
Atom  53C    basis set group =>   1
Atom  54C    basis set group =>   1
Atom  55C    basis set group =>   1
Atom  56C    basis set group =>   1
Atom  57C    basis set group =>   1
Atom  58N    basis set group =>   4
Atom  59C    basis set group =>   1
Atom  60N    basis set group =>   4
Atom  61C    basis set group =>   1
Atom  62C    basis set group =>   1
Atom  63C    basis set group =>   1
Atom  64F    basis set group =>   3
Atom  65C    basis set group =>   1
Atom  66F    basis set group =>   3
Atom  67C    basis set group =>   1
Atom  68C    basis set group =>   1
Atom  69C    basis set group =>   1
Atom  70O    basis set group =>   2
Atom  71H    basis set group =>   6
Atom  72H    basis set group =>   6
Atom  73H    basis set group =>   6
Atom  74H    basis set group =>   6
Atom  75H    basis set group =>   6
Atom  76H    basis set group =>   6
Atom  77H    basis set group =>   6
Atom  78H    basis set group =>   6
Atom  79H    basis set group =>   6
Atom  80H    basis set group =>   6
Atom  81H    basis set group =>   6
Atom  82H    basis set group =>   6
Atom  83H    basis set group =>   6
Atom  84H    basis set group =>   6
Atom  85H    basis set group =>   6
Atom  86H    basis set group =>   6
Atom  87H    basis set group =>   6
Atom  88H    basis set group =>   6
Atom  89H    basis set group =>   6
Atom  90H    basis set group =>   6
Atom  91H    basis set group =>   6
Atom  92H    basis set group =>   6
Atom  93H    basis set group =>   6
Atom  94H    basis set group =>   6
Atom  95H    basis set group =>   6
Atom  96H    basis set group =>   6
---------------------------------
AUXILIARY/J BASIS SET INFORMATION
---------------------------------
There are 6 groups of distinct atoms

 Group   1 Type C   : 12s5p4d2f1g contracted to 6s4p3d1f1g pattern {711111/2111/211/2/1}
 Group   2 Type O   : 12s5p4d2f1g contracted to 6s4p3d1f1g pattern {711111/2111/211/2/1}
 Group   3 Type F   : 12s5p4d2f1g contracted to 6s4p3d1f1g pattern {711111/2111/211/2/1}
 Group   4 Type N   : 12s5p4d2f1g contracted to 6s4p3d1f1g pattern {711111/2111/211/2/1}
 Group   5 Type S   : 14s5p5d2f1g contracted to 8s4p3d1f1g pattern {71111111/2111/311/2/1}
 Group   6 Type H   : 5s2p1d contracted to 3s1p1d pattern {311/2/1}

Atom   0C    basis set group =>   1
Atom   1O    basis set group =>   2
Atom   2C    basis set group =>   1
Atom   3C    basis set group =>   1
Atom   4C    basis set group =>   1
Atom   5F    basis set group =>   3
Atom   6C    basis set group =>   1
Atom   7F    basis set group =>   3
Atom   8C    basis set group =>   1
Atom   9C    basis set group =>   1
Atom  10C    basis set group =>   1
Atom  11C    basis set group =>   1
Atom  12C    basis set group =>   1
Atom  13N    basis set group =>   4
Atom  14C    basis set group =>   1
Atom  15N    basis set group =>   4
Atom  16C    basis set group =>   1
Atom  17C    basis set group =>   1
Atom  18C    basis set group =>   1
Atom  19S    basis set group =>   5
Atom  20C    basis set group =>   1
Atom  21C    basis set group =>   1
Atom  22C    basis set group =>   1
Atom  23C    basis set group =>   1
Atom  24C    basis set group =>   1
Atom  25S    basis set group =>   5
Atom  26C    basis set group =>   1
Atom  27C    basis set group =>   1
Atom  28N    basis set group =>   4
Atom  29C    basis set group =>   1
Atom  30C    basis set group =>   1
Atom  31C    basis set group =>   1
Atom  32C    basis set group =>   1
Atom  33C    basis set group =>   1
Atom  34N    basis set group =>   4
Atom  35S    basis set group =>   5
Atom  36N    basis set group =>   4
Atom  37C    basis set group =>   1
Atom  38C    basis set group =>   1
Atom  39C    basis set group =>   1
Atom  40N    basis set group =>   4
Atom  41C    basis set group =>   1
Atom  42C    basis set group =>   1
Atom  43C    basis set group =>   1
Atom  44C    basis set group =>   1
Atom  45S    basis set group =>   5
Atom  46C    basis set group =>   1
Atom  47C    basis set group =>   1
Atom  48S    basis set group =>   5
Atom  49C    basis set group =>   1
Atom  50C    basis set group =>   1
Atom  51C    basis set group =>   1
Atom  52C    basis set group =>   1
Atom  53C    basis set group =>   1
Atom  54C    basis set group =>   1
Atom  55C    basis set group =>   1
Atom  56C    basis set group =>   1
Atom  57C    basis set group =>   1
Atom  58N    basis set group =>   4
Atom  59C    basis set group =>   1
Atom  60N    basis set group =>   4
Atom  61C    basis set group =>   1
Atom  62C    basis set group =>   1
Atom  63C    basis set group =>   1
Atom  64F    basis set group =>   3
Atom  65C    basis set group =>   1
Atom  66F    basis set group =>   3
Atom  67C    basis set group =>   1
Atom  68C    basis set group =>   1
Atom  69C    basis set group =>   1
Atom  70O    basis set group =>   2
Atom  71H    basis set group =>   6
Atom  72H    basis set group =>   6
Atom  73H    basis set group =>   6
Atom  74H    basis set group =>   6
Atom  75H    basis set group =>   6
Atom  76H    basis set group =>   6
Atom  77H    basis set group =>   6
Atom  78H    basis set group =>   6
Atom  79H    basis set group =>   6
Atom  80H    basis set group =>   6
Atom  81H    basis set group =>   6
Atom  82H    basis set group =>   6
Atom  83H    basis set group =>   6
Atom  84H    basis set group =>   6
Atom  85H    basis set group =>   6
Atom  86H    basis set group =>   6
Atom  87H    basis set group =>   6
Atom  88H    basis set group =>   6
Atom  89H    basis set group =>   6
Atom  90H    basis set group =>   6
Atom  91H    basis set group =>   6
Atom  92H    basis set group =>   6
Atom  93H    basis set group =>   6
Atom  94H    basis set group =>   6
Atom  95H    basis set group =>   6
Atom  96H    basis set group =>   6
------------------------------------------------------------------------------
                           ORCA GTO INTEGRAL CALCULATION
                           -- RI-GTO INTEGRALS CHOSEN --
------------------------------------------------------------------------------

                         BASIS SET STATISTICS AND STARTUP INFO

Gaussian basis set:
 # of primitive gaussian shells          ... 1611
 # of primitive gaussian functions       ... 3559
 # of contracted shells                  ...  895
 # of contracted basis functions         ... 2387
 Highest angular momentum                ...    3
 Maximum contraction depth               ...    7
Auxiliary gaussian basis set:
 # of primitive gaussian shells          ... 1927
 # of primitive gaussian functions       ... 5421
 # of contracted shells                  ... 1205
 # of contracted aux-basis functions     ... 3775
 Highest angular momentum                ...    4
 Maximum contraction depth               ...    7
Ratio of auxiliary to basis functions    ...  1.58
Integral package used                  ... LIBINT
 One Electron integrals                  ... done
 Ordering auxiliary basis shells         ... done
 Integral threshhold             Thresh  ...  2.500e-11
 Primitive cut-off               TCut    ...  2.500e-12
 Pre-screening matrix                    ... done
 Shell pair data                         ... 
 Ordering of the shell pairs             ... done (   0.031 sec) 135569 of 400960 pairs
 Determination of significant pairs      ... done (   0.001 sec)
 Creation of shell pair data             ... done (   0.017 sec)
 Storage of shell pair data              ... done (   0.021 sec)
 Shell pair data done in (   0.070 sec)
 Computing two index integrals           ... done
 Cholesky decomposition of the V-matrix  ... done


Timings:
 Total evaluation time                   ...   6.255 sec (  0.104 min)
 One electron matrix time                ...   1.995 sec (  0.033 min) = 31.9%
 Schwartz matrix evaluation time         ...   3.359 sec (  0.056 min) = 53.7%
 Two index repulsion integral time       ...   0.344 sec (  0.006 min) =  5.5%
 Cholesky decomposition of V             ...   0.469 sec (  0.008 min) =  7.5%
 Three index repulsion integral time     ...   0.000 sec (  0.000 min) =  0.0%

-------------------------------------------------------------------------------
                                 ORCA SCF
-------------------------------------------------------------------------------

------------
SCF SETTINGS
------------
Hamiltonian:
 Density Functional     Method          .... DFT(GTOs)
 Exchange Functional    Exchange        .... B88
   X-Alpha parameter    XAlpha          ....  0.666667
   Becke's b parameter  XBeta           ....  0.004200
 Correlation Functional Correlation     .... LYP
 LDA part of GGA corr.  LDAOpt          .... VWN-5
 Gradients option       PostSCFGGA      .... off
 Hybrid DFT is turned on
   Fraction HF Exchange ScalHFX         ....  0.200000
   Scaling of DF-GGA-X  ScalDFX         ....  0.720000
   Scaling of DF-GGA-C  ScalDFC         ....  0.810000
   Scaling of DF-LDA-C  ScalLDAC        ....  1.000000
   Perturbative correction              ....  0.000000
   Density functional embedding theory  .... OFF
   NL short-range parameter             ....  4.800000
 RI-approximation to the Coulomb term is turned on
   Number of auxiliary basis functions  .... 3775
   RIJ-COSX (HFX calculated with COS-X)).... on


General Settings:
 Integral files         IntName         .... Y6_2
 Hartree-Fock type      HFTyp           .... RHF
 Total Charge           Charge          ....    0
 Multiplicity           Mult            ....    1
 Number of Electrons    NEL             ....  526
 Basis Dimension        Dim             .... 2387
 Nuclear Repulsion      ENuc            ....  11035.2118904649 Eh

Convergence Acceleration:
 DIIS                   CNVDIIS         .... on
   Start iteration      DIISMaxIt       ....    12
   Startup error        DIISStart       ....  0.200000
   # of expansion vecs  DIISMaxEq       ....     5
   Bias factor          DIISBfac        ....   1.050
   Max. coefficient     DIISMaxC        ....  10.000
 Newton-Raphson         CNVNR           .... off
 SOSCF                  CNVSOSCF        .... on
   Start iteration      SOSCFMaxIt      ....   150
   Startup grad/error   SOSCFStart      ....  0.003300
 Level Shifting         CNVShift        .... on
   Level shift para.    LevelShift      ....    0.2500
   Turn off err/grad.   ShiftErr        ....    0.0010
 Zerner damping         CNVZerner       .... off
 Static damping         CNVDamp         .... on
   Fraction old density DampFac         ....    0.7000
   Max. Damping (<1)    DampMax         ....    0.9800
   Min. Damping (>=0)   DampMin         ....    0.0000
   Turn off err/grad.   DampErr         ....    0.1000
 Fernandez-Rico         CNVRico         .... off

SCF Procedure:
 Maximum # iterations   MaxIter         ....   125
 SCF integral mode      SCFMode         .... Direct
   Integral package                     .... LIBINT
 Reset frequency        DirectResetFreq ....    20
 Integral Threshold     Thresh          ....  2.500e-11 Eh
 Primitive CutOff       TCut            ....  2.500e-12 Eh

Convergence Tolerance:
 Convergence Check Mode ConvCheckMode   .... Total+1el-Energy
 Convergence forced     ConvForced      .... 1
 Energy Change          TolE            ....  1.000e-08 Eh
 1-El. energy change                    ....  1.000e-05 Eh
 Orbital Gradient       TolG            ....  1.000e-05
 Orbital Rotation angle TolX            ....  1.000e-05
 DIIS Error             TolErr          ....  5.000e-07


Diagonalization of the overlap matrix:
Smallest eigenvalue                        ... 2.838e-06
Time for diagonalization                   ...    2.750 sec
Threshold for overlap eigenvalues          ... 1.000e-08
Number of eigenvalues below threshold      ... 0
Time for construction of square roots      ...    0.912 sec
Total time needed                          ...    3.678 sec

-------------------
DFT GRID GENERATION
-------------------

General Integration Accuracy     IntAcc      ...  4.670
Radial Grid Type                 RadialGrid  ... Gauss-Chebyshev
Angular Grid (max. acc.)         AngularGrid ... Lebedev-302
Angular grid pruning method      GridPruning ... 3 (G Style)
Weight generation scheme         WeightScheme... Becke
Basis function cutoff            BFCut       ...    1.0000e-11
Integration weight cutoff        WCut        ...    1.0000e-14
Grids for H and He will be reduced by one unit

# of grid points (after initial pruning)     ... 532706 (   1.0 sec)
# of grid points (after weights+screening)   ... 454330 (  21.7 sec)
nearest neighbour list constructed           ...    0.0 sec
Grid point re-assignment to atoms done       ...    0.1 sec
Grid point division into batches done        ...    1.7 sec
Reduced shell lists constructed in   16.5 sec

Total number of grid points                  ...   454330
Total number of batches                      ...     7145
Average number of points per batch           ...       63
Average number of grid points per atom       ...     4684
Average number of shells per batch           ...   164.88 (18.42%)
Average number of basis functions per batch  ...   419.25 (17.56%)
Average number of large shells per batch     ...   100.26 (60.81%)
Average number of large basis fcns per batch ...   258.33 (61.62%)
Maximum spatial batch extension              ...  20.69, 23.02, 20.69 au
Average spatial batch extension              ...   2.14,  2.27,  2.12 au

Time for grid setup =   39.215 sec

------------------------------
INITIAL GUESS: MODEL POTENTIAL
------------------------------
Loading Hartree-Fock densities                     ... done
Calculating cut-offs                               ... done
Setting up the integral package                    ... done
Initializing the effective Hamiltonian             ... done
Starting the Coulomb interaction                   ... done (  26.1 sec)
Reading the grid                                   ... done
Mapping shells                                     ... done
Starting the XC term evaluation                    ... done (  23.8 sec)
  promolecular density results
     # of electrons  =    525.988457187
     EX              =   -509.815287127
     EC              =    -18.896114871
     EX+EC           =   -528.711401998
Transforming the Hamiltonian                       ... done (   0.9 sec)
Diagonalizing the Hamiltonian                      ... done (   2.8 sec)
Back transforming the eigenvectors                 ... done (   0.4 sec)
Now organizing SCF variables                       ... done
                      ------------------
                      INITIAL GUESS DONE (  93.9 sec)
                      ------------------
--------------------
COSX GRID GENERATION
--------------------

General Integration Accuracy     IntAcc      ...  3.340
Radial Grid Type                 RadialGrid  ... Gauss-Chebyshev
Angular Grid (max. acc.)         AngularGrid ... Lebedev-50
Angular grid pruning method      GridPruning ... 3 (G Style)
Weight generation scheme         WeightScheme... Becke
Basis function cutoff            BFCut       ...    1.0000e-11
Integration weight cutoff        WCut        ...    1.0000e-14
Grids for H and He will be reduced by one unit

# of grid points (after initial pruning)     ...  50018 (   0.1 sec)
# of grid points (after weights+screening)   ...  44637 (   2.0 sec)
nearest neighbour list constructed           ...    0.0 sec
Grid point re-assignment to atoms done       ...    0.0 sec
Grid point division into batches done        ...    0.0 sec
Reduced shell lists constructed in    2.0 sec

Total number of grid points                  ...    44637
Total number of batches                      ...      748
Average number of points per batch           ...       59
Average number of grid points per atom       ...      460
Average number of shells per batch           ...   200.11 (22.36%)
Average number of basis functions per batch  ...   516.00 (21.62%)
Average number of large shells per batch     ...   123.17 (61.55%)
Average number of large basis fcns per batch ...   322.49 (62.50%)
Maximum spatial batch extension              ...  18.85, 21.30, 18.14 au
Average spatial batch extension              ...   4.35,  4.86,  4.24 au

Overlap Fitting                  UseSFitting ... on
Constructing numerical overlap ... done (      2.0 sec)
Inverting numerical overlap    ... done (      0.3 sec)
Obtaining analytic overlap     ... done (      0.0 sec)
Final contraction and storage  ... done (      0.5 sec)


General Integration Accuracy     IntAcc      ...  3.670
Radial Grid Type                 RadialGrid  ... Gauss-Chebyshev
Angular Grid (max. acc.)         AngularGrid ... Lebedev-50
Angular grid pruning method      GridPruning ... 3 (G Style)
Weight generation scheme         WeightScheme... Becke
Basis function cutoff            BFCut       ...    1.0000e-11
Integration weight cutoff        WCut        ...    1.0000e-14
Grids for H and He will be reduced by one unit

# of grid points (after initial pruning)     ...  62330 (   0.1 sec)
# of grid points (after weights+screening)   ...  55398 (   2.5 sec)
nearest neighbour list constructed           ...    0.0 sec
Grid point re-assignment to atoms done       ...    0.0 sec
Grid point division into batches done        ...    0.0 sec
Reduced shell lists constructed in    2.4 sec

Total number of grid points                  ...    55398
Total number of batches                      ...      915
Average number of points per batch           ...       60
Average number of grid points per atom       ...      571
Average number of shells per batch           ...   195.88 (21.89%)
Average number of basis functions per batch  ...   504.15 (21.12%)
Average number of large shells per batch     ...   119.99 (61.26%)
Average number of large basis fcns per batch ...   313.42 (62.17%)
Maximum spatial batch extension              ...  20.11, 24.49, 19.36 au
Average spatial batch extension              ...   4.12,  4.58,  4.00 au

Overlap Fitting                  UseSFitting ... on
Constructing numerical overlap ... done (      2.4 sec)
Inverting numerical overlap    ... done (      0.3 sec)
Obtaining analytic overlap     ... done (      0.0 sec)
Final contraction and storage  ... done (      0.5 sec)


General Integration Accuracy     IntAcc      ...  4.010
Radial Grid Type                 RadialGrid  ... Gauss-Chebyshev
Angular Grid (max. acc.)         AngularGrid ... Lebedev-110
Angular grid pruning method      GridPruning ... 3 (G Style)
Weight generation scheme         WeightScheme... Becke
Basis function cutoff            BFCut       ...    1.0000e-11
Integration weight cutoff        WCut        ...    1.0000e-14
Grids for H and He will be reduced by one unit

# of grid points (after initial pruning)     ... 122236 (   0.2 sec)
# of grid points (after weights+screening)   ... 107495 (   5.0 sec)
nearest neighbour list constructed           ...    0.0 sec
Grid point re-assignment to atoms done       ...    0.0 sec
Grid point division into batches done        ...    0.1 sec
Reduced shell lists constructed in    4.1 sec

Total number of grid points                  ...   107495
Total number of batches                      ...     1732
Average number of points per batch           ...       62
Average number of grid points per atom       ...     1108
Average number of shells per batch           ...   185.41 (20.72%)
Average number of basis functions per batch  ...   476.35 (19.96%)
Average number of large shells per batch     ...   114.08 (61.53%)
Average number of large basis fcns per batch ...   297.19 (62.39%)
Maximum spatial batch extension              ...  19.76, 23.27, 19.44 au
Average spatial batch extension              ...   3.40,  3.66,  3.33 au

Overlap Fitting                  UseSFitting ... on
Constructing numerical overlap ... done (      4.1 sec)
Inverting numerical overlap    ... done (      0.3 sec)
Obtaining analytic overlap     ... done (      0.0 sec)
Final contraction and storage  ... done (      0.5 sec)

Time for X-Grid setup             =   29.473 sec
--------------
SCF ITERATIONS
--------------
ITER       Energy         Delta-E        Max-DP      RMS-DP      [F,P]     Damp
               ***  Starting incremental Fock matrix formation  ***
  0  -4973.3697130752   0.000000000000 0.24462431  0.00104686  0.2832438 0.7000
  1  -4974.2175007666  -0.847787691418 0.17944339  0.00092492  0.0998803 0.7000
                               ***Turning on DIIS***
  2  -4974.5107473967  -0.293246630099 0.31230877  0.00144355  0.0436971 0.0000
  3  -4975.0125771371  -0.501829740408 0.15442262  0.00080744  0.0661744 0.0000
  4  -4975.1159113200  -0.103334182881 0.04643638  0.00028409  0.0338534 0.0000
  5  -4975.1280441826  -0.012132862554 0.03008797  0.00012674  0.0102100 0.0000
                      *** Initiating the SOSCF procedure ***
                           *** Shutting down DIIS ***
                      *** Re-Reading the Fockian *** 
                      *** Removing any level shift *** 
ITER      Energy       Delta-E        Grad      Rot      Max-DP    RMS-DP
  6  -4975.12910509  -0.0010609084  0.001103  0.001103  0.009331  0.000038
               *** Restarting incremental Fock matrix formation ***
  7  -4975.12922552  -0.0001204313  0.000568  0.006996  0.017864  0.000089
  8  -4975.12924481  -0.0000192875  0.000382  0.005738  0.013796  0.000047
  9  -4975.12925870  -0.0000138875  0.000513  0.004683  0.012187  0.000043
 10  -4975.12926647  -0.0000077751  0.000193  0.000696  0.004169  0.000017
 11  -4975.12926917  -0.0000026993  0.000151  0.001196  0.004178  0.000016
 12  -4975.12927017  -0.0000009943  0.000107  0.000400  0.001426  0.000007
 13  -4975.12927114  -0.0000009746  0.000044  0.000610  0.002803  0.000009
 14  -4975.12927163  -0.0000004922  0.000025  0.000086  0.000603  0.000002
 15  -4975.12927167  -0.0000000374  0.000023  0.000221  0.001131  0.000003
 16  -4975.12927170  -0.0000000264  0.000015  0.000040  0.000406  0.000002
 17  -4975.12927170  -0.0000000026  0.000008  0.000122  0.000365  0.000002
 18  -4975.12927181  -0.0000001150  0.000007  0.000050  0.000687  0.000002
 19  -4975.12927177   0.0000000486  0.000006  0.000020  0.000280  0.000001
                  ***Gradient check signals convergence***
              ***Rediagonalizing the Fockian in SOSCF/NRSCF***

               *****************************************************
               *                     SUCCESS                       *
               *           SCF CONVERGED AFTER  20 CYCLES          *
               *****************************************************

Setting up the final grid:

General Integration Accuracy     IntAcc      ...  5.010
Radial Grid Type                 RadialGrid  ... Gauss-Chebyshev
Angular Grid (max. acc.)         AngularGrid ... Lebedev-434
Angular grid pruning method      GridPruning ... 3 (G Style)
Weight generation scheme         WeightScheme... Becke
Basis function cutoff            BFCut       ...    1.0000e-11
Integration weight cutoff        WCut        ...    1.0000e-14
Grids for H and He will be reduced by one unit

# of grid points (after initial pruning)     ... 938664 (   1.4 sec)
# of grid points (after weights+screening)   ... 797506 (  38.8 sec)
nearest neighbour list constructed           ...    0.0 sec
Grid point re-assignment to atoms done       ...    0.1 sec
Grid point division into batches done        ...    5.4 sec
Reduced shell lists constructed in   28.7 sec

Total number of grid points                  ...   797506
Total number of batches                      ...    12511
Average number of points per batch           ...       63
Average number of grid points per atom       ...     8222
Average number of shells per batch           ...   159.43 (17.81%)
Average number of basis functions per batch  ...   403.65 (16.91%)
Average number of large shells per batch     ...    96.70 (60.65%)
Average number of large basis fcns per batch ...   248.33 (61.52%)
Maximum spatial batch extension              ...  21.23, 23.27, 21.11 au
Average spatial batch extension              ...   1.75,  1.81,  1.73 au

Final grid set up in   69.0 sec
Final integration                            ... done (  64.1 sec)
Change in XC energy                          ...    -0.000013384
Integrated number of electrons               ...   525.999845172
Previous integrated no of electrons          ...   526.000384268
Old exchange energy                            =   -102.819985917 Eh
New exchange energy                            =   -102.821626772 Eh
Exchange energy change after final integration =     -0.001640855 Eh
Total energy after final integration           =  -4975.130925929 Eh
Final COS-X integration done in                =  1552.046 sec

----------------
TOTAL SCF ENERGY
----------------

Total Energy       :        -4975.13092593 Eh         -135380.19509 eV

Components:
Nuclear Repulsion  :        11035.21189046 Eh          300283.38165 eV
Electronic Energy  :       -16010.34281639 Eh         -435663.57674 eV
One Electron Energy:       -28802.25374639 Eh         -783749.16948 eV
Two Electron Energy:        12791.91093000 Eh          348085.59273 eV

Virial components:
Potential Energy   :        -9935.89099254 Eh         -270369.33922 eV
Kinetic Energy     :         4960.76006661 Eh          134989.14413 eV
Virial Ratio       :            2.00289691


DFT components:
N(Alpha)           :      262.999922585859 electrons
N(Beta)            :      262.999922585859 electrons
N(Total)           :      525.999845171718 electrons
E(X)               :     -408.846156715632 Eh       
E(C)               :      -22.167389502927 Eh       
E(XC)              :     -431.013546218559 Eh       
DFET-embed. en.    :        0.000000000000 Eh       

---------------
SCF CONVERGENCE
---------------

  Last Energy change         ...    7.5626e-08  Tolerance :   1.0000e-08
  Last MAX-Density change    ...    4.4409e-15  Tolerance :   1.0000e-07
  Last RMS-Density change    ...    1.2817e-17  Tolerance :   5.0000e-09
  Last Orbital Gradient      ...    2.4624e-06  Tolerance :   1.0000e-05
  Last Orbital Rotation      ...    1.8152e-05  Tolerance :   1.0000e-05

             **** THE GBW FILE WAS UPDATED (Y6_2.gbw) ****
             **** DENSITY FILE WAS UPDATED (Y6_2.scfp) ****
             **** ENERGY FILE WAS UPDATED (Y6_2.en.tmp) ****
             **** THE GBW FILE WAS UPDATED (Y6_2.gbw) ****
             **** DENSITY FILE WAS UPDATED (Y6_2.scfp) ****
----------------
ORBITAL ENERGIES
----------------

  NO   OCC          E(Eh)            E(eV) 
   0   2.0000     -88.946834     -2420.3664 
   1   2.0000     -88.912551     -2419.4335 
   2   2.0000     -88.909887     -2419.3610 
   3   2.0000     -88.907429     -2419.2941 
   4   2.0000     -88.903960     -2419.1998 
   5   2.0000     -24.728909      -672.9078 
   6   2.0000     -24.728478      -672.8961 
   7   2.0000     -24.725235      -672.8079 
   8   2.0000     -24.723258      -672.7541 
   9   2.0000     -19.139160      -520.8030 
  10   2.0000     -19.136972      -520.7435 
  11   2.0000     -14.407531      -392.0489 
  12   2.0000     -14.405692      -391.9988 
  13   2.0000     -14.353916      -390.5899 
  14   2.0000     -14.353501      -390.5786 
  15   2.0000     -14.333851      -390.0439 
  16   2.0000     -14.333413      -390.0320 
  17   2.0000     -14.331560      -389.9816 
  18   2.0000     -14.325980      -389.8297 
  19   2.0000     -10.305073      -280.4153 
  20   2.0000     -10.304224      -280.3922 
  21   2.0000     -10.299579      -280.2658 
  22   2.0000     -10.298924      -280.2480 
  23   2.0000     -10.282580      -279.8032 
  24   2.0000     -10.281304      -279.7685 
  25   2.0000     -10.262100      -279.2459 
  26   2.0000     -10.261764      -279.2368 
  27   2.0000     -10.260257      -279.1958 
  28   2.0000     -10.259720      -279.1812 
  29   2.0000     -10.255360      -279.0625 
  30   2.0000     -10.254220      -279.0315 
  31   2.0000     -10.251418      -278.9553 
  32   2.0000     -10.251352      -278.9535 
  33   2.0000     -10.243840      -278.7491 
  34   2.0000     -10.242940      -278.7246 
  35   2.0000     -10.242284      -278.7067 
  36   2.0000     -10.239617      -278.6341 
  37   2.0000     -10.239207      -278.6230 
  38   2.0000     -10.238872      -278.6139 
  39   2.0000     -10.235683      -278.5271 
  40   2.0000     -10.235649      -278.5262 
  41   2.0000     -10.234811      -278.5034 
  42   2.0000     -10.234411      -278.4925 
  43   2.0000     -10.231980      -278.4263 
  44   2.0000     -10.231707      -278.4189 
  45   2.0000     -10.231076      -278.4017 
  46   2.0000     -10.230827      -278.3949 
  47   2.0000     -10.230773      -278.3935 
  48   2.0000     -10.229831      -278.3678 
  49   2.0000     -10.229309      -278.3536 
  50   2.0000     -10.228672      -278.3363 
  51   2.0000     -10.228415      -278.3293 
  52   2.0000     -10.227352      -278.3004 
  53   2.0000     -10.225076      -278.2385 
  54   2.0000     -10.224943      -278.2348 
  55   2.0000     -10.224847      -278.2322 
  56   2.0000     -10.223778      -278.2031 
  57   2.0000     -10.221820      -278.1499 
  58   2.0000     -10.220595      -278.1165 
  59   2.0000     -10.218785      -278.0673 
  60   2.0000     -10.217729      -278.0386 
  61   2.0000     -10.217094      -278.0213 
  62   2.0000     -10.216178      -277.9963 
  63   2.0000     -10.215159      -277.9686 
  64   2.0000     -10.211253      -277.8623 
  65   2.0000     -10.202454      -277.6229 
  66   2.0000     -10.196600      -277.4636 
  67   2.0000     -10.195981      -277.4467 
  68   2.0000     -10.195102      -277.4228 
  69   2.0000     -10.179825      -277.0071 
  70   2.0000     -10.175358      -276.8856 
  71   2.0000      -8.017922      -218.1787 
  72   2.0000      -7.988965      -217.3908 
  73   2.0000      -7.985494      -217.2963 
  74   2.0000      -7.983064      -217.2302 
  75   2.0000      -7.979155      -217.1238 
  76   2.0000      -5.982650      -162.7962 
  77   2.0000      -5.975264      -162.5952 
  78   2.0000      -5.974651      -162.5785 
  79   2.0000      -5.951691      -161.9537 
  80   2.0000      -5.948440      -161.8653 
  81   2.0000      -5.947890      -161.8503 
  82   2.0000      -5.946058      -161.8005 
  83   2.0000      -5.945118      -161.7749 
  84   2.0000      -5.944698      -161.7634 
  85   2.0000      -5.942281      -161.6977 
  86   2.0000      -5.942134      -161.6937 
  87   2.0000      -5.941264      -161.6700 
  88   2.0000      -5.938779      -161.6024 
  89   2.0000      -5.937855      -161.5772 
  90   2.0000      -5.935157      -161.5038 
  91   2.0000      -1.272214       -34.6187 
  92   2.0000      -1.267582       -34.4927 
  93   2.0000      -1.258841       -34.2548 
  94   2.0000      -1.254195       -34.1284 
  95   2.0000      -1.069833       -29.1116 
  96   2.0000      -1.067920       -29.0596 
  97   2.0000      -1.046925       -28.4883 
  98   2.0000      -1.033767       -28.1302 
  99   2.0000      -1.033239       -28.1159 
 100   2.0000      -0.951516       -25.8921 
 101   2.0000      -0.945830       -25.7374 
 102   2.0000      -0.938290       -25.5322 
 103   2.0000      -0.933910       -25.4130 
 104   2.0000      -0.931722       -25.3534 
 105   2.0000      -0.928902       -25.2767 
 106   2.0000      -0.928123       -25.2555 
 107   2.0000      -0.923618       -25.1329 
 108   2.0000      -0.904032       -24.6000 
 109   2.0000      -0.894178       -24.3318 
 110   2.0000      -0.887910       -24.1613 
 111   2.0000      -0.883386       -24.0382 
 112   2.0000      -0.877058       -23.8660 
 113   2.0000      -0.869967       -23.6730 
 114   2.0000      -0.840591       -22.8736 
 115   2.0000      -0.834031       -22.6951 
 116   2.0000      -0.828469       -22.5438 
 117   2.0000      -0.826307       -22.4850 
 118   2.0000      -0.821227       -22.3467 
 119   2.0000      -0.818435       -22.2708 
 120   2.0000      -0.810244       -22.0478 
 121   2.0000      -0.805859       -21.9285 
 122   2.0000      -0.805315       -21.9137 
 123   2.0000      -0.800454       -21.7815 
 124   2.0000      -0.787162       -21.4198 
 125   2.0000      -0.778812       -21.1926 
 126   2.0000      -0.763498       -20.7758 
 127   2.0000      -0.760316       -20.6892 
 128   2.0000      -0.754663       -20.5354 
 129   2.0000      -0.743621       -20.2350 
 130   2.0000      -0.734167       -19.9777 
 131   2.0000      -0.727559       -19.7979 
 132   2.0000      -0.721468       -19.6321 
 133   2.0000      -0.707151       -19.2426 
 134   2.0000      -0.702923       -19.1275 
 135   2.0000      -0.695886       -18.9360 
 136   2.0000      -0.686641       -18.6844 
 137   2.0000      -0.682341       -18.5674 
 138   2.0000      -0.674454       -18.3528 
 139   2.0000      -0.663521       -18.0553 
 140   2.0000      -0.656936       -17.8761 
 141   2.0000      -0.652082       -17.7441 
 142   2.0000      -0.648004       -17.6331 
 143   2.0000      -0.642975       -17.4962 
 144   2.0000      -0.638966       -17.3871 
 145   2.0000      -0.634984       -17.2788 
 146   2.0000      -0.628973       -17.1152 
 147   2.0000      -0.621393       -16.9090 
 148   2.0000      -0.615128       -16.7385 
 149   2.0000      -0.603213       -16.4143 
 150   2.0000      -0.594135       -16.1672 
 151   2.0000      -0.591884       -16.1060 
 152   2.0000      -0.589760       -16.0482 
 153   2.0000      -0.583818       -15.8865 
 154   2.0000      -0.578490       -15.7415 
 155   2.0000      -0.576059       -15.6754 
 156   2.0000      -0.573549       -15.6071 
 157   2.0000      -0.568647       -15.4737 
 158   2.0000      -0.560571       -15.2539 
 159   2.0000      -0.551867       -15.0171 
 160   2.0000      -0.549337       -14.9482 
 161   2.0000      -0.545683       -14.8488 
 162   2.0000      -0.542054       -14.7500 
 163   2.0000      -0.535337       -14.5673 
 164   2.0000      -0.529827       -14.4173 
 165   2.0000      -0.528717       -14.3871 
 166   2.0000      -0.524173       -14.2635 
 167   2.0000      -0.523671       -14.2498 
 168   2.0000      -0.519714       -14.1421 
 169   2.0000      -0.519054       -14.1242 
 170   2.0000      -0.515295       -14.0219 
 171   2.0000      -0.513020       -13.9600 
 172   2.0000      -0.503302       -13.6956 
 173   2.0000      -0.495562       -13.4849 
 174   2.0000      -0.490999       -13.3608 
 175   2.0000      -0.489436       -13.3182 
 176   2.0000      -0.489109       -13.3093 
 177   2.0000      -0.488930       -13.3045 
 178   2.0000      -0.488296       -13.2872 
 179   2.0000      -0.487917       -13.2769 
 180   2.0000      -0.484462       -13.1829 
 181   2.0000      -0.483323       -13.1519 
 182   2.0000      -0.482041       -13.1170 
 183   2.0000      -0.474582       -12.9140 
 184   2.0000      -0.469007       -12.7623 
 185   2.0000      -0.468054       -12.7364 
 186   2.0000      -0.467261       -12.7148 
 187   2.0000      -0.465998       -12.6804 
 188   2.0000      -0.465919       -12.6783 
 189   2.0000      -0.463650       -12.6166 
 190   2.0000      -0.461002       -12.5445 
 191   2.0000      -0.457484       -12.4488 
 192   2.0000      -0.452474       -12.3125 
 193   2.0000      -0.449391       -12.2285 
 194   2.0000      -0.448975       -12.2172 
 195   2.0000      -0.445410       -12.1202 
 196   2.0000      -0.441773       -12.0212 
 197   2.0000      -0.439576       -11.9615 
 198   2.0000      -0.434661       -11.8277 
 199   2.0000      -0.432185       -11.7603 
 200   2.0000      -0.431480       -11.7412 
 201   2.0000      -0.430460       -11.7134 
 202   2.0000      -0.429436       -11.6855 
 203   2.0000      -0.428294       -11.6545 
 204   2.0000      -0.427627       -11.6363 
 205   2.0000      -0.423826       -11.5329 
 206   2.0000      -0.420494       -11.4422 
 207   2.0000      -0.417626       -11.3642 
 208   2.0000      -0.416630       -11.3371 
 209   2.0000      -0.415998       -11.3199 
 210   2.0000      -0.412666       -11.2292 
 211   2.0000      -0.410423       -11.1682 
 212   2.0000      -0.402977       -10.9656 
 213   2.0000      -0.399520       -10.8715 
 214   2.0000      -0.397950       -10.8288 
 215   2.0000      -0.396977       -10.8023 
 216   2.0000      -0.395125       -10.7519 
 217   2.0000      -0.393939       -10.7196 
 218   2.0000      -0.393016       -10.6945 
 219   2.0000      -0.392779       -10.6881 
 220   2.0000      -0.391998       -10.6668 
 221   2.0000      -0.390823       -10.6348 
 222   2.0000      -0.389218       -10.5912 
 223   2.0000      -0.388287       -10.5658 
 224   2.0000      -0.387901       -10.5553 
 225   2.0000      -0.384922       -10.4743 
 226   2.0000      -0.381814       -10.3897 
 227   2.0000      -0.379955       -10.3391 
 228   2.0000      -0.375124       -10.2077 
 229   2.0000      -0.371336       -10.1046 
 230   2.0000      -0.368785       -10.0352 
 231   2.0000      -0.367646       -10.0041 
 232   2.0000      -0.367206        -9.9922 
 233   2.0000      -0.366270        -9.9667 
 234   2.0000      -0.363395        -9.8885 
 235   2.0000      -0.362271        -9.8579 
 236   2.0000      -0.362033        -9.8514 
 237   2.0000      -0.358536        -9.7562 
 238   2.0000      -0.350152        -9.5281 
 239   2.0000      -0.349785        -9.5181 
 240   2.0000      -0.348247        -9.4763 
 241   2.0000      -0.347037        -9.4434 
 242   2.0000      -0.343098        -9.3362 
 243   2.0000      -0.339942        -9.2503 
 244   2.0000      -0.337070        -9.1721 
 245   2.0000      -0.335780        -9.1370 
 246   2.0000      -0.313819        -8.5394 
 247   2.0000      -0.310377        -8.4458 
 248   2.0000      -0.308015        -8.3815 
 249   2.0000      -0.300243        -8.1700 
 250   2.0000      -0.297787        -8.1032 
 251   2.0000      -0.294068        -8.0020 
 252   2.0000      -0.285938        -7.7808 
 253   2.0000      -0.283120        -7.7041 
 254   2.0000      -0.278792        -7.5863 
 255   2.0000      -0.273130        -7.4322 
 256   2.0000      -0.269395        -7.3306 
 257   2.0000      -0.265680        -7.2295 
 258   2.0000      -0.262721        -7.1490 
 259   2.0000      -0.244493        -6.6530 
 260   2.0000      -0.237312        -6.4576 
 261   2.0000      -0.233644        -6.3578 
 262   2.0000      -0.206460        -5.6181 
 263   0.0000      -0.135189        -3.6787 
 264   0.0000      -0.125712        -3.4208 
 265   0.0000      -0.111469        -3.0332 
 266   0.0000      -0.108392        -2.9495 
 267   0.0000      -0.089696        -2.4408 
 268   0.0000      -0.065875        -1.7926 
 269   0.0000      -0.058267        -1.5855 
 270   0.0000      -0.039679        -1.0797 
 271   0.0000      -0.028277        -0.7695 
 272   0.0000      -0.025845        -0.7033 
 273   0.0000      -0.020601        -0.5606 
 274   0.0000      -0.019560        -0.5323 
 275   0.0000      -0.011557        -0.3145 
 276   0.0000      -0.011111        -0.3023 
 277   0.0000      -0.007776        -0.2116 
 278   0.0000      -0.004887        -0.1330 
 279   0.0000      -0.002689        -0.0732 
 280   0.0000       0.001015         0.0276 
 281   0.0000       0.003725         0.1014 
 282   0.0000       0.004629         0.1260 
 283   0.0000       0.012278         0.3341 
 284   0.0000       0.015312         0.4167 
 285   0.0000       0.018419         0.5012 
 286   0.0000       0.020788         0.5657 
 287   0.0000       0.025106         0.6832 
 288   0.0000       0.026210         0.7132 
 289   0.0000       0.027829         0.7573 
 290   0.0000       0.029454         0.8015 
 291   0.0000       0.029716         0.8086 
 292   0.0000       0.031266         0.8508 
 293   0.0000       0.035109         0.9554 
 294   0.0000       0.037816         1.0290 
 295   0.0000       0.038586         1.0500 
 296   0.0000       0.040953         1.1144 
 297   0.0000       0.045054         1.2260 
 298   0.0000       0.045473         1.2374 
 299   0.0000       0.050071         1.3625 
 300   0.0000       0.050933         1.3860 
 301   0.0000       0.053270         1.4495 
 302   0.0000       0.055875         1.5204 
 303   0.0000       0.058747         1.5986 
 304   0.0000       0.060850         1.6558 
 305   0.0000       0.061930         1.6852 
 306   0.0000       0.065608         1.7853 
 307   0.0000       0.068077         1.8525 
 308   0.0000       0.068371         1.8605 
 309   0.0000       0.070220         1.9108 
 310   0.0000       0.074423         2.0252 
 311   0.0000       0.078524         2.1367 
 312   0.0000       0.080044         2.1781 
 313   0.0000       0.081621         2.2210 
 314   0.0000       0.083365         2.2685 
[...]
   249a -> 263a  :     0.018600 (c= -0.13638036)
   250a -> 263a  :     0.076351 (c= -0.27631699)
   251a -> 263a  :     0.109330 (c= -0.33065026)
   251a -> 264a  :     0.027986 (c= -0.16729157)
   252a -> 263a  :     0.011479 (c=  0.10714142)
   252a -> 264a  :     0.015300 (c=  0.12369271)
   255a -> 264a  :     0.030097 (c=  0.17348496)
   255a -> 265a  :     0.075334 (c=  0.27447121)
   255a -> 266a  :     0.061575 (c=  0.24814329)
   256a -> 263a  :     0.015136 (c=  0.12302882)
   256a -> 264a  :     0.023676 (c= -0.15387044)
   256a -> 265a  :     0.011522 (c= -0.10734247)
   256a -> 266a  :     0.044778 (c= -0.21160878)
   257a -> 266a  :     0.046645 (c= -0.21597367)
   258a -> 264a  :     0.023724 (c=  0.15402558)
   258a -> 265a  :     0.012261 (c=  0.11072745)
   258a -> 266a  :     0.218340 (c=  0.46726827)
   260a -> 268a  :     0.016910 (c=  0.13003805)
   261a -> 268a  :     0.017970 (c= -0.13405146)
   262a -> 269a  :     0.017207 (c= -0.13117510)
   262a -> 270a  :     0.018457 (c= -0.13585808)

STATE 46:  E=   0.151554 au      4.124 eV    33262.3 cm**-1
   249a -> 263a  :     0.046412 (c=  0.21543346)
   250a -> 263a  :     0.177988 (c=  0.42188608)
   251a -> 264a  :     0.020194 (c=  0.14210690)
   252a -> 264a  :     0.129689 (c= -0.36012376)
   253a -> 264a  :     0.010764 (c=  0.10374800)
   255a -> 264a  :     0.011356 (c=  0.10656553)
   255a -> 265a  :     0.039203 (c= -0.19799704)
   256a -> 264a  :     0.043866 (c= -0.20944119)
   256a -> 265a  :     0.062320 (c=  0.24964052)
   256a -> 266a  :     0.020129 (c= -0.14187760)
   257a -> 265a  :     0.010457 (c=  0.10225717)
   257a -> 266a  :     0.042772 (c= -0.20681428)
   258a -> 264a  :     0.024261 (c=  0.15575896)
   258a -> 265a  :     0.127375 (c= -0.35689666)
   258a -> 266a  :     0.061013 (c=  0.24700883)
   260a -> 266a  :     0.014618 (c=  0.12090595)
   262a -> 270a  :     0.015403 (c=  0.12410989)

STATE 47:  E=   0.151799 au      4.131 eV    33315.9 cm**-1
   247a -> 263a  :     0.021199 (c=  0.14559874)
   249a -> 263a  :     0.135568 (c= -0.36819525)
   250a -> 263a  :     0.091638 (c= -0.30271813)
   251a -> 263a  :     0.012851 (c= -0.11336350)
   252a -> 264a  :     0.017287 (c=  0.13147860)
   253a -> 265a  :     0.028414 (c=  0.16856495)
   253a -> 266a  :     0.013474 (c=  0.11607864)
   255a -> 263a  :     0.052822 (c= -0.22982929)
   255a -> 265a  :     0.190958 (c= -0.43698740)
   255a -> 266a  :     0.029501 (c= -0.17175888)
   256a -> 264a  :     0.035797 (c= -0.18920083)
   256a -> 265a  :     0.028898 (c= -0.16999532)
   258a -> 265a  :     0.159171 (c= -0.39896272)

STATE 48:  E=   0.153466 au      4.176 eV    33681.8 cm**-1
   250a -> 263a  :     0.024892 (c= -0.15777274)
   255a -> 264a  :     0.017053 (c=  0.13058700)
   255a -> 265a  :     0.037592 (c= -0.19388605)
   256a -> 263a  :     0.010006 (c=  0.10003053)
   256a -> 265a  :     0.195928 (c=  0.44263708)
   256a -> 266a  :     0.266913 (c=  0.51663587)
   257a -> 265a  :     0.015059 (c=  0.12271572)
   261a -> 268a  :     0.027325 (c= -0.16530216)
   262a -> 270a  :     0.258806 (c= -0.50873003)
   262a -> 271a  :     0.018822 (c= -0.13719151)

STATE 49:  E=   0.154816 au      4.213 eV    33978.2 cm**-1
   255a -> 263a  :     0.010843 (c=  0.10412779)
   255a -> 265a  :     0.019039 (c= -0.13798303)
   256a -> 264a  :     0.010981 (c=  0.10478795)
   256a -> 265a  :     0.034551 (c=  0.18587878)
   256a -> 266a  :     0.038412 (c=  0.19599041)
   260a -> 268a  :     0.025343 (c=  0.15919537)
   261a -> 268a  :     0.299483 (c= -0.54725008)
   262a -> 270a  :     0.334658 (c=  0.57849662)
   262a -> 271a  :     0.045012 (c=  0.21216087)
   262a -> 272a  :     0.040958 (c= -0.20238019)

STATE 50:  E=   0.155432 au      4.230 eV    34113.4 cm**-1
   251a -> 263a  :     0.010055 (c= -0.10027650)
   255a -> 265a  :     0.100828 (c= -0.31753489)
   255a -> 266a  :     0.324902 (c=  0.57000166)
   256a -> 265a  :     0.010519 (c= -0.10256281)
   256a -> 266a  :     0.138838 (c=  0.37260946)
   257a -> 266a  :     0.012633 (c=  0.11239802)
   258a -> 266a  :     0.016556 (c=  0.12866926)
   261a -> 268a  :     0.254660 (c=  0.50463836)
   262a -> 270a  :     0.035962 (c=  0.18963731)


-----------------------------
TD-DFT/TDA-EXCITATION SPECTRA
-----------------------------

Center of mass = ( 18.4191, -2.0386, -2.8568)
Calculating the Dipole integrals                  ... done
Transforming integrals                            ... done
Calculating the Linear Momentum integrals         ... done
Transforming integrals                            ... done
Calculating angular momentum integrals            ... done
Transforming integrals                            ... done

-----------------------------------------------------------------------------
         ABSORPTION SPECTRUM VIA TRANSITION ELECTRIC DIPOLE MOMENTS
-----------------------------------------------------------------------------
State   Energy    Wavelength  fosc         T2        TX        TY        TZ  
        (cm-1)      (nm)                 (au**2)    (au)      (au)      (au) 
-----------------------------------------------------------------------------
   1   14207.4    703.9   1.562953743  36.21657  -4.25646   2.05590   3.72457
   2   16574.9    603.3   0.734914894  14.59690   1.51985  -2.00054  -2.87833
   3   18451.1    542.0   0.371583128   6.62992   1.70428  -1.09219  -1.59138
   4   18866.1    530.1   0.007001528   0.12218   0.14787  -0.09314   0.30271
   5   19096.9    523.6   0.047073117   0.81150   0.12233   0.00531   0.89247
   6   20307.4    492.4   0.060955123   0.98817  -0.95641   0.13927   0.23249
   7   21341.9    468.6   0.213506802   3.29348  -1.33670  -0.83945  -0.89556
   8   21460.9    466.0   0.037319047   0.57248   0.25766   0.54723   0.45456
   9   22119.8    452.1   0.191426041   2.84902   0.19739  -0.92819  -1.39589
  10   22963.8    435.5   0.011671353   0.16732  -0.29568  -0.11770  -0.25698
  11   23356.4    428.1   0.156622791   2.20762   0.51998   0.70225   1.20171
  12   24373.4    410.3   0.044974338   0.60747   0.07247  -0.54494  -0.55250
  13   24649.1    405.7   0.068059477   0.90900   0.54296  -0.37370  -0.68887
  14   24917.1    401.3   0.073468208   0.97068   0.67442   0.33640   0.63457
  15   25568.8    391.1   0.023410581   0.30142   0.04168  -0.27563  -0.47299
  16   25770.2    388.0   0.007300372   0.09326  -0.05127   0.23081  -0.19328
  17   26003.6    384.6   0.007354195   0.09311  -0.26184  -0.14756   0.05268
  18   26384.0    379.0   0.036143489   0.45099  -0.67150  -0.00183   0.00827
  19   26545.5    376.7   0.027449009   0.34042   0.55079  -0.08685  -0.17178
  20   26630.3    375.5   0.000825966   0.01021  -0.07324  -0.00367  -0.06952
  21   27066.2    369.5   0.006930674   0.08430  -0.04102  -0.18498  -0.22000
  22   27439.2    364.4   0.025622412   0.30741  -0.36189   0.02017   0.41958
  23   27553.4    362.9   0.002305529   0.02755  -0.05870   0.15270  -0.02800
  24   27658.1    361.6   0.141742731   1.68715  -0.18076   0.39942   1.22268
  25   27816.9    359.5   0.006718515   0.07951   0.18609   0.04121   0.20781
  26   28050.5    356.5   0.017154669   0.20133  -0.43886   0.03605   0.08622
  27   28408.0    352.0   0.185800743   2.15319   1.18951  -0.74401  -0.42976
  28   28935.3    345.6   0.109071179   1.24096   0.56195   0.02455   0.96155
  29   29041.6    344.3   0.041565119   0.47118   0.62009  -0.16032   0.24689
  30   29395.3    340.2   0.008156060   0.09134  -0.18030  -0.19172  -0.14859
  31   29496.1    339.0   0.077572212   0.86580   0.37828   0.22950   0.81856
  32   29964.7    333.7   0.002052683   0.02255   0.14793   0.00869   0.02438
  33   30137.5    331.8   0.036615431   0.39997  -0.27357  -0.10884  -0.55972
  34   30242.1    330.7   0.217578165   2.36853  -1.25078   0.74911   0.49287
  35   30646.1    326.3   0.071772016   0.77100  -0.50164  -0.18722  -0.69592
  36   30785.6    324.8   0.002266494   0.02424   0.09173  -0.04827  -0.11616
  37   31220.4    320.3   0.019639863   0.20710   0.21724  -0.21916   0.33448
  38   31386.8    318.6   0.006121204   0.06420  -0.17890  -0.08015  -0.16055
  39   31713.0    315.3   0.016317918   0.16940   0.31816  -0.25921   0.03133
  40   31902.0    313.5   0.003778424   0.03899  -0.06517   0.07132   0.17221
  41   32077.5    311.7   0.041006210   0.42085   0.43967  -0.31397   0.35911
  42   32232.4    310.2   0.029660607   0.30294   0.48517  -0.18098   0.18654
  43   32530.5    307.4   0.060866822   0.61598   0.14195  -0.30536  -0.70893
  44   32813.9    304.7   0.024059062   0.24138  -0.28757   0.27625   0.28700
  45   33038.9    302.7   0.286324253   2.85304   1.46911  -0.81626   0.16875
  46   33262.3    300.6   0.182770618   1.80896   1.11012  -0.66217   0.37166
  47   33315.9    300.2   0.155104781   1.53267  -0.61144   0.98265   0.43955
  48   33681.8    296.9   0.273273464   2.67102   1.39662  -0.84824   0.03104
  49   33978.2    294.3   0.013951984   0.13518   0.00722  -0.14004  -0.33988
  50   34113.4    293.1   0.004067156   0.03925   0.07570  -0.14126   0.11648

-----------------------------------------------------------------------------
         ABSORPTION SPECTRUM VIA TRANSITION VELOCITY DIPOLE MOMENTS
-----------------------------------------------------------------------------
State   Energy    Wavelength   fosc        P2         PX        PY        PZ  
        (cm-1)      (nm)                 (au**2)     (au)      (au)      (au) 
-----------------------------------------------------------------------------
   1   14207.4    703.9   0.340466546   0.03306   0.08407  -0.08022  -0.13985
   2   16574.9    603.3   0.101413629   0.01149  -0.07868   0.01571   0.07107
   3   18451.1    542.0   0.158036158   0.01993  -0.08693   0.03132   0.10673
   4   18866.1    530.1   0.088489824   0.01141   0.06316  -0.00096   0.08614
   5   19096.9    523.6   0.063888143   0.00834   0.06842  -0.05036   0.03349
   6   20307.4    492.4   0.023077227   0.00320  -0.02353  -0.00981  -0.05053
   7   21341.9    468.6   0.007953234   0.00116   0.00704  -0.02121  -0.02570
   8   21460.9    466.0   0.014277115   0.00209  -0.00206  -0.00379  -0.04556
   9   22119.8    452.1   0.011574483   0.00175  -0.01294   0.03339   0.02161
  10   22963.8    435.5   0.015237033   0.00239  -0.04141   0.02436   0.00913
  11   23356.4    428.1   0.023223550   0.00371   0.03218  -0.03231  -0.04034
  12   24373.4    410.3   0.037760727   0.00629   0.02040   0.01510   0.07514
  13   24649.1    405.7   0.014489340   0.00244  -0.03818   0.01726   0.02617
  14   24917.1    401.3   0.001385440   0.00024  -0.00344  -0.01402   0.00524
  15   25568.8    391.1   0.031374054   0.00548  -0.04601   0.02838   0.05060
  16   25770.2    388.0   0.018737190   0.00330  -0.03406   0.04320  -0.01653
  17   26003.6    384.6   0.016936109   0.00301   0.02163  -0.03027  -0.04032
  18   26384.0    379.0   0.020450333   0.00369   0.05208  -0.01188  -0.02889
  19   26545.5    376.7   0.019285263   0.00350  -0.02773   0.04031   0.03323
  20   26630.3    375.5   0.007707745   0.00140  -0.00473   0.01855   0.03219
  21   27066.2    369.5   0.002243345   0.00041   0.01245   0.00609   0.01493
  22   27439.2    364.4   0.004887707   0.00092   0.02364  -0.01885   0.00164
  23   27553.4    362.9   0.001294131   0.00024  -0.01266   0.00796  -0.00448
  24   27658.1    361.6   0.079321355   0.01499   0.06459  -0.05150  -0.09039
  25   27816.9    359.5   0.000642649   0.00012   0.00810  -0.00489   0.00571
  26   28050.5    356.5   0.003370748   0.00065   0.02105   0.01393   0.00300
  27   28408.0    352.0   0.036904151   0.00717  -0.07405  -0.00358   0.04085
  28   28935.3    345.6   0.006833338   0.00135   0.03149  -0.01770   0.00680
  29   29041.6    344.3   0.006903243   0.00137  -0.01058  -0.02918   0.02017
  30   29395.3    340.2   0.005857355   0.00118   0.01580   0.00756   0.02950
  31   29496.1    339.0   0.005285401   0.00107   0.02891  -0.01415   0.00543
  32   29964.7    333.7   0.003609497   0.00074  -0.00189  -0.02090  -0.01728
  33   30137.5    331.8   0.008284904   0.00171  -0.03015   0.02590   0.01124
  34   30242.1    330.7   0.109897921   0.02271   0.09302  -0.03229  -0.11410
  35   30646.1    326.3   0.003809878   0.00080  -0.00087   0.00334  -0.02804
  36   30785.6    324.8   0.001328970   0.00028  -0.01389   0.00128   0.00923
  37   31220.4    320.3   0.002116993   0.00045   0.00849  -0.01874   0.00533
  38   31386.8    318.6   0.002976826   0.00064   0.02166   0.00203   0.01286
  39   31713.0    315.3   0.003856851   0.00084   0.00798   0.00197   0.02772
  40   31902.0    313.5   0.000803534   0.00018  -0.00983   0.00220   0.00859
  41   32077.5    311.7   0.005516781   0.00121   0.01214  -0.02833  -0.01611
  42   32232.4    310.2   0.006326049   0.00139  -0.03671   0.00112  -0.00667
  43   32530.5    307.4   0.006378032   0.00142  -0.02321   0.01769   0.02380
  44   32813.9    304.7   0.003784858   0.00085   0.01574  -0.00405  -0.02418
  45   33038.9    302.7   0.005818143   0.00131  -0.02401  -0.02587   0.00824
  46   33262.3    300.6   0.011348031   0.00258   0.04406  -0.02408  -0.00767
  47   33315.9    300.2   0.047372861   0.01079   0.05884   0.03979  -0.07577
  48   33681.8    296.9   0.036819694   0.00848  -0.08357  -0.02082   0.03254
  49   33978.2    294.3   0.013958717   0.00324  -0.04682  -0.00418  -0.03213
  50   34113.4    293.1   0.011170532   0.00260   0.03661  -0.01860   0.03029

-------------------------------------------------------------------
                             CD SPECTRUM
-------------------------------------------------------------------
State  Energy     Wavelength     R         MX        MY        MZ   
       (cm-1)       (nm)     (1e40*cgs)   (au)      (au)      (au)  
-------------------------------------------------------------------
   1   14207.4    703.9    556.21181  -0.07119  -0.27811   0.38892
   2   16574.9    603.3    161.35884   0.00900   0.41691  -0.40392
   3   18451.1    542.0     80.99051  -0.37264  -0.11449  -0.42845
   4   18866.1    530.1      6.81070  -0.05103  -0.01105   0.06925
   5   19096.9    523.6    -46.14796  -0.15853  -0.09200  -0.08740
   6   20307.4    492.4    102.16400  -0.27407  -0.79292   0.27965
   7   21341.9    468.6    -214.39505   0.04585   0.42151   0.04425
   8   21460.9    466.0    -30.45176   0.02569  -0.14275   0.01519
   9   22119.8    452.1    -60.93081   0.09856   0.25713  -0.06445
  10   22963.8    435.5     -1.46459  -0.01237   0.03671   0.00951
  11   23356.4    428.1    -138.52367  -0.19484  -0.52628   0.14734
  12   24373.4    410.3    -52.86286   0.03329   0.27962  -0.06849
  13   24649.1    405.7     26.62486   0.06883   0.33533  -0.20964
  14   24917.1    401.3    -121.10584  -0.13143  -0.24794  -0.13369
  15   25568.8    391.1     41.27060  -0.15456  -0.08543  -0.14892
  16   25770.2    388.0     -2.09385   0.15053   0.07146   0.06839
  17   26003.6    384.6     24.61209  -0.21601   0.00953  -0.05595
  18   26384.0    379.0      1.33857  -0.00068  -0.04409   0.27857
  19   26545.5    376.7    -24.35131  -0.13863   0.10090  -0.19482
  20   26630.3    375.5     -0.18794   0.00723   0.08400  -0.00632
  21   27066.2    369.5      4.61126   0.01205  -0.03846  -0.01437
  22   27439.2    364.4     26.82703  -0.09862  -0.24930   0.06255
  23   27553.4    362.9    -11.14722   0.10552  -0.13714  -0.12463
  24   27658.1    361.6     92.98858  -0.02351  -0.39590   0.28717
  25   27816.9    359.5     -0.98658   0.04444   0.07033  -0.06381
  26   28050.5    356.5    -13.74918   0.07818   0.22629  -0.03493
  27   28408.0    352.0    -69.22060  -0.19891   0.01992  -0.24340
  28   28935.3    345.6      8.47417  -0.10246  -0.15799   0.08260
  29   29041.6    344.3    -19.57126  -0.09935  -0.08255   0.02778
  30   29395.3    340.2     -6.46778  -0.02167   0.13012  -0.04927
  31   29496.1    339.0      9.68129  -0.02178  -0.13938   0.07423
  32   29964.7    333.7     -4.27023  -0.05522   0.05317  -0.05542
  33   30137.5    331.8      7.10999   0.03463   0.16792  -0.07652
  34   30242.1    330.7    -140.37257   0.06659  -0.47985   0.29420
  35   30646.1    326.3    -81.68027   0.11980   0.09803   0.13623
  36   30785.6    324.8      2.85173   0.02810   0.07153  -0.05961
  37   31220.4    320.3      4.49826   0.00107   0.08043   0.08054
  38   31386.8    318.6     -7.26138   0.00302   0.00480   0.09017
  39   31713.0    315.3    -10.59235  -0.01461   0.07195   0.02651
  40   31902.0    313.5      1.38066   0.01325   0.03991   0.00549
  41   32077.5    311.7      9.95039  -0.22210  -0.27064   0.09407
  42   32232.4    310.2    -12.73187  -0.04640  -0.00812  -0.03196
  43   32530.5    307.4      0.09779   0.04217   0.28689  -0.11542
  44   32813.9    304.7     -5.41906   0.04124  -0.08536   0.08343
  45   33038.9    302.7    -14.79079  -0.10618  -0.13909   0.06570
  46   33262.3    300.6     65.30067  -0.06333  -0.19891   0.20746
  47   33315.9    300.2    -122.16744   0.26991  -0.23481   0.31087
  48   33681.8    296.9    -137.69951  -0.20307   0.00454  -0.14845
  49   33978.2    294.3     20.67566  -0.01742   0.02090  -0.13802
  50   34113.4    293.1      0.60808  -0.06891  -0.05904  -0.01574

Total run time:   224888.326 sec

           *** ORCA-CIS/TD-DFT FINISHED WITHOUT ERROR ***

-----------------------
CIS/TD-DFT TOTAL ENERGY
-----------------------

    E(SCF)  =  -4975.130925929 Eh
    DE(CIS) =      0.064733646 Eh (Root  1)
    ----------------------------- ---------
    E(tot)  =  -4975.066192283 Eh


-------------------------   --------------------
FINAL SINGLE POINT ENERGY     -4975.066192283163
-------------------------   --------------------


                            ***************************************
                            *     ORCA property calculations      *
                            ***************************************

                                    ---------------------
                                    Active property flags
                                    ---------------------
   (+) Dipole Moment


------------------------------------------------------------------------------
                       ORCA ELECTRIC PROPERTIES CALCULATION
------------------------------------------------------------------------------

Dipole Moment Calculation                       ... on
Quadrupole Moment Calculation                   ... off
Polarizability Calculation                      ... off
GBWName                                         ... Y6_2.gbw
Electron density file                           ... Y6_2.scfp
The origin for moment calculation is the CENTER OF MASS  = (18.419078, -2.038589 -2.856754)

-------------
DIPOLE MOMENT
-------------
                                X             Y             Z
Electronic contribution:    -26.58896     -15.03482      -0.10115
Nuclear contribution   :     25.86585      18.40956       0.59052
                        -----------------------------------------
Total Dipole Moment    :     -0.72311       3.37474       0.48937
                        -----------------------------------------
Magnitude (a.u.)       :      3.48586
Magnitude (Debye)      :      8.86035



--------------------
Rotational spectrum 
--------------------
 
Rotational constants in cm-1:     0.001687     0.000271     0.000244 
Rotational constants in MHz :    50.562082     8.130185     7.319484 

 Dipole components along the rotational axes: 
x,y,z [a.u.] :     2.096169     0.133902    -2.781970 
x,y,z [Debye]:     5.328039     0.340352    -7.071207 

 

Timings for individual modules:

Sum of individual times         ...   241553.002 sec (=4025.883 min)
GTO integral calculation        ...        6.287 sec (=   0.105 min)   0.0 %
SCF iterations                  ...    16658.267 sec (= 277.638 min)   6.9 %
CIS module                      ...   224888.447 sec (=3748.141 min)  93.1 %
                             ****ORCA TERMINATED NORMALLY****
TOTAL RUN TIME: 2 days 19 hours 5 minutes 54 seconds 306 msec
