
                                 *****************
                                 * O   R   C   A *
                                 *****************

           --- An Ab Initio, DFT and Semiempirical electronic structure package ---

                  #######################################################
                  #                        -***-                        #
                  #          Department of theory and spectroscopy      #
                  #               Directorship: Frank Neese             #
                  #        Max Planck Institute fuer Kohlenforschung    #
                  #                Kaiser Wilhelm Platz 1               #
                  #                 D-45470 Muelheim/Ruhr               #
                  #                      Germany                        #
                  #                                                     #
                  #                  All rights reserved                #
                  #                        -***-                        #
                  #######################################################


                         Program Version 4.2.0 -  RELEASE  -


 With contributions from (in alphabetic order):
   Daniel Aravena         : Magnetic Suceptibility
   Michael Atanasov       : Ab Initio Ligand Field Theory (pilot matlab implementation)
   Alexander A. Auer      : GIAO ZORA, VPT2
   Ute Becker             : Parallelization
   Giovanni Bistoni       : ED, misc. LED, open-shell LED, HFLED
   Martin Brehm           : Molecular dynamics
   Dmytro Bykov           : SCF Hessian
   Vijay G. Chilkuri      : MRCI spin determinant printing, contributions to CSF-ICE
   Dipayan Datta          : RHF DLPNO-CCSD density
   Achintya Kumar Dutta   : EOM-CC, STEOM-CC
   Dmitry Ganyushin       : Spin-Orbit,Spin-Spin,Magnetic field MRCI
   Miquel Garcia          : C-PCM Hessian, Gaussian charge scheme
   Yang Guo               : DLPNO-NEVPT2, CIM, IAO-localization
   Andreas Hansen         : Spin unrestricted coupled pair/coupled cluster methods
   Benjamin Helmich-Paris : CASSCF linear response (MC-RPA)
   Lee Huntington         : MR-EOM, pCC
   Robert Izsak           : Overlap fitted RIJCOSX, COSX-SCS-MP3, EOM
   Christian Kollmar      : KDIIS, OOCD, Brueckner-CCSD(T), CCSD density
   Simone Kossmann        : Meta GGA functionals, TD-DFT gradient, OOMP2, MP2 Hessian
   Martin Krupicka        : AUTO-CI
   Lucas Lang             : DCDCAS
   Dagmar Lenk            : GEPOL surface, SMD
   Dimitrios Liakos       : Extrapolation schemes; Compound Job, initial MDCI parallelization
   Dimitrios Manganas     : Further ROCIS development; embedding schemes
   Dimitrios Pantazis     : SARC Basis sets
   Taras Petrenko         : DFT Hessian,TD-DFT gradient, ASA, ECA, R-Raman, ABS, FL, XAS/XES, NRVS
   Peter Pinski           : DLPNO-MP2, DLPNO-MP2 Gradient
   Christoph Reimann      : Effective Core Potentials
   Marius Retegan         : Local ZFS, SOC
   Christoph Riplinger    : Optimizer, TS searches, QM/MM, DLPNO-CCSD(T), (RO)-DLPNO pert. Triples
   Tobias Risthaus        : Range-separated hybrids, TD-DFT gradient, RPA, STAB
   Michael Roemelt        : Original ROCIS implementation
   Masaaki Saitow         : Open-shell DLPNO-CCSD energy and density
   Barbara Sandhoefer     : DKH picture change effects
   Avijit Sen             : IP-ROCIS
   Kantharuban Sivalingam : CASSCF convergence, NEVPT2, FIC-MRCI
   Bernardo de Souza      : ESD, SOC TD-DFT
   Georgi Stoychev        : AutoAux, RI-MP2 NMR
   Willem Van den Heuvel  : Paramagnetic NMR
   Boris Wezisla          : Elementary symmetry handling
   Frank Wennmohs         : Technical directorship


 We gratefully acknowledge several colleagues who have allowed us to
 interface, adapt or use parts of their codes:
   Stefan Grimme, W. Hujo, H. Kruse,             : VdW corrections, initial TS optimization,
                  C. Bannwarth                     DFT functionals, gCP, sTDA/sTD-DF
   Ed Valeev, F. Pavosevic, A. Kumar             : LibInt (2-el integral package), F12 methods
   Garnet Chan, S. Sharma, J. Yang, R. Olivares  : DMRG
   Ulf Ekstrom                                   : XCFun DFT Library
   Mihaly Kallay                                 : mrcc  (arbitrary order and MRCC methods)
   Andreas Klamt, Michael Diedenhofen            : otool_cosmo (COSMO solvation model)
   Jiri Pittner, Ondrej Demel                    : Mk-CCSD
   Frank Weinhold                                : gennbo (NPA and NBO analysis)
   Christopher J. Cramer and Donald G. Truhlar   : smd solvation model
   Lars Goerigk                                  : TD-DFT with DH, B97 family of functionals
   V. Asgeirsson, H. Jonsson                     : NEB implementation
   FAccTs GmbH                                   : IRC, NEB, NEB-TS, Multilevel, MM, QM/MM, CI optimization
   S Lehtola, MJT Oliveira, MAL Marques          : LibXC Library


 Your calculation uses the libint2 library for the computation of 2-el integrals
 For citations please refer to: http://libint.valeyev.net

 Your ORCA version has been built with support for libXC version: 4.2.3
 For citations please refer to: https://tddft.org/programs/libxc/

 This ORCA versions uses:
   CBLAS   interface :  Fast vector & matrix operations
   LAPACKE interface :  Fast linear algebra routines
   SCALAPACK package :  Parallel linear algebra routines


Your calculation utilizes the atom-pairwise dispersion correction
with the Becke-Johnson damping scheme (D3BJ)
Cite in your paper:
S.Grimme, S.Ehrlich, L.Goerigk, J Comput Chem, (2011), 32, 1456–1465 
S.Grimme, J.Antony, S.Ehrlich and H.Krieg, J.Chem.Phys., 132, (2010), 154104 
   

----- Orbital basis set information -----
Your calculation utilizes the basis: def2-SVP
   F. Weigend and R. Ahlrichs, Phys. Chem. Chem. Phys. 7, 3297 (2005).

----- AuxJ basis set information -----
Your calculation utilizes the auxiliary basis: def2/J
   F. Weigend, Phys. Chem. Chem. Phys. 8, 1057 (2006).

================================================================================
                                        WARNINGS
                       Please study these warnings very carefully!
================================================================================


WARNING: Geometry Optimization
  ===> : Switching off AutoStart
         For restart on a previous wavefunction, please use MOREAD

INFO   : the flag for use of LIBINT has been found!

================================================================================
                                       INPUT FILE
================================================================================
NAME = BTDT2R.inp
|  1> # ORCA input file
|  2> # SCF done       -115.576880948296          0.000632453380
|  3> ! B3LYP/G D3BJ Opt RIJCOSX def2-SVP def2/J
|  4> * xyz 0 1
|  5>    C        1.06622         1.91889        -0.01797
|  6>    C        2.28948         1.24158        -0.14673
|  7>    C        2.35738        -0.17822        -0.15810
|  8>    C        1.22552        -0.99446        -0.15792
|  9>    C       -0.01907        -0.32231        -0.06716
| 10>    C       -0.09171         1.10415         0.02443
| 11>    N       -1.22235        -0.88546        -0.03816
| 12>    S       -2.33868         0.25810         0.09811
| 13>    N       -1.34955         1.52863         0.12363
| 14>    O        3.40778         2.00682        -0.21691
| 15>    O        3.61264        -0.76062        -0.12632
| 16>    C        4.06782        -1.02261         1.18978
| 17>    C        4.51087         1.60269        -1.01186
| 18>    C        0.92259         3.34394         0.05948
| 19>    C        1.25176        -2.42893        -0.22113
| 20>    S       -0.66138         4.04829         0.05312
| 21>    C       -0.00013         5.65972         0.15107
| 22>    C        1.38467         5.61789         0.19721
| 23>    C        1.89533         4.32841         0.14876
| 24>    C        2.30754        -3.25617        -0.58093
| 25>    C        1.97318        -4.59660        -0.54526
| 26>    C        0.65502        -4.83470        -0.15834
| 27>    S       -0.17739        -3.33694         0.14827
| 28>    C       -0.88511         6.75736         0.18388
| 29>    C       -0.59114         8.08094         0.25885
| 30>    C        0.11548        -6.13323        -0.06476
| 31>    C       -1.14345        -6.54007         0.25844
| 32>    C       -1.64321         9.09550         0.29173
| 33>    N       -1.08255        10.36144         0.37515
| 34>    C        0.26978        10.44456         0.40673
| 35>    S        0.98387         8.83646         0.33267
| 36>    S       -1.57023        -8.24410         0.28078
| 37>    C       -3.23074        -7.88087         0.72036
| 38>    N       -3.39848        -6.53842         0.83629
| 39>    C       -2.29801        -5.73040         0.60648
| 40>    O       -2.83669         8.89547         0.25478
| 41>    C       -1.91058        11.54069         0.42745
| 42>    S        1.12084        11.83206         0.50046
| 43>    S       -4.40306        -8.98953         0.95794
| 44>    C       -4.67708        -5.97107         1.18703
| 45>    O       -2.34588        -4.51891         0.69925
| 46>    H        3.39113        -1.70516         1.71283
| 47>    H        4.16103        -0.09734         1.76805
| 48>    H        5.04559        -1.48848         1.08361
| 49>    H        4.95744         2.52823        -1.37933
| 50>    H        4.19587         0.98871        -1.85581
| 51>    H        5.25059         1.05639        -0.42368
| 52>    H        2.00147         6.49543         0.26760
| 53>    H        2.94366         4.10588         0.18912
| 54>    H        3.27107        -2.88540        -0.87713
| 55>    H        2.65346        -5.39163        -0.79588
| 56>    H       -1.94427         6.52936         0.14628
| 57>    H        0.82089        -6.92416        -0.29584
| 58>    H       -2.94701        11.20872         0.39080
| 59>    H       -1.68981        12.19081        -0.41984
| 60>    H       -1.72004        12.09017         1.35001
| 61>    H       -5.00196        -6.35271         2.15548
| 62>    H       -5.42215        -6.23972         0.43733
| 63>    H       -4.55154        -4.89020         1.22691
| 64> *
| 65> 
| 66>                          ****END OF INPUT****
================================================================================

                       *****************************
                       * Geometry Optimization Run *
                       *****************************

Geometry optimization settings:
Update method            Update   .... BFGS
Choice of coordinates    CoordSys .... Z-matrix Internals
Initial Hessian          InHess   .... Almoef's Model

Convergence Tolerances:
Energy Change            TolE     ....  5.0000e-06 Eh
Max. Gradient            TolMAXG  ....  3.0000e-04 Eh/bohr
RMS Gradient             TolRMSG  ....  1.0000e-04 Eh/bohr
Max. Displacement        TolMAXD  ....  4.0000e-03 bohr
RMS Displacement         TolRMSD  ....  2.0000e-03 bohr
Strict Convergence                ....  False
------------------------------------------------------------------------------
                        ORCA OPTIMIZATION COORDINATE SETUP
------------------------------------------------------------------------------

The optimization will be done in new redundant internal coordinates
Making redundant internal coordinates   ...  (new redundants) done
Evaluating the initial hessian          ...  (Almloef) done
Evaluating the coordinates              ...  done
Calculating the B-matrix                .... done
Calculating the G-matrix                .... done
Diagonalizing the G-matrix              .... done
Small eigenvalue found = 3.843e-04
Small eigenvalue found = 1.671e-03
Small eigenvalue found = 3.447e-03
Small eigenvalue found = 4.699e-03
Small eigenvalue found = 5.983e-03
Small eigenvalue found = 9.055e-03
Small eigenvalue found = 1.235e-02
Small eigenvalue found = 1.278e-02
Small eigenvalue found = 1.529e-02
Small eigenvalue found = 1.991e-02
Small eigenvalue found = 2.283e-02
Small eigenvalue found = 2.671e-02
The first mode is                       ....  138
The number of degrees of freedom        ....  171

    -----------------------------------------------------------------
                    Redundant Internal Coordinates


    -----------------------------------------------------------------
         Definition                    Initial Value    Approx d2E/dq
    -----------------------------------------------------------------
      1. B(C   1,C   0)                  1.4042         0.593105   
      2. B(C   2,C   1)                  1.4215         0.556587   
      3. B(C   3,C   2)                  1.3955         0.612352   
      4. B(C   4,C   3)                  1.4174         0.564964   
      5. B(C   5,C   0)                  1.4165         0.566891   
      6. B(C   5,C   4)                  1.4312         0.536957   
      7. B(N   6,C   4)                  1.3289         0.700527   
      8. B(S   7,N   6)                  1.6039         0.687672   
      9. B(N   8,C   5)                  1.3312         0.694436   
     10. B(N   8,S   7)                  1.6104         0.671529   
     11. B(O   9,C   1)                  1.3569         0.632008   
     12. B(O  10,C   2)                  1.3842         0.571749   
     13. B(C  11,O  10)                  1.4170         0.506718   
     14. B(C  12,O   9)                  1.4185         0.504015   
     15. B(C  13,C   0)                  1.4344         0.530837   
     16. B(C  14,C   3)                  1.4361         0.527456   
     17. B(S  15,C  13)                  1.7335         0.476907   
     18. B(C  16,S  15)                  1.7446         0.457931   
     19. B(C  17,C  16)                  1.3862         0.633580   
     20. B(C  18,C  17)                  1.3878         0.629957   
     21. B(C  18,C  13)                  1.3869         0.632050   
     22. B(C  19,C  14)                  1.3887         0.627816   
     23. B(C  20,C  19)                  1.3820         0.643519   
     24. B(C  21,C  20)                  1.3943         0.615108   
     25. B(S  22,C  21)                  1.7407         0.464421   
     26. B(S  22,C  14)                  1.7330         0.477768   
     27. B(C  23,C  16)                  1.4103         0.579797   
     28. B(C  24,C  23)                  1.3579         0.702985   
     29. B(C  25,C  21)                  1.4093         0.582097   
     30. B(C  26,C  25)                  1.3619         0.692637   
     31. B(C  27,C  24)                  1.4619         0.479695   
     32. B(N  28,C  27)                  1.3870         0.565698   
     33. B(C  29,N  28)                  1.3553         0.635795   
     34. B(S  30,C  29)                  1.7611         0.430998   
     35. B(S  30,C  24)                  1.7484         0.451539   
     36. B(S  31,C  26)                  1.7568         0.437819   
     37. B(C  32,S  31)                  1.7557         0.439608   
     38. B(N  33,C  32)                  1.3578         0.629758   
     39. B(C  34,N  33)                  1.3845         0.571092   
     40. B(C  34,C  26)                  1.4525         0.496651   
     41. B(O  35,C  27)                  1.2107         1.081315   
     42. B(C  36,N  28)                  1.4419         0.462503   
     43. B(S  37,C  29)                  1.6304         0.696536   
     44. B(S  38,C  32)                  1.6309         0.695234   
     45. B(C  39,N  33)                  1.4421         0.462077   
     46. B(O  40,C  34)                  1.2160         1.060509   
     47. B(H  41,C  11)                  1.0942         0.354532   
     48. B(H  42,C  11)                  1.0951         0.353437   
     49. B(H  43,C  11)                  1.0883         0.362390   
     50. B(H  44,C  12)                  1.0914         0.358295   
     51. B(H  45,C  12)                  1.0902         0.359889   
     52. B(H  46,C  12)                  1.0916         0.357993   
     53. B(H  47,C  17)                  1.0749         0.380599   
     54. B(H  48,C  18)                  1.0724         0.384084   
     55. B(H  49,C  19)                  1.0741         0.381823   
     56. B(H  50,C  20)                  1.0759         0.379177   
     57. B(H  51,C  23)                  1.0841         0.368025   
     58. B(H  52,C  25)                  1.0847         0.367182   
     59. B(H  53,C  36)                  1.0889         0.361539   
     60. B(H  54,C  36)                  1.0905         0.359375   
     61. B(H  55,C  36)                  1.0906         0.359342   
     62. B(H  56,C  39)                  1.0905         0.359499   
     63. B(H  57,C  39)                  1.0906         0.359341   
     64. B(H  58,C  39)                  1.0889         0.361602   
     65. A(C   1,C   0,C   5)          115.9414         0.423765   
     66. A(C   1,C   0,C  13)          124.8486         0.418823   
     67. A(C   5,C   0,C  13)          119.2079         0.415466   
     68. A(C   0,C   1,O   9)          116.7883         0.429283   
     69. A(C   0,C   1,C   2)          121.6102         0.422378   
     70. A(C   2,C   1,O   9)          121.5692         0.424424   
     71. A(C   3,C   2,O  10)          119.3043         0.424065   
     72. A(C   1,C   2,O  10)          117.6070         0.416902   
     73. A(C   1,C   2,C   3)          123.0580         0.424797   
     74. A(C   2,C   3,C  14)          124.7104         0.420735   
     75. A(C   2,C   3,C   4)          115.7748         0.425934   
     76. A(C   4,C   3,C  14)          119.5074         0.414743   
     77. A(C   3,C   4,N   6)          126.5506         0.433493   
     78. A(C   5,C   4,N   6)          112.0253         0.429551   
     79. A(C   3,C   4,C   5)          121.4189         0.416062   
     80. A(C   0,C   5,N   8)          126.2442         0.433077   
     81. A(C   0,C   5,C   4)          121.9961         0.416314   
     82. A(C   4,C   5,N   8)          111.7477         0.428878   
     83. A(C   4,N   6,S   7)          109.2650         0.471752   
     84. A(N   6,S   7,N   8)           97.8375         0.495226   
     85. A(C   5,N   8,S   7)          109.1238         0.468948   
     86. A(C   1,O   9,C  12)          120.6128         0.414276   
     87. A(C   2,O  10,C  11)          112.9812         0.407367   
     88. A(O  10,C  11,H  43)          106.0898         0.339412   
     89. A(H  42,C  11,H  43)          109.6785         0.290277   
     90. A(O  10,C  11,H  42)          111.1970         0.337999   
     91. A(H  41,C  11,H  43)          109.5863         0.290418   
     92. A(H  41,C  11,H  42)          109.1026         0.289280   
     93. A(O  10,C  11,H  41)          111.1394         0.338173   
     94. A(H  44,C  12,H  45)          109.5846         0.290583   
     95. A(O   9,C  12,H  45)          111.6916         0.338718   
     96. A(H  45,C  12,H  46)          109.3343         0.290545   
     97. A(O   9,C  12,H  46)          111.5671         0.338419   
     98. A(H  44,C  12,H  46)          109.1814         0.290342   
     99. A(O   9,C  12,H  44)          105.3841         0.338467   
    100. A(S  15,C  13,C  18)          110.6526         0.438516   
    101. A(C   0,C  13,C  18)          129.6793         0.423605   
    102. A(C   0,C  13,S  15)          119.6678         0.424980   
    103. A(C   3,C  14,C  19)          128.3393         0.422613   
    104. A(C  19,C  14,S  22)          111.7202         0.438128   
    105. A(C   3,C  14,S  22)          119.9271         0.424631   
    106. A(C  13,S  15,C  16)           91.6482         0.436742   
    107. A(S  15,C  16,C  17)          110.6492         0.435509   
    108. A(C  17,C  16,C  23)          130.5090         0.430540   
    109. A(S  15,C  16,C  23)          118.8387         0.428621   
    110. A(C  18,C  17,H  47)          123.3461         0.357202   
    111. A(C  16,C  17,H  47)          123.4199         0.357551   
    112. A(C  16,C  17,C  18)          113.2335         0.437015   
    113. A(C  13,C  18,C  17)          113.8119         0.436825   
    114. A(C  17,C  18,H  48)          123.4485         0.357756   
    115. A(C  13,C  18,H  48)          122.7350         0.357958   
    116. A(C  20,C  19,H  49)          123.9865         0.358694   
    117. A(C  14,C  19,H  49)          123.2196         0.357190   
    118. A(C  14,C  19,C  20)          112.7782         0.437974   
    119. A(C  21,C  20,H  50)          122.4259         0.355532   
    120. A(C  19,C  20,H  50)          123.8982         0.358270   
    121. A(C  19,C  20,C  21)          113.6747         0.436363   
    122. A(S  22,C  21,C  25)          126.7289         0.430010   
    123. A(C  20,C  21,C  25)          122.5297         0.428565   
    124. A(C  20,C  21,S  22)          110.7345         0.434294   
    125. A(C  14,S  22,C  21)           91.0842         0.437994   
    126. A(C  16,C  23,H  51)          116.6525         0.350218   
    127. A(C  16,C  23,C  24)          128.6120         0.438671   
    128. A(C  24,C  23,H  51)          114.7354         0.361861   
    129. A(C  27,C  24,S  30)          110.3307         0.413327   
    130. A(C  23,C  24,S  30)          128.2101         0.442631   
    131. A(C  23,C  24,C  27)          121.4590         0.423988   
    132. A(C  26,C  25,H  52)          115.7139         0.360806   
    133. A(C  21,C  25,H  52)          114.1262         0.350317   
    134. A(C  21,C  25,C  26)          130.1581         0.437812   
    135. A(S  31,C  26,C  34)          110.1540         0.413612   
    136. A(C  25,C  26,C  34)          128.6903         0.425501   
    137. A(C  25,C  26,S  31)          121.1527         0.438993   
    138. A(N  28,C  27,O  35)          123.4421         0.466042   
    139. A(C  24,C  27,O  35)          126.4460         0.455242   
    140. A(C  24,C  27,N  28)          110.1119         0.405289   
    141. A(C  29,N  28,C  36)          121.4685         0.408441   
    142. A(C  27,N  28,C  36)          121.0980         0.400106   
    143. A(C  27,N  28,C  29)          117.4335         0.423340   
    144. A(S  30,C  29,S  37)          124.6002         0.462710   
    145. A(N  28,C  29,S  37)          125.0576         0.467177   
    146. A(N  28,C  29,S  30)          110.3422         0.428243   
    147. A(C  24,S  30,C  29)           91.7815         0.427787   
    148. A(C  26,S  31,C  32)           91.8493         0.426939   
    149. A(S  31,C  32,N  33)          110.0447         0.429030   
    150. A(N  33,C  32,S  38)          124.8083         0.466201   
    151. A(S  31,C  32,S  38)          125.1469         0.464227   
    152. A(C  32,N  33,C  34)          117.6876         0.423336   
    153. A(C  34,N  33,C  39)          121.0310         0.400710   
    154. A(C  32,N  33,C  39)          121.2815         0.407685   
    155. A(C  26,C  34,N  33)          110.2592         0.408471   
    156. A(N  33,C  34,O  40)          122.5152         0.465195   
    157. A(C  26,C  34,O  40)          127.2255         0.456513   
    158. A(H  54,C  36,H  55)          108.7544         0.290651   
    159. A(H  53,C  36,H  55)          110.3877         0.290925   
    160. A(N  28,C  36,H  55)          110.0246         0.333822   
    161. A(H  53,C  36,H  54)          110.3818         0.290930   
    162. A(N  28,C  36,H  54)          110.0672         0.333827   
    163. A(N  28,C  36,H  53)          107.2198         0.334160   
    164. A(H  57,C  39,H  58)          110.3940         0.290933   
    165. A(H  56,C  39,H  58)          110.4405         0.290953   
    166. A(N  33,C  39,H  58)          107.2901         0.334119   
    167. A(H  56,C  39,H  57)          108.7092         0.290667   
    168. A(N  33,C  39,H  57)          109.9755         0.333771   
    169. A(N  33,C  39,H  56)          110.0268         0.333795   
    170. D(O   9,C   1,C   0,C  13)     -0.7820         0.024221   
    171. D(O   9,C   1,C   0,C   5)    178.6787         0.024221   
    172. D(C   2,C   1,C   0,C  13)    177.1801         0.024221   
    173. D(C   2,C   1,C   0,C   5)     -3.3592         0.024221   
    174. D(C   3,C   2,C   1,O   9)   -176.5445         0.021210   
    175. D(O  10,C   2,C   1,C   0)   -172.3777         0.021210   
    176. D(O  10,C   2,C   1,O   9)      5.4871         0.021210   
    177. D(C   3,C   2,C   1,C   0)      5.5907         0.021210   
    178. D(C  14,C   3,C   2,O  10)     -4.5873         0.025909   
    179. D(C   4,C   3,C   2,C   1)     -3.5224         0.025909   
    180. D(C  14,C   3,C   2,C   1)    177.4772         0.025909   
    181. D(C   4,C   3,C   2,O  10)    174.4131         0.025909   
    182. D(C   5,C   4,C   3,C   2)     -0.2928         0.021879   
    183. D(N   6,C   4,C   3,C   2)   -179.3985         0.021879   
    184. D(N   6,C   4,C   3,C  14)     -0.3427         0.021879   
    185. D(C   5,C   4,C   3,C  14)    178.7630         0.021879   
    186. D(C   4,C   5,C   0,C   1)     -0.3883         0.022035   
    187. D(C   0,C   5,C   4,N   6)   -178.5130         0.019694   
    188. D(C   0,C   5,C   4,C   3)      2.2619         0.019694   
    189. D(N   8,C   5,C   0,C  13)      0.4681         0.022035   
    190. D(N   8,C   5,C   4,N   6)      0.3030         0.019694   
    191. D(N   8,C   5,C   4,C   3)   -178.9220         0.019694   
    192. D(N   8,C   5,C   0,C   1)   -179.0248         0.022035   
    193. D(C   4,C   5,C   0,C  13)    179.1046         0.022035   
    194. D(S   7,N   6,C   4,C   5)     -0.2596         0.036755   
    195. D(S   7,N   6,C   4,C   3)    178.9172         0.036755   
    196. D(N   8,S   7,N   6,C   4)      0.1308         0.008873   
    197. D(C   5,N   8,S   7,N   6)      0.0451         0.008507   
    198. D(S   7,N   8,C   5,C   4)     -0.1978         0.036058   
    199. D(S   7,N   8,C   5,C   0)    178.5572         0.036058   
    200. D(C  12,O   9,C   1,C   0)   -145.9805         0.029389   
    201. D(C  12,O   9,C   1,C   2)     36.0565         0.029389   
    202. D(C  11,O  10,C   2,C   3)    -87.2286         0.023736   
    203. D(C  11,O  10,C   2,C   1)     90.8188         0.023736   
    204. D(H  43,C  11,O  10,C   2)    179.1395         0.020317   
    205. D(H  42,C  11,O  10,C   2)    -61.6667         0.020317   
    206. D(H  41,C  11,O  10,C   2)     60.0882         0.020317   
    207. D(H  46,C  12,O   9,C   1)    -94.3851         0.020094   
    208. D(H  45,C  12,O   9,C   1)     28.3232         0.020094   
    209. D(H  44,C  12,O   9,C   1)    147.2438         0.020094   
    210. D(C  18,C  13,C   0,C   5)    174.0678         0.019236   
    211. D(C  18,C  13,C   0,C   1)     -6.4878         0.019236   
    212. D(S  15,C  13,C   0,C   5)     -5.7101         0.019236   
    213. D(S  15,C  13,C   0,C   1)    173.7343         0.019236   
    214. D(S  22,C  14,C   3,C   4)    -12.9642         0.018985   
    215. D(S  22,C  14,C   3,C   2)    166.0015         0.018985   
    216. D(C  19,C  14,C   3,C   4)    165.5863         0.018985   
    217. D(C  19,C  14,C   3,C   2)    -15.4480         0.018985   
    218. D(C  16,S  15,C  13,C  18)      0.6395         0.004856   
    219. D(C  16,S  15,C  13,C   0)   -179.5432         0.004856   
    220. D(C  23,C  16,S  15,C  13)   -179.9468         0.004582   
    221. D(C  17,C  16,S  15,C  13)     -0.5237         0.004582   
    222. D(H  47,C  17,C  16,C  23)     -0.1461         0.027853   
    223. D(H  47,C  17,C  16,S  15)   -179.4813         0.027853   
    224. D(C  18,C  17,C  16,C  23)    179.6123         0.027853   
    225. D(C  18,C  17,C  16,S  15)      0.2770         0.027853   
    226. D(C  13,C  18,C  17,H  47)    179.9738         0.027515   
    227. D(C  13,C  18,C  17,C  16)      0.2152         0.027515   
    228. D(H  48,C  18,C  13,S  15)    178.6393         0.027710   
    229. D(H  48,C  18,C  13,C   0)     -1.1545         0.027710   
    230. D(C  17,C  18,C  13,S  15)     -0.6082         0.027710   
    231. D(H  48,C  18,C  17,C  16)   -179.0261         0.027515   
    232. D(C  17,C  18,C  13,C   0)    179.5980         0.027710   
    233. D(H  48,C  18,C  17,H  47)      0.7324         0.027515   
    234. D(H  49,C  19,C  14,S  22)    177.9757         0.027317   
    235. D(H  49,C  19,C  14,C   3)     -0.6721         0.027317   
    236. D(C  20,C  19,C  14,S  22)     -0.6324         0.027317   
    237. D(C  20,C  19,C  14,C   3)   -179.2802         0.027317   
    238. D(H  50,C  20,C  19,H  49)      1.0371         0.028794   
    239. D(H  50,C  20,C  19,C  14)    179.6327         0.028794   
    240. D(C  21,C  20,C  19,H  49)   -178.5865         0.028794   
    241. D(C  21,C  20,C  19,C  14)      0.0091         0.028794   
    242. D(C  25,C  21,C  20,H  50)      0.0857         0.026156   
    243. D(C  25,C  21,C  20,C  19)    179.7155         0.026156   
    244. D(S  22,C  21,C  20,H  50)   -179.0185         0.026156   
    245. D(S  22,C  21,C  20,C  19)      0.6114         0.026156   
    246. D(C  14,S  22,C  21,C  25)   -179.8660         0.004674   
    247. D(C  14,S  22,C  21,C  20)     -0.8085         0.004674   
    248. D(C  21,S  22,C  14,C  19)      0.8234         0.004868   
    249. D(C  21,S  22,C  14,C   3)    179.5997         0.004868   
    250. D(H  51,C  23,C  16,C  17)   -179.2439         0.023095   
    251. D(H  51,C  23,C  16,S  15)      0.0459         0.023095   
    252. D(C  24,C  23,C  16,C  17)      0.6646         0.023095   
    253. D(C  24,C  23,C  16,S  15)    179.9545         0.023095   
    254. D(S  30,C  24,C  23,H  51)   -179.8577         0.034831   
    255. D(S  30,C  24,C  23,C  16)      0.2323         0.034831   
    256. D(C  27,C  24,C  23,H  51)      0.3065         0.034831   
    257. D(C  27,C  24,C  23,C  16)   -179.6036         0.034831   
    258. D(H  52,C  25,C  21,S  22)   -179.6337         0.023287   
    259. D(H  52,C  25,C  21,C  20)      1.4117         0.023287   
    260. D(C  26,C  25,C  21,S  22)      0.8832         0.023287   
    261. D(C  26,C  25,C  21,C  20)   -178.0714         0.023287   
    262. D(C  34,C  26,C  25,H  52)   -179.6889         0.033729   
    263. D(C  34,C  26,C  25,C  21)     -0.2125         0.033729   
    264. D(S  31,C  26,C  25,H  52)     -0.3819         0.033729   
    265. D(S  31,C  26,C  25,C  21)    179.0945         0.033729   
    266. D(O  35,C  27,C  24,S  30)    179.9317         0.015667   
    267. D(O  35,C  27,C  24,C  23)     -0.2058         0.015667   
    268. D(N  28,C  27,C  24,S  30)     -0.1407         0.015667   
    269. D(N  28,C  27,C  24,C  23)    179.7217         0.015667   
    270. D(C  36,N  28,C  27,O  35)      0.1686         0.025588   
    271. D(C  36,N  28,C  27,C  24)   -179.7615         0.025588   
    272. D(C  29,N  28,C  27,O  35)   -179.8955         0.025588   
    273. D(C  29,N  28,C  27,C  24)      0.1743         0.025588   
    274. D(S  37,C  29,N  28,C  36)     -0.1670         0.032866   
    275. D(S  37,C  29,N  28,C  27)    179.8974         0.032866   
    276. D(S  30,C  29,N  28,C  36)    179.8107         0.032866   
    277. D(S  30,C  29,N  28,C  27)     -0.1249         0.032866   
    278. D(C  24,S  30,C  29,S  37)   -179.9940         0.004216   
    279. D(C  24,S  30,C  29,N  28)      0.0282         0.004216   
    280. D(C  29,S  30,C  24,C  27)      0.0650         0.004493   
    281. D(C  29,S  30,C  24,C  23)   -179.7857         0.004493   
    282. D(C  32,S  31,C  26,C  34)      0.5819         0.004307   
    283. D(C  32,S  31,C  26,C  25)   -178.8419         0.004307   
    284. D(S  38,C  32,S  31,C  26)    179.8368         0.004330   
    285. D(N  33,C  32,S  31,C  26)     -0.2469         0.004330   
    286. D(C  39,N  33,C  32,S  38)     -0.2407         0.032194   
    287. D(C  39,N  33,C  32,S  31)    179.8427         0.032194   
    288. D(C  34,N  33,C  32,S  38)    179.7327         0.032194   
    289. D(C  34,N  33,C  32,S  31)     -0.1840         0.032194   
    290. D(C  26,C  34,N  33,C  39)   -179.3973         0.026108   
    291. D(C  26,C  34,N  33,C  32)      0.6293         0.026108   
    292. D(O  40,C  34,C  26,S  31)    179.0955         0.016799   
    293. D(O  40,C  34,C  26,C  25)     -1.5363         0.016799   
    294. D(N  33,C  34,C  26,S  31)     -0.7706         0.016799   
    295. D(O  40,C  34,N  33,C  32)   -179.2442         0.026108   
    296. D(N  33,C  34,C  26,C  25)    178.5977         0.016799   
    297. D(O  40,C  34,N  33,C  39)      0.7292         0.026108   
    298. D(H  55,C  36,N  28,C  29)    -59.7498         0.018264   
    299. D(H  55,C  36,N  28,C  27)    120.1834         0.018264   
    300. D(H  54,C  36,N  28,C  29)     60.0819         0.018264   
    301. D(H  54,C  36,N  28,C  27)   -119.9849         0.018264   
    302. D(H  53,C  36,N  28,C  29)   -179.8254         0.018264   
    303. D(H  53,C  36,N  28,C  27)      0.1078         0.018264   
    304. D(H  58,C  39,N  33,C  34)     -0.5944         0.018230   
    305. D(H  58,C  39,N  33,C  32)    179.3781         0.018230   
    306. D(H  57,C  39,N  33,C  34)    119.5031         0.018230   
    307. D(H  57,C  39,N  33,C  32)    -60.5244         0.018230   
    308. D(H  56,C  39,N  33,C  34)   -120.7773         0.018230   
    309. D(H  56,C  39,N  33,C  32)     59.1951         0.018230   
    -----------------------------------------------------------------

Number of atoms                         .... 59
Number of degrees of freedom            .... 309

         *************************************************************
         *                GEOMETRY OPTIMIZATION CYCLE   1            *
         *************************************************************
---------------------------------
CARTESIAN COORDINATES (ANGSTROEM)
---------------------------------
  C      1.066220    1.918890   -0.017970
  C      2.289480    1.241580   -0.146730
  C      2.357380   -0.178220   -0.158100
  C      1.225520   -0.994460   -0.157920
  C     -0.019070   -0.322310   -0.067160
  C     -0.091710    1.104150    0.024430
  N     -1.222350   -0.885460   -0.038160
  S     -2.338680    0.258100    0.098110
  N     -1.349550    1.528630    0.123630
  O      3.407780    2.006820   -0.216910
  O      3.612640   -0.760620   -0.126320
  C      4.067820   -1.022610    1.189780
  C      4.510870    1.602690   -1.011860
  C      0.922590    3.343940    0.059480
  C      1.251760   -2.428930   -0.221130
  S     -0.661380    4.048290    0.053120
  C     -0.000130    5.659720    0.151070
  C      1.384670    5.617890    0.197210
  C      1.895330    4.328410    0.148760
  C      2.307540   -3.256170   -0.580930
  C      1.973180   -4.596600   -0.545260
  C      0.655020   -4.834700   -0.158340
  S     -0.177390   -3.336940    0.148270
  C     -0.885110    6.757360    0.183880
  C     -0.591140    8.080940    0.258850
  C      0.115480   -6.133230   -0.064760
  C     -1.143450   -6.540070    0.258440
  C     -1.643210    9.095500    0.291730
  N     -1.082550   10.361440    0.375150
  C      0.269780   10.444560    0.406730
  S      0.983870    8.836460    0.332670
  S     -1.570230   -8.244100    0.280780
  C     -3.230740   -7.880870    0.720360
  N     -3.398480   -6.538420    0.836290
  C     -2.298010   -5.730400    0.606480
  O     -2.836690    8.895470    0.254780
  C     -1.910580   11.540690    0.427450
  S      1.120840   11.832060    0.500460
  S     -4.403060   -8.989530    0.957940
  C     -4.677080   -5.971070    1.187030
  O     -2.345880   -4.518910    0.699250
  H      3.391130   -1.705160    1.712830
  H      4.161030   -0.097340    1.768050
  H      5.045590   -1.488480    1.083610
  H      4.957440    2.528230   -1.379330
  H      4.195870    0.988710   -1.855810
  H      5.250590    1.056390   -0.423680
  H      2.001470    6.495430    0.267600
  H      2.943660    4.105880    0.189120
  H      3.271070   -2.885400   -0.877130
  H      2.653460   -5.391630   -0.795880
  H     -1.944270    6.529360    0.146280
  H      0.820890   -6.924160   -0.295840
  H     -2.947010   11.208720    0.390800
  H     -1.689810   12.190810   -0.419840
  H     -1.720040   12.090170    1.350010
  H     -5.001960   -6.352710    2.155480
  H     -5.422150   -6.239720    0.437330
  H     -4.551540   -4.890200    1.226910

----------------------------
CARTESIAN COORDINATES (A.U.)
----------------------------
  NO LB      ZA    FRAG     MASS         X           Y           Z
   0 C     6.0000    0    12.011    2.014864    3.626177   -0.033958
   1 C     6.0000    0    12.011    4.326490    2.346246   -0.277280
   2 C     6.0000    0    12.011    4.454803   -0.336787   -0.298766
   3 C     6.0000    0    12.011    2.315897   -1.879257   -0.298426
   4 C     6.0000    0    12.011   -0.036037   -0.609078   -0.126914
   5 C     6.0000    0    12.011   -0.173307    2.086541    0.046166
   6 N     7.0000    0    14.007   -2.309907   -1.673277   -0.072112
   7 S    16.0000    0    32.060   -4.419465    0.487738    0.185401
   8 N     7.0000    0    14.007   -2.550280    2.888692    0.233627
   9 O     8.0000    0    15.999    6.439771    3.792340   -0.409900
  10 O     8.0000    0    15.999    6.826900   -1.437363   -0.238710
  11 C     6.0000    0    12.011    7.687066   -1.932453    2.248358
  12 C     6.0000    0    12.011    8.524309    3.028645   -1.912138
  13 C     6.0000    0    12.011    1.743442    6.319131    0.112401
  14 C     6.0000    0    12.011    2.365484   -4.590012   -0.417875
  15 S    16.0000    0    32.060   -1.249827    7.650159    0.100382
  16 C     6.0000    0    12.011   -0.000246   10.695321    0.285481
  17 C     6.0000    0    12.011    2.616647   10.616274    0.372673
  18 C     6.0000    0    12.011    3.581655    8.179509    0.281116
  19 C     6.0000    0    12.011    4.360619   -6.153270   -1.097799
  20 C     6.0000    0    12.011    3.728770   -8.686315   -1.030392
  21 C     6.0000    0    12.011    1.237808   -9.136259   -0.299219
  22 S    16.0000    0    32.060   -0.335219   -6.305903    0.280190
  23 C     6.0000    0    12.011   -1.672615   12.769560    0.347483
  24 C     6.0000    0    12.011   -1.117093   15.270764    0.489156
  25 C     6.0000    0    12.011    0.218226  -11.590125   -0.122379
  26 C     6.0000    0    12.011   -2.160807  -12.358941    0.488381
  27 C     6.0000    0    12.011   -3.105217   17.188004    0.551290
  28 N     7.0000    0    14.007   -2.045723   19.580284    0.708931
  29 C     6.0000    0    12.011    0.509810   19.737358    0.768608
  30 S    16.0000    0    32.060    1.859245   16.698489    0.628655
  31 S    16.0000    0    32.060   -2.967305  -15.579091    0.530597
  32 C     6.0000    0    12.011   -6.105214  -14.892686    1.361283
  33 N     7.0000    0    14.007   -6.422196  -12.355823    1.580359
  34 C     6.0000    0    12.011   -4.342610  -10.828887    1.146081
  35 O     8.0000    0    15.999   -5.360567   16.810002    0.481464
  36 C     6.0000    0    12.011   -3.610473   21.808743    0.807763
  37 S    16.0000    0    32.060    2.118081   22.359353    0.945732
  38 S    16.0000    0    32.060   -8.320578  -16.987750    1.810244
  39 C     6.0000    0    12.011   -8.838400  -11.283687    2.243162
  40 O     8.0000    0    15.999   -4.433071   -8.539502    1.321391
  41 H     1.0000    0     1.008    6.408307   -3.222285    3.236780
  42 H     1.0000    0     1.008    7.863207   -0.183946    3.341130
  43 H     1.0000    0     1.008    9.534783   -2.812820    2.047726
  44 H     1.0000    0     1.008    9.368204    4.777662   -2.606556
  45 H     1.0000    0     1.008    7.929045    1.868391   -3.506973
  46 H     1.0000    0     1.008    9.922177    1.996288   -0.800639
  47 H     1.0000    0     1.008    3.782230   12.274584    0.505691
  48 H     1.0000    0     1.008    5.562711    7.758989    0.357385
  49 H     1.0000    0     1.008    6.181426   -5.452616   -1.657535
  50 H     1.0000    0     1.008    5.014313  -10.188704   -1.503995
  51 H     1.0000    0     1.008   -3.674138   12.338702    0.276429
  52 H     1.0000    0     1.008    1.551257  -13.084766   -0.559057
  53 H     1.0000    0     1.008   -5.569042   21.181411    0.738505
  54 H     1.0000    0     1.008   -3.193278   23.037292   -0.793383
  55 H     1.0000    0     1.008   -3.250405   22.847110    2.551149
  56 H     1.0000    0     1.008   -9.452335  -12.004882    4.073267
  57 H     1.0000    0     1.008  -10.246379  -11.791362    0.826434
  58 H     1.0000    0     1.008   -8.601164   -9.241139    2.318524

--------------------------------
INTERNAL COORDINATES (ANGSTROEM)
--------------------------------
 C      0   0   0     0.000000000000     0.00000000     0.00000000
 C      1   0   0     1.404169861983     0.00000000     0.00000000
 C      2   1   0     1.421468158947   121.61015400     0.00000000
 C      3   2   1     1.395476560032   123.05795979     5.59066047
 C      4   3   2     1.417401590305   115.77479731   356.47763313
 C      1   2   3     1.416474818873   115.94135330   356.64081837
 N      5   4   3     1.328857283872   126.55064044   180.60150801
 S      7   5   4     1.603898891888   109.26499311   178.91719267
 N      6   1   2     1.331234530802   126.24422993   180.97518932
 O      2   1   3     1.356875963381   116.78832385   182.03784502
 O      3   2   1     1.384152230067   117.60704098   187.62227212
 C     11   3   2     1.417020395936   112.98123994    90.81884488
 C     10   2   1     1.418475980586   120.61275367   214.01953103
 C      1   2   3     1.434362430455   124.84859425   177.18010969
 C      4   3   2     1.436101745212   124.71035917   177.47722013
 S     14   1   2     1.733525405929   119.66783187   173.73434202
 C     16  14   1     1.744578003386    91.64823548   180.45680140
 C     17  16  14     1.386199728935   110.64915691   359.47627693
 C     14   1   2     1.386858034155   129.67925177   353.51221607
 C     15   4   3     1.388687677629   128.33933779   344.55203657
 C     20  15   4     1.381962931268   112.77816439   180.71984270
 C     21  20  15     1.394254095206   113.67473093     0.00000000
 S     15   4   3     1.733034403178   119.92707231   166.00153209
 C     17  16  14     1.410347356540   118.83866176   180.05324206
 C     24  17  16     1.357903854549   128.61204734   179.95451181
 C     22  21  20     1.409269594116   122.52969796   179.71549219
 C     26  22  21     1.361940443081   130.15813596   181.92860587
 C     25  24  17     1.461938566733   121.45904342   180.39642563
 N     28  25  24     1.387048166287   110.11189682   179.72173740
 C     29  28  25     1.355250035861   117.43345958     0.17431244
 S     25  24  17     1.748403947290   128.21007033     0.23231342
 S     27  26  22     1.756803484998   121.15271614   179.09448455
 C     32  27  26     1.755693614900    91.84933002   181.15810334
 N     33  32  27     1.357846999849   110.04474177   359.75311648
 C     34  33  32     1.384464942640   117.68757715   359.81600547
 O     28  25  24     1.210690635051   126.44595187   359.79418466
 C     29  28  25     1.441873619080   121.09797353   180.23848367
 S     30  29  28     1.630412428344   125.05760072   179.89740215
 S     33  32  27     1.630921651828   125.14688876   179.83680752
 C     34  33  32     1.442124311597   121.28146099   179.84267029
 O     35  34  33     1.215979370672   122.51515809   180.75579663
 H     12  11   3     1.094241820212   111.13937084    60.08815688
 H     12  11   3     1.095083955640   111.19698156   298.33328864
 H     12  11   3     1.088274367382   106.08976917   179.13954946
 H     13  10   2     1.091367608737   105.38414270   147.24381284
 H     13  10   2     1.090159641016   111.69158190    28.32322084
 H     13  10   2     1.091597490287   111.56714786   265.61491275
 H     18  17  16     1.074929506386   123.41988833   180.51866082
 H     19  14   1     1.072447816633   122.73500715   358.84551545
 H     20  15   4     1.074055349505   123.21961049   359.32786790
 H     21  20  15     1.075947937263   123.89821624   179.63268759
 H     24  17  16     1.084074566439   116.65245303     0.04594726
 H     26  22  21     1.084698805844   114.12617975     1.41168318
 H     37  29  28     1.088914343877   107.21980230     0.10781002
 H     37  29  28     1.090548371875   110.06720663   240.01508197
 H     37  29  28     1.090573571842   110.02463116   120.18341663
 H     40  34  33     1.090454724645   110.02680263    59.19510137
 H     40  34  33     1.090574260378   109.97550551   299.47558263
 H     40  34  33     1.088866687386   107.29012172   179.37805444

---------------------------
INTERNAL COORDINATES (A.U.)
---------------------------
 C      0   0   0     0.000000000000     0.00000000     0.00000000
 C      1   0   0     2.653496484653     0.00000000     0.00000000
 C      2   1   0     2.686185528499   121.61015400     0.00000000
 C      3   2   1     2.637068524768   123.05795979     5.59066047
 C      4   3   2     2.678500827461   115.77479731   356.47763313
 C      1   2   3     2.676749483265   115.94135330   356.64081837
 N      5   4   3     2.511176337585   126.55064044   180.60150801
 S      7   5   4     3.030929652168   109.26499311   178.91719267
 N      6   1   2     2.515668683235   126.24422993   180.97518932
 O      2   1   3     2.564123968490   116.78832385   182.03784502
 O      3   2   1     2.615668642483   117.60704098   187.62227212
 C     11   3   2     2.677780474501   112.98123994    90.81884488
 C     10   2   1     2.680531130853   120.61275367   214.01953103
 C      1   2   3     2.710552170345   124.84859425   177.18010969
 C      4   3   2     2.713838998896   124.71035917   177.47722013
 S     14   1   2     3.275888263400   119.66783187   173.73434202
 C     16  14   1     3.296774645664    91.64823548   180.45680140
 C     17  16  14     2.619537854603   110.64915691   359.47627693
 C     14   1   2     2.620781871181   129.67925177   353.51221607
 C     15   4   3     2.624239396271   128.33933779   344.55203657
 C     20  15   4     2.611531467328   112.77816439   180.71984270
 C     21  20  15     2.634758401038   113.67473093     0.00000000
 S     15   4   3     3.274960402671   119.92707231   166.00153209
 C     17  16  14     2.665170257561   118.83866176   180.05324206
 C     24  17  16     2.566066401294   128.61204734   179.95451181
 C     22  21  20     2.663133581742   122.52969796   179.71549219
 C     26  22  21     2.573694448135   130.15813596   181.92860587
 C     25  24  17     2.762663515742   121.45904342   180.39642563
 N     28  25  24     2.621141168840   110.11189682   179.72173740
 C     29  28  25     2.561051410763   117.43345958     0.17431244
 S     25  24  17     3.304004631845   128.21007033     0.23231342
 S     27  26  22     3.319877457764   121.15271614   179.09448455
 C     32  27  26     3.317780107235    91.84933002   181.15810334
 N     33  32  27     2.565958961482   110.04474177   359.75311648
 C     34  33  32     2.616259583605   117.68757715   359.81600547
 O     28  25  24     2.287873733149   126.44595187   359.79418466
 C     29  28  25     2.724746259788   121.09797353   180.23848367
 S     30  29  28     3.081032974912   125.05760072   179.89740215
 S     33  32  27     3.081995267837   125.14688876   179.83680752
 C     34  33  32     2.725219999989   121.28146099   179.84267029
 O     35  34  33     2.297867995068   122.51515809   180.75579663
 H     12  11   3     2.067817364483   111.13937084    60.08815688
 H     12  11   3     2.069408769811   111.19698156   298.33328864
 H     12  11   3     2.056540512918   106.08976917   179.13954946
 H     13  10   2     2.062385891945   105.38414270   147.24381284
 H     13  10   2     2.060103163774   111.69158190    28.32322084
 H     13  10   2     2.062820305117   111.56714786   265.61491275
 H     18  17  16     2.031322380341   123.41988833   180.51866082
 H     19  14   1     2.026632666357   122.73500715   358.84551545
 H     20  15   4     2.029670463237   123.21961049   359.32786790
 H     21  20  15     2.033246935784   123.89821624   179.63268759
 H     24  17  16     2.048604039319   116.65245303     0.04594726
 H     26  22  21     2.049783680837   114.12617975     1.41168318
 H     37  29  28     2.057749893225   107.21980230     0.10781002
 H     37  29  28     2.060837758638   110.06720663   240.01508197
 H     37  29  28     2.060885379673   110.02463116   120.18341663
 H     40  34  33     2.060660791019   110.02680263    59.19510137
 H     40  34  33     2.060886680819   109.97550551   299.47558263
 H     40  34  33     2.057659835510   107.29012172   179.37805444

---------------------
BASIS SET INFORMATION
---------------------
There are 5 groups of distinct atoms

 Group   1 Type C   : 7s4p1d contracted to 3s2p1d pattern {511/31/1}
 Group   2 Type N   : 7s4p1d contracted to 3s2p1d pattern {511/31/1}
 Group   3 Type S   : 10s7p1d contracted to 4s3p1d pattern {5311/511/1}
 Group   4 Type O   : 7s4p1d contracted to 3s2p1d pattern {511/31/1}
 Group   5 Type H   : 4s1p contracted to 2s1p pattern {31/1}

Atom   0C    basis set group =>   1
Atom   1C    basis set group =>   1
Atom   2C    basis set group =>   1
Atom   3C    basis set group =>   1
Atom   4C    basis set group =>   1
Atom   5C    basis set group =>   1
Atom   6N    basis set group =>   2
Atom   7S    basis set group =>   3
Atom   8N    basis set group =>   2
Atom   9O    basis set group =>   4
Atom  10O    basis set group =>   4
Atom  11C    basis set group =>   1
Atom  12C    basis set group =>   1
Atom  13C    basis set group =>   1
Atom  14C    basis set group =>   1
Atom  15S    basis set group =>   3
Atom  16C    basis set group =>   1
Atom  17C    basis set group =>   1
Atom  18C    basis set group =>   1
Atom  19C    basis set group =>   1
Atom  20C    basis set group =>   1
Atom  21C    basis set group =>   1
Atom  22S    basis set group =>   3
Atom  23C    basis set group =>   1
Atom  24C    basis set group =>   1
Atom  25C    basis set group =>   1
Atom  26C    basis set group =>   1
Atom  27C    basis set group =>   1
Atom  28N    basis set group =>   2
Atom  29C    basis set group =>   1
Atom  30S    basis set group =>   3
Atom  31S    basis set group =>   3
Atom  32C    basis set group =>   1
Atom  33N    basis set group =>   2
Atom  34C    basis set group =>   1
Atom  35O    basis set group =>   4
Atom  36C    basis set group =>   1
Atom  37S    basis set group =>   3
Atom  38S    basis set group =>   3
Atom  39C    basis set group =>   1
Atom  40O    basis set group =>   4
Atom  41H    basis set group =>   5
Atom  42H    basis set group =>   5
Atom  43H    basis set group =>   5
Atom  44H    basis set group =>   5
Atom  45H    basis set group =>   5
Atom  46H    basis set group =>   5
Atom  47H    basis set group =>   5
Atom  48H    basis set group =>   5
Atom  49H    basis set group =>   5
Atom  50H    basis set group =>   5
Atom  51H    basis set group =>   5
Atom  52H    basis set group =>   5
Atom  53H    basis set group =>   5
Atom  54H    basis set group =>   5
Atom  55H    basis set group =>   5
Atom  56H    basis set group =>   5
Atom  57H    basis set group =>   5
Atom  58H    basis set group =>   5
---------------------------------
AUXILIARY/J BASIS SET INFORMATION
---------------------------------
There are 5 groups of distinct atoms

 Group   1 Type C   : 12s5p4d2f1g contracted to 6s4p3d1f1g pattern {711111/2111/211/2/1}
 Group   2 Type N   : 12s5p4d2f1g contracted to 6s4p3d1f1g pattern {711111/2111/211/2/1}
 Group   3 Type S   : 14s5p5d2f1g contracted to 8s4p3d1f1g pattern {71111111/2111/311/2/1}
 Group   4 Type O   : 12s5p4d2f1g contracted to 6s4p3d1f1g pattern {711111/2111/211/2/1}
 Group   5 Type H   : 5s2p1d contracted to 3s1p1d pattern {311/2/1}

Atom   0C    basis set group =>   1
Atom   1C    basis set group =>   1
Atom   2C    basis set group =>   1
Atom   3C    basis set group =>   1
Atom   4C    basis set group =>   1
Atom   5C    basis set group =>   1
Atom   6N    basis set group =>   2
Atom   7S    basis set group =>   3
Atom   8N    basis set group =>   2
Atom   9O    basis set group =>   4
Atom  10O    basis set group =>   4
Atom  11C    basis set group =>   1
Atom  12C    basis set group =>   1
Atom  13C    basis set group =>   1
Atom  14C    basis set group =>   1
Atom  15S    basis set group =>   3
Atom  16C    basis set group =>   1
Atom  17C    basis set group =>   1
Atom  18C    basis set group =>   1
Atom  19C    basis set group =>   1
Atom  20C    basis set group =>   1
Atom  21C    basis set group =>   1
Atom  22S    basis set group =>   3
Atom  23C    basis set group =>   1
Atom  24C    basis set group =>   1
Atom  25C    basis set group =>   1
Atom  26C    basis set group =>   1
Atom  27C    basis set group =>   1
Atom  28N    basis set group =>   2
Atom  29C    basis set group =>   1
Atom  30S    basis set group =>   3
Atom  31S    basis set group =>   3
Atom  32C    basis set group =>   1
Atom  33N    basis set group =>   2
Atom  34C    basis set group =>   1
Atom  35O    basis set group =>   4
Atom  36C    basis set group =>   1
Atom  37S    basis set group =>   3
Atom  38S    basis set group =>   3
Atom  39C    basis set group =>   1
Atom  40O    basis set group =>   4
Atom  41H    basis set group =>   5
Atom  42H    basis set group =>   5
Atom  43H    basis set group =>   5
Atom  44H    basis set group =>   5
Atom  45H    basis set group =>   5
Atom  46H    basis set group =>   5
Atom  47H    basis set group =>   5
Atom  48H    basis set group =>   5
Atom  49H    basis set group =>   5
Atom  50H    basis set group =>   5
Atom  51H    basis set group =>   5
Atom  52H    basis set group =>   5
Atom  53H    basis set group =>   5
Atom  54H    basis set group =>   5
Atom  55H    basis set group =>   5
Atom  56H    basis set group =>   5
Atom  57H    basis set group =>   5
Atom  58H    basis set group =>   5
------------------------------------------------------------------------------
                           ORCA GTO INTEGRAL CALCULATION
                           -- RI-GTO INTEGRALS CHOSEN --
------------------------------------------------------------------------------

                         BASIS SET STATISTICS AND STARTUP INFO

Gaussian basis set:
 # of primitive gaussian shells          ...  624
 # of primitive gaussian functions       ... 1194
 # of contracted shells                  ...  314
 # of contracted basis functions         ...  692
 Highest angular momentum                ...    2
 Maximum contraction depth               ...    5
Auxiliary gaussian basis set:
 # of primitive gaussian shells          ... 1149
 # of primitive gaussian functions       ... 3207
 # of contracted shells                  ...  719
 # of contracted aux-basis functions     ... 2221
 Highest angular momentum                ...    4
 Maximum contraction depth               ...    7
Ratio of auxiliary to basis functions    ...  3.21
Integral package used                  ... LIBINT
 One Electron integrals                  ... done
 Ordering auxiliary basis shells         ... done
 Integral threshhold             Thresh  ...  2.500e-11
 Primitive cut-off               TCut    ...  2.500e-12
 Pre-screening matrix                    ... done
 Shell pair data                         ... 
 Ordering of the shell pairs             ... done (   0.004 sec) 21989 of 49455 pairs
 Determination of significant pairs      ... done (   0.000 sec)
 Creation of shell pair data             ... done (   0.003 sec)
 Storage of shell pair data              ... done (   0.004 sec)
 Shell pair data done in (   0.011 sec)
 Computing two index integrals           ... done
 Cholesky decomposition of the V-matrix  ... done


Timings:
 Total evaluation time                   ...   0.721 sec (  0.012 min)
 One electron matrix time                ...   0.178 sec (  0.003 min) = 24.7%
 Schwartz matrix evaluation time         ...   0.305 sec (  0.005 min) = 42.4%
 Two index repulsion integral time       ...   0.104 sec (  0.002 min) = 14.4%
 Cholesky decomposition of V             ...   0.105 sec (  0.002 min) = 14.6%
 Three index repulsion integral time     ...   0.000 sec (  0.000 min) =  0.0%

-------------------------------------------------------------------------------
                                 ORCA SCF
-------------------------------------------------------------------------------

------------
SCF SETTINGS
------------
Hamiltonian:
 Density Functional     Method          .... DFT(GTOs)
 Exchange Functional    Exchange        .... B88
   X-Alpha parameter    XAlpha          ....  0.666667
   Becke's b parameter  XBeta           ....  0.004200
 Correlation Functional Correlation     .... LYP
 LDA part of GGA corr.  LDAOpt          .... VWN-3
 Gradients option       PostSCFGGA      .... off
 Hybrid DFT is turned on
   Fraction HF Exchange ScalHFX         ....  0.200000
   Scaling of DF-GGA-X  ScalDFX         ....  0.720000
   Scaling of DF-GGA-C  ScalDFC         ....  0.810000
   Scaling of DF-LDA-C  ScalLDAC        ....  1.000000
   Perturbative correction              ....  0.000000
   Density functional embedding theory  .... OFF
   NL short-range parameter             ....  4.800000
 RI-approximation to the Coulomb term is turned on
   Number of auxiliary basis functions  .... 2221
   RIJ-COSX (HFX calculated with COS-X)).... on


General Settings:
 Integral files         IntName         .... BTDT2R
 Hartree-Fock type      HFTyp           .... RHF
 Total Charge           Charge          ....    0
 Multiplicity           Mult            ....    1
 Number of Electrons    NEL             ....  346
 Basis Dimension        Dim             ....  692
 Nuclear Repulsion      ENuc            ....   5679.0847895488 Eh

Convergence Acceleration:
 DIIS                   CNVDIIS         .... on
   Start iteration      DIISMaxIt       ....    12
   Startup error        DIISStart       ....  0.200000
   # of expansion vecs  DIISMaxEq       ....     5
   Bias factor          DIISBfac        ....   1.050
   Max. coefficient     DIISMaxC        ....  10.000
 Newton-Raphson         CNVNR           .... off
 SOSCF                  CNVSOSCF        .... on
   Start iteration      SOSCFMaxIt      ....   150
   Startup grad/error   SOSCFStart      ....  0.003300
 Level Shifting         CNVShift        .... on
   Level shift para.    LevelShift      ....    0.2500
   Turn off err/grad.   ShiftErr        ....    0.0010
 Zerner damping         CNVZerner       .... off
 Static damping         CNVDamp         .... on
   Fraction old density DampFac         ....    0.7000
   Max. Damping (<1)    DampMax         ....    0.9800
   Min. Damping (>=0)   DampMin         ....    0.0000
   Turn off err/grad.   DampErr         ....    0.1000
 Fernandez-Rico         CNVRico         .... off

SCF Procedure:
 Maximum # iterations   MaxIter         ....   125
 SCF integral mode      SCFMode         .... Direct
   Integral package                     .... LIBINT
 Reset frequency        DirectResetFreq ....    20
 Integral Threshold     Thresh          ....  2.500e-11 Eh
 Primitive CutOff       TCut            ....  2.500e-12 Eh

Convergence Tolerance:
 Convergence Check Mode ConvCheckMode   .... Total+1el-Energy
 Convergence forced     ConvForced      .... 0
 Energy Change          TolE            ....  1.000e-08 Eh
 1-El. energy change                    ....  1.000e-05 Eh
 Orbital Gradient       TolG            ....  1.000e-05
 Orbital Rotation angle TolX            ....  1.000e-05
 DIIS Error             TolErr          ....  5.000e-07


Diagonalization of the overlap matrix:
Smallest eigenvalue                        ... 1.189e-04
Time for diagonalization                   ...    0.073 sec
Threshold for overlap eigenvalues          ... 1.000e-08
Number of eigenvalues below threshold      ... 0
Time for construction of square roots      ...    0.030 sec
Total time needed                          ...    0.104 sec

-------------------
DFT GRID GENERATION
-------------------

General Integration Accuracy     IntAcc      ...  4.340
Radial Grid Type                 RadialGrid  ... Gauss-Chebyshev
Angular Grid (max. acc.)         AngularGrid ... Lebedev-110
Angular grid pruning method      GridPruning ... 3 (G Style)
Weight generation scheme         WeightScheme... Becke
Basis function cutoff            BFCut       ...    1.0000e-11
Integration weight cutoff        WCut        ...    1.0000e-14
Grids for H and He will be reduced by one unit

# of grid points (after initial pruning)     ...  83662 (   0.1 sec)
# of grid points (after weights+screening)   ...  74819 (   1.0 sec)
nearest neighbour list constructed           ...    0.0 sec
Grid point re-assignment to atoms done       ...    0.0 sec
Grid point division into batches done        ...    0.1 sec
Reduced shell lists constructed in    1.0 sec

Total number of grid points                  ...    74819
Total number of batches                      ...     1197
Average number of points per batch           ...       62
Average number of grid points per atom       ...     1268
Average number of shells per batch           ...    87.90 (27.99%)
Average number of basis functions per batch  ...   186.28 (26.92%)
Average number of large shells per batch     ...    56.09 (63.81%)
Average number of large basis fcns per batch ...   120.06 (64.45%)
Maximum spatial batch extension              ...  21.66, 21.70, 22.17 au
Average spatial batch extension              ...   3.34,  3.08,  3.96 au

Time for grid setup =    2.060 sec

------------------------------
INITIAL GUESS: MODEL POTENTIAL
------------------------------
Loading Hartree-Fock densities                     ... done
Calculating cut-offs                               ... done
Setting up the integral package                    ... done
Initializing the effective Hamiltonian             ... done
Starting the Coulomb interaction                   ... done (   2.5 sec)
Reading the grid                                   ... done
Mapping shells                                     ... done
Starting the XC term evaluation                    ... done (   1.1 sec)
  promolecular density results
     # of electrons  =    345.992867954
     EX              =   -373.641589659
     EC              =    -12.790619313
     EX+EC           =   -386.432208972
Transforming the Hamiltonian                       ... done (   0.0 sec)
Diagonalizing the Hamiltonian                      ... done (   0.1 sec)
Back transforming the eigenvectors                 ... done (   0.0 sec)
Now organizing SCF variables                       ... done
                      ------------------
                      INITIAL GUESS DONE (   5.9 sec)
                      ------------------
--------------------
COSX GRID GENERATION
--------------------

General Integration Accuracy     IntAcc      ...  3.340
Radial Grid Type                 RadialGrid  ... Gauss-Chebyshev
Angular Grid (max. acc.)         AngularGrid ... Lebedev-50
Angular grid pruning method      GridPruning ... 3 (G Style)
Weight generation scheme         WeightScheme... Becke
Basis function cutoff            BFCut       ...    1.0000e-11
Integration weight cutoff        WCut        ...    1.0000e-14
Grids for H and He will be reduced by one unit

# of grid points (after initial pruning)     ...  30366 (   0.0 sec)
# of grid points (after weights+screening)   ...  27620 (   0.4 sec)
nearest neighbour list constructed           ...    0.0 sec
Grid point re-assignment to atoms done       ...    0.0 sec
Grid point division into batches done        ...    0.0 sec
Reduced shell lists constructed in    0.4 sec

Total number of grid points                  ...    27620
Total number of batches                      ...      463
Average number of points per batch           ...       59
Average number of grid points per atom       ...      468
Average number of shells per batch           ...    95.56 (30.43%)
Average number of basis functions per batch  ...   203.47 (29.40%)
Average number of large shells per batch     ...    61.23 (64.07%)
Average number of large basis fcns per batch ...   132.26 (65.00%)
Maximum spatial batch extension              ...  17.59, 18.33, 30.36 au
Average spatial batch extension              ...   4.30,  3.90,  5.41 au

Overlap Fitting                  UseSFitting ... on
Constructing numerical overlap ... done (      0.2 sec)
Inverting numerical overlap    ... done (      0.0 sec)
Obtaining analytic overlap     ... done (      0.0 sec)
Final contraction and storage  ... done (      0.0 sec)


General Integration Accuracy     IntAcc      ...  3.670
Radial Grid Type                 RadialGrid  ... Gauss-Chebyshev
Angular Grid (max. acc.)         AngularGrid ... Lebedev-50
Angular grid pruning method      GridPruning ... 3 (G Style)
Weight generation scheme         WeightScheme... Becke
Basis function cutoff            BFCut       ...    1.0000e-11
Integration weight cutoff        WCut        ...    1.0000e-14
Grids for H and He will be reduced by one unit

# of grid points (after initial pruning)     ...  38038 (   0.0 sec)
# of grid points (after weights+screening)   ...  34459 (   0.5 sec)
nearest neighbour list constructed           ...    0.0 sec
Grid point re-assignment to atoms done       ...    0.0 sec
Grid point division into batches done        ...    0.0 sec
Reduced shell lists constructed in    0.5 sec

Total number of grid points                  ...    34459
Total number of batches                      ...      569
Average number of points per batch           ...       60
Average number of grid points per atom       ...      584
Average number of shells per batch           ...    93.44 (29.76%)
Average number of basis functions per batch  ...   198.54 (28.69%)
Average number of large shells per batch     ...    59.76 (63.96%)
Average number of large basis fcns per batch ...   128.77 (64.86%)
Maximum spatial batch extension              ...  19.22, 20.22, 22.26 au
Average spatial batch extension              ...   4.03,  3.73,  4.98 au

Overlap Fitting                  UseSFitting ... on
Constructing numerical overlap ... done (      0.3 sec)
Inverting numerical overlap    ... done (      0.0 sec)
Obtaining analytic overlap     ... done (      0.0 sec)
Final contraction and storage  ... done (      0.0 sec)


General Integration Accuracy     IntAcc      ...  4.010
Radial Grid Type                 RadialGrid  ... Gauss-Chebyshev
Angular Grid (max. acc.)         AngularGrid ... Lebedev-110
Angular grid pruning method      GridPruning ... 3 (G Style)
Weight generation scheme         WeightScheme... Becke
Basis function cutoff            BFCut       ...    1.0000e-11
Integration weight cutoff        WCut        ...    1.0000e-14
Grids for H and He will be reduced by one unit

# of grid points (after initial pruning)     ...  73176 (   0.0 sec)
# of grid points (after weights+screening)   ...  65668 (   0.9 sec)
nearest neighbour list constructed           ...    0.0 sec
Grid point re-assignment to atoms done       ...    0.0 sec
Grid point division into batches done        ...    0.1 sec
Reduced shell lists constructed in    0.9 sec

Total number of grid points                  ...    65668
Total number of batches                      ...     1050
Average number of points per batch           ...       62
Average number of grid points per atom       ...     1113
Average number of shells per batch           ...    89.16 (28.40%)
Average number of basis functions per batch  ...   189.03 (27.32%)
Average number of large shells per batch     ...    56.95 (63.87%)
Average number of large basis fcns per batch ...   122.18 (64.64%)
Maximum spatial batch extension              ...  19.72, 20.85, 29.75 au
Average spatial batch extension              ...   3.41,  3.17,  4.14 au

Overlap Fitting                  UseSFitting ... on
Constructing numerical overlap ... done (      0.5 sec)
Inverting numerical overlap    ... done (      0.0 sec)
Obtaining analytic overlap     ... done (      0.0 sec)
Final contraction and storage  ... done (      0.0 sec)

Time for X-Grid setup             =    4.606 sec
--------------
SCF ITERATIONS
--------------
ITER       Energy         Delta-E        Max-DP      RMS-DP      [F,P]     Damp
               ***  Starting incremental Fock matrix formation  ***
  0  -4305.9992552087   0.000000000000 0.10297459  0.00149141  0.2687441 0.7000
  1  -4306.4492826547  -0.450027446000 0.06131577  0.00097236  0.1002179 0.7000
                               ***Turning on DIIS***
  2  -4306.6085185948  -0.159235940039 0.15063834  0.00156629  0.0348985 0.0000
  3  -4306.8491705302  -0.240651935484 0.06388939  0.00071001  0.0523169 0.0000
  4  -4306.9200878770  -0.070917346738 0.01552402  0.00022376  0.0164045 0.0000
  5  -4306.9245200054  -0.004432128377 0.00978289  0.00009919  0.0134634 0.0000
                      *** Initiating the SOSCF procedure ***
                           *** Shutting down DIIS ***
                      *** Re-Reading the Fockian *** 
                      *** Removing any level shift *** 
ITER      Energy       Delta-E        Grad      Rot      Max-DP    RMS-DP
  6  -4306.92530342  -0.0007834100  0.000955  0.000955  0.001773  0.000029
               *** Restarting incremental Fock matrix formation ***
  7  -4306.92535848  -0.0000550601  0.000347  0.003236  0.001528  0.000029
  8  -4306.92535905  -0.0000005787  0.000369  0.002074  0.001242  0.000016
  9  -4306.92537756  -0.0000185089  0.000230  0.001792  0.000616  0.000012
 10  -4306.92537557   0.0000019895  0.000195  0.000628  0.000474  0.000007
 11  -4306.92538042  -0.0000048424  0.000060  0.000370  0.000350  0.000004
 12  -4306.92537984   0.0000005779  0.000073  0.000140  0.000246  0.000003
 13  -4306.92538071  -0.0000008685  0.000014  0.000096  0.000134  0.000002
 14  -4306.92538061   0.0000000979  0.000031  0.000066  0.000106  0.000001
 15  -4306.92538073  -0.0000001245  0.000005  0.000052  0.000037  0.000001
 16  -4306.92538072   0.0000000157  0.000008  0.000024  0.000024  0.000000
                  ***Gradient check signals convergence***
              ***Rediagonalizing the Fockian in SOSCF/NRSCF***

               *****************************************************
               *                     SUCCESS                       *
               *           SCF CONVERGED AFTER  17 CYCLES          *
               *****************************************************

Setting up the final grid:

General Integration Accuracy     IntAcc      ...  4.670
Radial Grid Type                 RadialGrid  ... Gauss-Chebyshev
Angular Grid (max. acc.)         AngularGrid ... Lebedev-302
Angular grid pruning method      GridPruning ... 3 (G Style)
Weight generation scheme         WeightScheme... Becke
Basis function cutoff            BFCut       ...    1.0000e-11
Integration weight cutoff        WCut        ...    1.0000e-14
Grids for H and He will be reduced by one unit

# of grid points (after initial pruning)     ... 320222 (   0.3 sec)
# of grid points (after weights+screening)   ... 280108 (   3.9 sec)
nearest neighbour list constructed           ...    0.0 sec
Grid point re-assignment to atoms done       ...    0.0 sec
Grid point division into batches done        ...    1.0 sec
Reduced shell lists constructed in    3.9 sec

Total number of grid points                  ...   280108
Total number of batches                      ...     4406
Average number of points per batch           ...       63
Average number of grid points per atom       ...     4748
Average number of shells per batch           ...    78.65 (25.05%)
Average number of basis functions per batch  ...   165.60 (23.93%)
Average number of large shells per batch     ...    49.83 (63.36%)
Average number of large basis fcns per batch ...   105.81 (63.90%)
Maximum spatial batch extension              ...  21.41, 21.42, 24.55 au
Average spatial batch extension              ...   2.21,  2.11,  2.46 au

Final grid set up in    8.2 sec
Final integration                            ... done (   4.8 sec)
Change in XC energy                          ...    -0.000619077
Integrated number of electrons               ...   346.000142053
Previous integrated no of electrons          ...   345.997379949
Old exchange energy                            =    -75.150636477 Eh
New exchange energy                            =    -75.147648300 Eh
Exchange energy change after final integration =      0.002988178 Eh
Total energy after final integration           =  -4306.923011641 Eh
Final COS-X integration done in                =    96.261 sec

----------------
TOTAL SCF ENERGY
----------------

Total Energy       :        -4306.92301164 Eh         -117197.33334 eV

Components:
Nuclear Repulsion  :         5679.08478955 Eh          154535.75357 eV
Electronic Energy  :        -9986.00780119 Eh         -271733.08691 eV
One Electron Energy:       -17229.09875240 Eh         -468827.61179 eV
Two Electron Energy:         7243.09095121 Eh          197094.52487 eV

Virial components:
Potential Energy   :        -8594.07858563 Eh         -233856.76736 eV
Kinetic Energy     :         4287.15557399 Eh          116659.43402 eV
Virial Ratio       :            2.00461085


DFT components:
N(Alpha)           :      173.000071026573 electrons
N(Beta)            :      173.000071026573 electrons
N(Total)           :      346.000142053146 electrons
E(X)               :     -298.636702244741 Eh       
E(C)               :      -16.275937837415 Eh       
E(XC)              :     -314.912640082156 Eh       
DFET-embed. en.    :        0.000000000000 Eh       

---------------
SCF CONVERGENCE
---------------

  Last Energy change         ...   -2.4734e-08  Tolerance :   1.0000e-08
  Last MAX-Density change    ...    6.6613e-15  Tolerance :   1.0000e-07
  Last RMS-Density change    ...    4.7542e-17  Tolerance :   5.0000e-09
  Last Orbital Gradient      ...    1.6893e-06  Tolerance :   1.0000e-05
  Last Orbital Rotation      ...    6.7323e-06  Tolerance :   1.0000e-05

             **** THE GBW FILE WAS UPDATED (BTDT2R.gbw) ****
             **** DENSITY FILE WAS UPDATED (BTDT2R.scfp) ****
             **** ENERGY FILE WAS UPDATED (BTDT2R.en.tmp) ****
             **** THE GBW FILE WAS UPDATED (BTDT2R.gbw) ****
             **** DENSITY FILE WAS UPDATED (BTDT2R.scfp) ****
----------------
ORBITAL ENERGIES
----------------

  NO   OCC          E(Eh)            E(eV) 
   0   2.0000     -88.953061     -2420.5358 
   1   2.0000     -88.887128     -2418.7417 
   2   2.0000     -88.884672     -2418.6749 
   3   2.0000     -88.880063     -2418.5495 
   4   2.0000     -88.879818     -2418.5428 
   5   2.0000     -88.810507     -2416.6568 
   6   2.0000     -88.808475     -2416.6015 
   7   2.0000     -19.191916      -522.2386 
   8   2.0000     -19.182554      -521.9838 
   9   2.0000     -19.136547      -520.7319 
  10   2.0000     -19.124333      -520.3996 
  11   2.0000     -14.403475      -391.9385 
  12   2.0000     -14.397004      -391.7624 
  13   2.0000     -14.367579      -390.9617 
  14   2.0000     -14.366253      -390.9256 
  15   2.0000     -10.317566      -280.7552 
  16   2.0000     -10.307416      -280.4790 
  17   2.0000     -10.298167      -280.2274 
  18   2.0000     -10.294698      -280.1330 
  19   2.0000     -10.286343      -279.9056 
  20   2.0000     -10.279639      -279.7232 
  21   2.0000     -10.260914      -279.2137 
  22   2.0000     -10.259054      -279.1630 
  23   2.0000     -10.254964      -279.0518 
  24   2.0000     -10.254640      -279.0430 
  25   2.0000     -10.240785      -278.6659 
  26   2.0000     -10.238354      -278.5998 
  27   2.0000     -10.235408      -278.5196 
  28   2.0000     -10.234783      -278.5026 
  29   2.0000     -10.232131      -278.4304 
  30   2.0000     -10.231781      -278.4209 
  31   2.0000     -10.231280      -278.4073 
  32   2.0000     -10.230416      -278.3838 
  33   2.0000     -10.229770      -278.3662 
  34   2.0000     -10.226886      -278.2877 
  35   2.0000     -10.223277      -278.1895 
  36   2.0000     -10.222887      -278.1789 
  37   2.0000     -10.207366      -277.7566 
  38   2.0000     -10.202322      -277.6193 
  39   2.0000     -10.201654      -277.6011 
  40   2.0000     -10.199124      -277.5323 
  41   2.0000      -8.044162      -218.8928 
  42   2.0000      -7.983513      -217.2424 
  43   2.0000      -7.980490      -217.1602 
  44   2.0000      -7.974055      -216.9851 
  45   2.0000      -7.973068      -216.9582 
  46   2.0000      -7.907165      -215.1649 
  47   2.0000      -7.905274      -215.1135 
  48   2.0000      -6.014275      -163.6568 
  49   2.0000      -6.006813      -163.4537 
  50   2.0000      -6.005316      -163.4130 
  51   2.0000      -5.951977      -161.9615 
  52   2.0000      -5.949002      -161.8806 
  53   2.0000      -5.948369      -161.8633 
  54   2.0000      -5.945148      -161.7757 
  55   2.0000      -5.943105      -161.7201 
  56   2.0000      -5.942187      -161.6951 
  57   2.0000      -5.941186      -161.6679 
  58   2.0000      -5.940303      -161.6439 
  59   2.0000      -5.938032      -161.5821 
  60   2.0000      -5.936782      -161.5480 
  61   2.0000      -5.935219      -161.5055 
  62   2.0000      -5.934332      -161.4814 
  63   2.0000      -5.875784      -159.8882 
  64   2.0000      -5.873909      -159.8372 
  65   2.0000      -5.872499      -159.7988 
  66   2.0000      -5.870664      -159.7489 
  67   2.0000      -5.866472      -159.6348 
  68   2.0000      -5.864447      -159.5797 
  69   2.0000      -1.095088       -29.7989 
  70   2.0000      -1.071782       -29.1647 
  71   2.0000      -1.069687       -29.1077 
  72   2.0000      -1.060729       -28.8639 
  73   2.0000      -1.046209       -28.4688 
  74   2.0000      -0.996837       -27.1253 
  75   2.0000      -0.989416       -26.9234 
  76   2.0000      -0.914678       -24.8897 
  77   2.0000      -0.906594       -24.6697 
  78   2.0000      -0.893458       -24.3122 
  79   2.0000      -0.878257       -23.8986 
  80   2.0000      -0.861468       -23.4417 
  81   2.0000      -0.854599       -23.2548 
  82   2.0000      -0.815745       -22.1975 
  83   2.0000      -0.803469       -21.8635 
  84   2.0000      -0.795020       -21.6336 
  85   2.0000      -0.789766       -21.4906 
  86   2.0000      -0.777076       -21.1453 
  87   2.0000      -0.766568       -20.8594 
  88   2.0000      -0.752869       -20.4866 
  89   2.0000      -0.750388       -20.4191 
  90   2.0000      -0.735519       -20.0145 
  91   2.0000      -0.728809       -19.8319 
  92   2.0000      -0.721449       -19.6316 
  93   2.0000      -0.716498       -19.4969 
  94   2.0000      -0.711062       -19.3490 
  95   2.0000      -0.697761       -18.9870 
  96   2.0000      -0.669178       -18.2093 
  97   2.0000      -0.653716       -17.7885 
  98   2.0000      -0.645834       -17.5740 
  99   2.0000      -0.633355       -17.2345 
 100   2.0000      -0.629006       -17.1161 
 101   2.0000      -0.618232       -16.8230 
 102   2.0000      -0.612214       -16.6592 
 103   2.0000      -0.589936       -16.0530 
 104   2.0000      -0.578212       -15.7340 
 105   2.0000      -0.570775       -15.5316 
 106   2.0000      -0.561358       -15.2753 
 107   2.0000      -0.556250       -15.1363 
 108   2.0000      -0.549352       -14.9486 
 109   2.0000      -0.542286       -14.7564 
 110   2.0000      -0.538959       -14.6658 
 111   2.0000      -0.520894       -14.1742 
 112   2.0000      -0.519678       -14.1412 
 113   2.0000      -0.508481       -13.8365 
 114   2.0000      -0.507337       -13.8054 
 115   2.0000      -0.503763       -13.7081 
 116   2.0000      -0.499623       -13.5954 
[...]
      dxz     :     0.003424
      dyz     :     0.019435
      dx2y2   :     0.035460
      dxy     :     0.028823
 24 C s       :     2.921537  s :     2.921537
      pz      :     1.095700  p :     3.192136
      px      :     1.012542
      py      :     1.083895
      dz2     :     0.008477  d :     0.101448
      dxz     :     0.011489
      dyz     :     0.012378
      dx2y2   :     0.028610
      dxy     :     0.040494
 25 C s       :     2.863951  s :     2.863951
      pz      :     0.938210  p :     3.052000
      px      :     1.059893
      py      :     1.053897
      dz2     :     0.006558  d :     0.095312
      dxz     :     0.012697
      dyz     :     0.011088
      dx2y2   :     0.026504
      dxy     :     0.038464
 26 C s       :     2.922288  s :     2.922288
      pz      :     1.102349  p :     3.197657
      px      :     1.085360
      py      :     1.009948
      dz2     :     0.008471  d :     0.099898
      dxz     :     0.011105
      dyz     :     0.011973
      dx2y2   :     0.037203
      dxy     :     0.031147
 27 C s       :     2.836707  s :     2.836707
      pz      :     0.850694  p :     2.831141
      px      :     1.030609
      py      :     0.949839
      dz2     :     0.015300  d :     0.263406
      dxz     :     0.047384
      dyz     :     0.018651
      dx2y2   :     0.060879
      dxy     :     0.121192
 28 N s       :     3.090707  s :     3.090707
      pz      :     1.489412  p :     3.870276
      px      :     1.187187
      py      :     1.193677
      dz2     :     0.005448  d :     0.068078
      dxz     :     0.007775
      dyz     :     0.006782
      dx2y2   :     0.025541
      dxy     :     0.022530
 29 C s       :     2.984686  s :     2.984686
      pz      :     0.984362  p :     3.113746
      px      :     1.031216
      py      :     1.098168
      dz2     :     0.009976  d :     0.156376
      dxz     :     0.028750
      dyz     :     0.015826
      dx2y2   :     0.067307
      dxy     :     0.034516
 30 S s       :     5.535777  s :     5.535777
      pz      :     3.688160  p :     9.951472
      px      :     3.256943
      py      :     3.006369
      dz2     :     0.017737  d :     0.128304
      dxz     :     0.014121
      dyz     :     0.013327
      dx2y2   :     0.045406
      dxy     :     0.037713
 31 S s       :     5.542903  s :     5.542903
      pz      :     3.692929  p :     9.950817
      px      :     3.083928
      py      :     3.173960
      dz2     :     0.017370  d :     0.126300
      dxz     :     0.012628
      dyz     :     0.015566
      dx2y2   :     0.062381
      dxy     :     0.018354
 32 C s       :     2.984212  s :     2.984212
      pz      :     0.988522  p :     3.118398
      px      :     1.078900
      py      :     1.050976
      dz2     :     0.010136  d :     0.156469
      dxz     :     0.015187
      dyz     :     0.029759
      dx2y2   :     0.068557
      dxy     :     0.032831
 33 N s       :     3.090301  s :     3.090301
      pz      :     1.488499  p :     3.868400
      px      :     1.190697
      py      :     1.189204
      dz2     :     0.005474  d :     0.068171
      dxz     :     0.007101
      dyz     :     0.007693
      dx2y2   :     0.021692
      dxy     :     0.026210
 34 C s       :     2.836215  s :     2.836215
      pz      :     0.854358  p :     2.836333
      px      :     0.978330
      py      :     1.003645
      dz2     :     0.015409  d :     0.263887
      dxz     :     0.016462
      dyz     :     0.049247
      dx2y2   :     0.058192
      dxy     :     0.124578
 35 O s       :     3.542942  s :     3.542942
      pz      :     1.409836  p :     4.598765
      px      :     1.451600
      py      :     1.737329
      dz2     :     0.004403  d :     0.031580
      dxz     :     0.007244
      dyz     :     0.000114
      dx2y2   :     0.013325
      dxy     :     0.006493
 36 C s       :     2.834996  s :     2.834996
      pz      :     1.086490  p :     3.032570
      px      :     1.033384
      py      :     0.912697
      dz2     :     0.016997  d :     0.094800
      dxz     :     0.005628
      dyz     :     0.029053
      dx2y2   :     0.019027
      dxy     :     0.024096
 37 S s       :     5.659855  s :     5.659855
      pz      :     3.381211  p :    10.289227
      px      :     3.554906
      py      :     3.353110
      dz2     :     0.012898  d :     0.080972
      dxz     :     0.006675
      dyz     :     0.011232
      dx2y2   :     0.012175
      dxy     :     0.037991
 38 S s       :     5.660695  s :     5.660695
      pz      :     3.396000  p :    10.297380
      px      :     3.512370
      py      :     3.389009
      dz2     :     0.012995  d :     0.080731
      dxz     :     0.007232
      dyz     :     0.010232
      dx2y2   :     0.010938
      dxy     :     0.039334
 39 C s       :     2.833942  s :     2.833942
      pz      :     1.086712  p :     3.031782
      px      :     0.872455
      py      :     1.072614
      dz2     :     0.015823  d :     0.094922
      dxz     :     0.025797
      dyz     :     0.010413
      dx2y2   :     0.027369
      dxy     :     0.015520
 40 O s       :     3.547244  s :     3.547244
      pz      :     1.415614  p :     4.602086
      px      :     1.736398
      py      :     1.450074
      dz2     :     0.004375  d :     0.031327
      dxz     :     0.000233
      dyz     :     0.007140
      dx2y2   :     0.012781
      dxy     :     0.006798
 41 H s       :     0.919442  s :     0.919442
      pz      :     0.037559  p :     0.064339
      px      :     0.010075
      py      :     0.016705
 42 H s       :     0.915535  s :     0.915535
      pz      :     0.010905  p :     0.069129
      px      :     0.011802
      py      :     0.046422
 43 H s       :     0.911946  s :     0.911946
      pz      :     0.014155  p :     0.062763
      px      :     0.029099
      py      :     0.019509
 44 H s       :     0.910919  s :     0.910919
      pz      :     0.007890  p :     0.062872
      px      :     0.029099
      py      :     0.025883
 45 H s       :     0.916322  s :     0.916322
      pz      :     0.018158  p :     0.064579
      px      :     0.031331
      py      :     0.015091
 46 H s       :     0.917382  s :     0.917382
      pz      :     0.011760  p :     0.066697
      px      :     0.014715
      py      :     0.040223
 47 H s       :     0.906984  s :     0.906984
      pz      :     0.015572  p :     0.072364
      px      :     0.024555
      py      :     0.032238
 48 H s       :     0.893446  s :     0.893446
      pz      :     0.014974  p :     0.075442
      px      :     0.043733
      py      :     0.016735
 49 H s       :     0.897572  s :     0.897572
      pz      :     0.015525  p :     0.074330
      px      :     0.040138
      py      :     0.018667
 50 H s       :     0.902268  s :     0.902268
      pz      :     0.015116  p :     0.068410
      px      :     0.026458
      py      :     0.026836
 51 H s       :     0.882700  s :     0.882700
      pz      :     0.013418  p :     0.070612
      px      :     0.046408
      py      :     0.010786
 52 H s       :     0.891562  s :     0.891562
      pz      :     0.013543  p :     0.066804
      px      :     0.028753
      py      :     0.024508
 53 H s       :     0.894630  s :     0.894630
      pz      :     0.012647  p :     0.069356
      px      :     0.043227
      py      :     0.013482
 54 H s       :     0.902932  s :     0.902932
      pz      :     0.032828  p :     0.066095
      px      :     0.015062
      py      :     0.018206
 55 H s       :     0.902124  s :     0.902124
      pz      :     0.032172  p :     0.064898
      px      :     0.012517
      py      :     0.020208
 56 H s       :     0.902927  s :     0.902927
      pz      :     0.025338  p :     0.067127
      px      :     0.016952
      py      :     0.024837
 57 H s       :     0.902873  s :     0.902873
      pz      :     0.036412  p :     0.064571
      px      :     0.015847
      py      :     0.012312
 58 H s       :     0.896473  s :     0.896473
      pz      :     0.015700  p :     0.069086
      px      :     0.010274
      py      :     0.043112


                      *****************************
                      * MAYER POPULATION ANALYSIS *
                      *****************************

  NA   - Mulliken gross atomic population
  ZA   - Total nuclear charge
  QA   - Mulliken gross atomic charge
  VA   - Mayer's total valence
  BVA  - Mayer's bonded valence
  FA   - Mayer's free valence

  ATOM       NA         ZA         QA         VA         BVA        FA
  0 C      5.8099     6.0000     0.1901     3.7422     3.7422    -0.0000
  1 C      5.9624     6.0000     0.0376     3.8860     3.8860     0.0000
  2 C      5.9474     6.0000     0.0526     3.9055     3.9055     0.0000
  3 C      5.8251     6.0000     0.1749     3.7577     3.7577     0.0000
  4 C      6.0125     6.0000    -0.0125     3.9600     3.9600     0.0000
  5 C      6.0133     6.0000    -0.0133     3.9610     3.9610    -0.0000
  6 N      7.3063     7.0000    -0.3063     2.9922     2.9922    -0.0000
  7 S     15.4987    16.0000     0.5013     2.7205     2.7205    -0.0000
  8 N      7.3157     7.0000    -0.3157     2.9857     2.9857    -0.0000
  9 O      8.3592     8.0000    -0.3592     2.1439     2.1439    -0.0000
 10 O      8.3484     8.0000    -0.3484     2.1589     2.1589     0.0000
 11 C      5.8053     6.0000     0.1947     3.8546     3.8546    -0.0000
 12 C      5.8051     6.0000     0.1949     3.8589     3.8589    -0.0000
 13 C      6.1627     6.0000    -0.1627     3.8832     3.8832     0.0000
 14 C      6.1562     6.0000    -0.1562     3.8635     3.8635     0.0000
 15 S     15.8249    16.0000     0.1751     2.5062     2.5062     0.0000
 16 C      6.0793     6.0000    -0.0793     3.8181     3.8181     0.0000
 17 C      5.9857     6.0000     0.0143     3.8229     3.8229     0.0000
 18 C      5.9949     6.0000     0.0051     3.8510     3.8510    -0.0000
 19 C      5.9621     6.0000     0.0379     3.8161     3.8161     0.0000
 20 C      5.9855     6.0000     0.0145     3.8316     3.8316     0.0000
 21 C      6.0409     6.0000    -0.0409     3.8324     3.8324     0.0000
 22 S     15.7846    16.0000     0.2154     2.5441     2.5441     0.0000
 23 C      5.9367     6.0000     0.0633     3.9722     3.9722    -0.0000
 24 C      6.1689     6.0000    -0.1689     3.8574     3.8574     0.0000
 25 C      5.9607     6.0000     0.0393     4.0087     4.0087     0.0000
 26 C      6.1897     6.0000    -0.1897     3.8143     3.8143     0.0000
 27 C      5.7678     6.0000     0.2322     4.1989     4.1989     0.0000
 28 N      7.2373     7.0000    -0.2373     3.2926     3.2926    -0.0000
 29 C      6.0009     6.0000    -0.0009     3.9110     3.9110     0.0000
 30 S     15.8879    16.0000     0.1121     2.3710     2.3710    -0.0000
 31 S     15.8607    16.0000     0.1393     2.3388     2.3388     0.0000
 32 C      6.0159     6.0000    -0.0159     3.9123     3.9123    -0.0000
 33 N      7.2375     7.0000    -0.2375     3.3046     3.3046    -0.0000
 34 C      5.7547     6.0000     0.2453     4.1764     4.1764     0.0000
 35 O      8.1945     8.0000    -0.1945     2.3543     2.3543     0.0000
 36 C      5.8703     6.0000     0.1297     3.8765     3.8765    -0.0000
 37 S     16.1596    16.0000    -0.1596     2.0360     2.0360    -0.0000
 38 S     16.1659    16.0000    -0.1659     2.0294     2.0294     0.0000
 39 C      5.8575     6.0000     0.1425     3.8804     3.8804    -0.0000
 40 O      8.2045     8.0000    -0.2045     2.3320     2.3320    -0.0000
 41 H      0.9779     1.0000     0.0221     0.9892     0.9892    -0.0000
 42 H      0.9566     1.0000     0.0434     1.0093     1.0093    -0.0000
 43 H      0.9654     1.0000     0.0346     0.9869     0.9869    -0.0000
 44 H      0.9624     1.0000     0.0376     0.9864     0.9864     0.0000
 45 H      0.9729     1.0000     0.0271     0.9913     0.9913    -0.0000
 46 H      0.9626     1.0000     0.0374     1.0024     1.0024     0.0000
 47 H      1.0021     1.0000    -0.0021     1.0014     1.0014     0.0000
 48 H      0.9993     1.0000     0.0007     1.0213     1.0213     0.0000
 49 H      1.0248     1.0000    -0.0248     1.0189     1.0189    -0.0000
 50 H      1.0163     1.0000    -0.0163     0.9883     0.9883    -0.0000
 51 H      0.9797     1.0000     0.0203     1.0134     1.0134     0.0000
 52 H      1.0049     1.0000    -0.0049     0.9939     0.9939     0.0000
 53 H      0.9430     1.0000     0.0570     1.0252     1.0252    -0.0000
 54 H      0.9564     1.0000     0.0436     1.0107     1.0107    -0.0000
 55 H      0.9539     1.0000     0.0461     1.0017     1.0017     0.0000
 56 H      0.9564     1.0000     0.0436     1.0159     1.0159    -0.0000
 57 H      0.9574     1.0000     0.0426     0.9986     0.9986     0.0000
 58 H      0.9510     1.0000     0.0490     1.0229     1.0229     0.0000

  Mayer bond orders larger than 0.100000
B(  0-C ,  1-C ) :   1.4025 B(  0-C ,  5-C ) :   1.1382 B(  0-C , 13-C ) :   1.1215 
B(  1-C ,  2-C ) :   1.1544 B(  1-C ,  9-O ) :   1.1008 B(  2-C ,  3-C ) :   1.3947 
B(  2-C , 10-O ) :   1.1311 B(  3-C ,  4-C ) :   1.1359 B(  3-C , 14-C ) :   1.1417 
B(  4-C ,  5-C ) :   1.1166 B(  4-C ,  6-N ) :   1.5310 B(  5-C ,  8-N ) :   1.5279 
B(  6-N ,  7-S ) :   1.2243 B(  6-N ,  8-N ) :   0.1474 B(  7-S ,  8-N ) :   1.2188 
B(  9-O , 12-C ) :   0.9028 B( 10-O , 11-C ) :   0.9019 B( 11-C , 41-H ) :   0.9635 
B( 11-C , 42-H ) :   0.9651 B( 11-C , 43-H ) :   0.9792 B( 12-C , 44-H ) :   0.9810 
B( 12-C , 45-H ) :   0.9643 B( 12-C , 46-H ) :   0.9682 B( 13-C , 15-S ) :   1.1503 
B( 13-C , 18-C ) :   1.4197 B( 14-C , 19-C ) :   1.3935 B( 14-C , 22-S ) :   1.1245 
B( 15-S , 16-C ) :   1.0877 B( 16-C , 17-C ) :   1.4100 B( 16-C , 23-C ) :   1.1448 
B( 17-C , 18-C ) :   1.2984 B( 17-C , 47-H ) :   0.9794 B( 18-C , 48-H ) :   0.9891 
B( 19-C , 20-C ) :   1.3057 B( 19-C , 49-H ) :   0.9921 B( 20-C , 21-C ) :   1.3549 
B( 20-C , 50-H ) :   0.9938 B( 21-C , 22-S ) :   1.0928 B( 21-C , 25-C ) :   1.2408 
B( 23-C , 24-C ) :   1.6969 B( 23-C , 51-H ) :   0.9404 B( 24-C , 27-C ) :   0.9659 
B( 24-C , 30-S ) :   1.0283 B( 25-C , 26-C ) :   1.6224 B( 25-C , 52-H ) :   0.9405 
B( 26-C , 31-S ) :   1.0402 B( 26-C , 34-C ) :   0.9793 B( 27-C , 28-N ) :   1.0309 
B( 27-C , 35-O ) :   2.1087 B( 28-N , 29-C ) :   1.1548 B( 28-N , 36-C ) :   0.9440 
B( 29-C , 30-S ) :   1.0337 B( 29-C , 37-S ) :   1.6725 B( 31-S , 32-C ) :   1.0535 
B( 31-S , 38-S ) :   0.1085 B( 32-C , 33-N ) :   1.1442 B( 32-C , 38-S ) :   1.6599 
B( 33-N , 34-C ) :   1.0495 B( 33-N , 39-C ) :   0.9474 B( 34-C , 40-O ) :   2.0600 
B( 36-C , 53-H ) :   0.9540 B( 36-C , 54-H ) :   0.9652 B( 36-C , 55-H ) :   0.9710 
B( 39-C , 56-H ) :   0.9620 B( 39-C , 57-H ) :   0.9723 B( 39-C , 58-H ) :   0.9539 


-------
TIMINGS
-------

Total SCF time: 0 days 0 hours 6 min 58 sec 

Total time                  ....     418.038 sec
Sum of individual times     ....     417.179 sec  ( 99.8%)

Fock matrix formation       ....     400.768 sec  ( 95.9%)
  Split-RI-J                ....      35.748 sec  (  8.9% of F)
  Chain of spheres X        ....     351.588 sec  ( 87.7% of F)
  COS-X 1 center corr.      ....       0.000 sec  (  0.0% of F)
  XC integration            ....      13.215 sec  (  3.3% of F)
    Basis function eval.    ....       4.764 sec  ( 36.1% of XC)
    Density eval.           ....       3.408 sec  ( 25.8% of XC)
    XC-Functional eval.     ....       0.716 sec  (  5.4% of XC)
    XC-Potential eval.      ....       3.852 sec  ( 29.1% of XC)
Diagonalization             ....       0.118 sec  (  0.0%)
Density matrix formation    ....       0.226 sec  (  0.1%)
Population analysis         ....       0.076 sec  (  0.0%)
Initial guess               ....       0.162 sec  (  0.0%)
Orbital Transformation      ....       0.000 sec  (  0.0%)
Orbital Orthonormalization  ....       0.128 sec  (  0.0%)
DIIS solution               ....       0.036 sec  (  0.0%)
SOSCF solution              ....       0.496 sec  (  0.1%)
Grid generation             ....      15.298 sec  (  3.7%)


-------------------------------------------------------------------------------
                          DFT DISPERSION CORRECTION                            
                                                                               
                              DFTD3 V3.1  Rev 1                                
                          USING Becke-Johnson damping                          
-------------------------------------------------------------------------------
Gaussians B3LYP functional is recognized, using regular B3LYP params
Active option DFTDOPT                   ...         4   

molecular C6(AA) [au] = 70461.024644 


            DFT-D V3
 parameters
 s6 scaling factor         :     1.0000 
 a1 scaling factor         :     0.3981 
 s8 scaling factor         :     1.9889 
 a2 scaling factor         :     4.4211 
 ad hoc parameters k1-k3   :    16.0000     1.3333    -4.0000 

 Edisp/kcal,au: -109.138794346479  -0.173923721020 
 E6   /kcal   : -48.084713751 
 E8   /kcal   : -61.054080596 
 % E8         :  55.941685046 

-------------------------   ----------------
Dispersion correction           -0.173923721
-------------------------   ----------------


-------------------------   --------------------
FINAL SINGLE POINT ENERGY     -4307.117434929388
-------------------------   --------------------

                                *** OPTIMIZATION RUN DONE ***

                            ***************************************
                            *     ORCA property calculations      *
                            ***************************************

                                    ---------------------
                                    Active property flags
                                    ---------------------
   (+) Dipole Moment


------------------------------------------------------------------------------
                       ORCA ELECTRIC PROPERTIES CALCULATION
------------------------------------------------------------------------------

Dipole Moment Calculation                       ... on
Quadrupole Moment Calculation                   ... off
Polarizability Calculation                      ... off
GBWName                                         ... BTDT2R.gbw
Electron density file                           ... BTDT2R.scfp
The origin for moment calculation is the CENTER OF MASS  = (-0.379187,  1.465282  0.561661)

-------------
DIPOLE MOMENT
-------------
                                X             Y             Z
Electronic contribution:    -15.55513      -8.97870       5.06927
Nuclear contribution   :     17.38693       8.74446      -5.21860
                        -----------------------------------------
Total Dipole Moment    :      1.83179      -0.23424      -0.14933
                        -----------------------------------------
Magnitude (a.u.)       :      1.85274
Magnitude (Debye)      :      4.70929



--------------------
Rotational spectrum 
--------------------
 
Rotational constants in cm-1:     0.005786     0.000582     0.000533 
Rotational constants in MHz :   173.466094    17.458311    15.993391 

 Dipole components along the rotational axes: 
x,y,z [a.u.] :    -0.007546     1.852553     0.025051 
x,y,z [Debye]:    -0.019180     4.708816     0.063674 

 

Timings for individual modules:

Sum of individual times         ...    37754.777 sec (= 629.246 min)
GTO integral calculation        ...       38.146 sec (=   0.636 min)   0.1 %
SCF iterations                  ...    30243.042 sec (= 504.051 min)  80.1 %
SCF Gradient evaluation         ...     7447.528 sec (= 124.125 min)  19.7 %
Geometry relaxation             ...       26.061 sec (=   0.434 min)   0.1 %
                             ****ORCA TERMINATED NORMALLY****
TOTAL RUN TIME: 0 days 10 hours 29 minutes 39 seconds 10 msec
