
                                 *****************
                                 * O   R   C   A *
                                 *****************

           --- An Ab Initio, DFT and Semiempirical electronic structure package ---

                  #######################################################
                  #                        -***-                        #
                  #          Department of theory and spectroscopy      #
                  #               Directorship: Frank Neese             #
                  #        Max Planck Institute fuer Kohlenforschung    #
                  #                Kaiser Wilhelm Platz 1               #
                  #                 D-45470 Muelheim/Ruhr               #
                  #                      Germany                        #
                  #                                                     #
                  #                  All rights reserved                #
                  #                        -***-                        #
                  #######################################################


                         Program Version 4.2.0 -  RELEASE  -


 With contributions from (in alphabetic order):
   Daniel Aravena         : Magnetic Suceptibility
   Michael Atanasov       : Ab Initio Ligand Field Theory (pilot matlab implementation)
   Alexander A. Auer      : GIAO ZORA, VPT2
   Ute Becker             : Parallelization
   Giovanni Bistoni       : ED, misc. LED, open-shell LED, HFLED
   Martin Brehm           : Molecular dynamics
   Dmytro Bykov           : SCF Hessian
   Vijay G. Chilkuri      : MRCI spin determinant printing, contributions to CSF-ICE
   Dipayan Datta          : RHF DLPNO-CCSD density
   Achintya Kumar Dutta   : EOM-CC, STEOM-CC
   Dmitry Ganyushin       : Spin-Orbit,Spin-Spin,Magnetic field MRCI
   Miquel Garcia          : C-PCM Hessian, Gaussian charge scheme
   Yang Guo               : DLPNO-NEVPT2, CIM, IAO-localization
   Andreas Hansen         : Spin unrestricted coupled pair/coupled cluster methods
   Benjamin Helmich-Paris : CASSCF linear response (MC-RPA)
   Lee Huntington         : MR-EOM, pCC
   Robert Izsak           : Overlap fitted RIJCOSX, COSX-SCS-MP3, EOM
   Christian Kollmar      : KDIIS, OOCD, Brueckner-CCSD(T), CCSD density
   Simone Kossmann        : Meta GGA functionals, TD-DFT gradient, OOMP2, MP2 Hessian
   Martin Krupicka        : AUTO-CI
   Lucas Lang             : DCDCAS
   Dagmar Lenk            : GEPOL surface, SMD
   Dimitrios Liakos       : Extrapolation schemes; Compound Job, initial MDCI parallelization
   Dimitrios Manganas     : Further ROCIS development; embedding schemes
   Dimitrios Pantazis     : SARC Basis sets
   Taras Petrenko         : DFT Hessian,TD-DFT gradient, ASA, ECA, R-Raman, ABS, FL, XAS/XES, NRVS
   Peter Pinski           : DLPNO-MP2, DLPNO-MP2 Gradient
   Christoph Reimann      : Effective Core Potentials
   Marius Retegan         : Local ZFS, SOC
   Christoph Riplinger    : Optimizer, TS searches, QM/MM, DLPNO-CCSD(T), (RO)-DLPNO pert. Triples
   Tobias Risthaus        : Range-separated hybrids, TD-DFT gradient, RPA, STAB
   Michael Roemelt        : Original ROCIS implementation
   Masaaki Saitow         : Open-shell DLPNO-CCSD energy and density
   Barbara Sandhoefer     : DKH picture change effects
   Avijit Sen             : IP-ROCIS
   Kantharuban Sivalingam : CASSCF convergence, NEVPT2, FIC-MRCI
   Bernardo de Souza      : ESD, SOC TD-DFT
   Georgi Stoychev        : AutoAux, RI-MP2 NMR
   Willem Van den Heuvel  : Paramagnetic NMR
   Boris Wezisla          : Elementary symmetry handling
   Frank Wennmohs         : Technical directorship


 We gratefully acknowledge several colleagues who have allowed us to
 interface, adapt or use parts of their codes:
   Stefan Grimme, W. Hujo, H. Kruse,             : VdW corrections, initial TS optimization,
                  C. Bannwarth                     DFT functionals, gCP, sTDA/sTD-DF
   Ed Valeev, F. Pavosevic, A. Kumar             : LibInt (2-el integral package), F12 methods
   Garnet Chan, S. Sharma, J. Yang, R. Olivares  : DMRG
   Ulf Ekstrom                                   : XCFun DFT Library
   Mihaly Kallay                                 : mrcc  (arbitrary order and MRCC methods)
   Andreas Klamt, Michael Diedenhofen            : otool_cosmo (COSMO solvation model)
   Jiri Pittner, Ondrej Demel                    : Mk-CCSD
   Frank Weinhold                                : gennbo (NPA and NBO analysis)
   Christopher J. Cramer and Donald G. Truhlar   : smd solvation model
   Lars Goerigk                                  : TD-DFT with DH, B97 family of functionals
   V. Asgeirsson, H. Jonsson                     : NEB implementation
   FAccTs GmbH                                   : IRC, NEB, NEB-TS, Multilevel, MM, QM/MM, CI optimization
   S Lehtola, MJT Oliveira, MAL Marques          : LibXC Library


 Your calculation uses the libint2 library for the computation of 2-el integrals
 For citations please refer to: http://libint.valeyev.net

 Your ORCA version has been built with support for libXC version: 4.2.3
 For citations please refer to: https://tddft.org/programs/libxc/

 This ORCA versions uses:
   CBLAS   interface :  Fast vector & matrix operations
   LAPACKE interface :  Fast linear algebra routines
   SCALAPACK package :  Parallel linear algebra routines


Your calculation utilizes the atom-pairwise dispersion correction
with the Becke-Johnson damping scheme (D3BJ)
Cite in your paper:
S.Grimme, S.Ehrlich, L.Goerigk, J Comput Chem, (2011), 32, 1456–1465 
S.Grimme, J.Antony, S.Ehrlich and H.Krieg, J.Chem.Phys., 132, (2010), 154104 
   

----- Orbital basis set information -----
Your calculation utilizes the basis: def2-SVP
   F. Weigend and R. Ahlrichs, Phys. Chem. Chem. Phys. 7, 3297 (2005).

----- AuxJ basis set information -----
Your calculation utilizes the auxiliary basis: def2/J
   F. Weigend, Phys. Chem. Chem. Phys. 8, 1057 (2006).

================================================================================
                                        WARNINGS
                       Please study these warnings very carefully!
================================================================================


WARNING: Geometry Optimization
  ===> : Switching off AutoStart
         For restart on a previous wavefunction, please use MOREAD

INFO   : the flag for use of LIBINT has been found!

================================================================================
                                       INPUT FILE
================================================================================
NAME = BTP-4Cl.inp
|  1> # ORCA input file
|  2> # SCF done       -190.529751262591          0.001690542694
|  3> ! B3LYP/G D3BJ Opt RIJCOSX def2-SVP def2/J
|  4> * xyz 0 1
|  5>    C        4.59755         2.87582         1.07531
|  6>    O        5.39216         2.17327         0.47468
|  7>    C        3.70908         3.89109         0.47533
|  8>    C        3.57391         4.24185        -0.85146
|  9>    C        2.65686         5.23304        -1.17927
| 10>   Cl        2.45262         5.69513        -2.82056
| 11>    C        1.89983         5.85060        -0.17863
| 12>   Cl        0.76836         7.07316        -0.59686
| 13>    C        2.04216         5.49383         1.15868
| 14>    C        2.95403         4.50559         1.48910
| 15>    C        3.32675         3.91708         2.77592
| 16>    C        2.81722         4.29679         3.99167
| 17>    C        3.17848         3.75788         5.24374
| 18>    N        3.41935         3.37722         6.30065
| 19>    C        1.84848         5.30859         4.16098
| 20>    N        1.06269         6.11838         4.37028
| 21>    C        4.32407         2.89989         2.51232
| 22>    C        4.89662         2.08581         3.46291
| 23>    C        5.85528         1.07743         3.35102
| 24>    S        6.64672         0.59327         1.84821
| 25>    C        7.55677        -0.59572         2.69830
| 26>    C        7.25364        -0.61134         4.07257
| 27>    C        6.30487         0.32547         4.45375
| 28>    C        5.80635         0.44801         5.85623
| 29>    C        4.51547        -0.35366         6.04658
| 30>    S        8.16234        -1.80782         4.97886
| 31>    C        8.94473        -2.27724         3.51058
| 32>    C        8.51866        -1.55889         2.38639
| 33>    N        9.18295        -1.99302         1.26783
| 34>    C        9.25690        -1.08742         0.14040
| 35>    C       10.32448        -0.01948         0.37118
| 36>    C       10.05313        -2.99516         1.66276
| 37>    C        9.93366        -3.16783         3.07427
| 38>    C       10.78167        -4.03687         3.79696
| 39>    N       10.80824        -4.26982         5.09957
| 40>    S       12.02585        -5.28821         5.41430
| 41>    N       12.56456        -5.47434         3.89922
| 42>    C       11.80900        -4.74598         3.09287
| 43>    C       11.85534        -4.65523         1.68347
| 44>    C       10.93519        -3.84765         0.94858
| 45>    N       11.11326        -4.10315        -0.39544
| 46>    C       10.26531        -3.81843        -1.53109
| 47>    C       10.89990        -2.80332        -2.48147
| 48>    C       12.13337        -5.00696        -0.52327
| 49>    C       12.62224        -5.35378         0.74401
| 50>    S       13.89334        -6.52471         0.70787
| 51>    C       13.75331        -6.57256        -1.04016
| 52>    C       12.76574        -5.70966        -1.55142
| 53>    S       12.64999        -5.80778        -3.26731
| 54>    C       13.93458        -7.01849        -3.29756
| 55>    C       14.42280        -7.30557        -2.00811
| 56>    C       15.47662        -8.31102        -1.67821
| 57>    C       14.88224        -9.71959        -1.59515
| 58>    C       14.41487        -7.64877        -4.44653
| 59>    C       14.04588        -7.52682        -5.76689
| 60>    C       14.61400        -8.28159        -6.86519
| 61>    C       15.59903        -9.23478        -6.80723
| 62>    C       16.09489        -9.92891        -7.93125
| 63>    N       16.54393       -10.53038        -8.79976
| 64>    C       16.26241        -9.66956        -5.64105
| 65>    N       16.85021       -10.08304        -4.74414
| 66>    C       13.93655        -7.84849        -8.08767
| 67>    C       14.07945        -8.24240        -9.40734
| 68>    C       13.27999        -7.64018       -10.37388
| 69>   Cl       13.45007        -8.12485       -12.01281
| 70>    C       12.34786        -6.65460       -10.03384
| 71>   Cl       11.37889        -5.93065       -11.25306
| 72>    C       12.20061        -6.25763        -8.71036
| 73>    C       12.99416        -6.85965        -7.75654
| 74>    C       13.02672        -6.62287        -6.29955
| 75>    O       12.33835        -5.82482        -5.68684
| 76>    H        4.16377         3.75625        -1.61305
| 77>    H        1.43979         5.99214         1.90004
| 78>    H        4.55070         2.23375         4.47666
| 79>    H        5.62745         1.49104         6.12094
| 80>    H        6.57235         0.05162         6.52560
| 81>    H        3.73149         0.01539         5.38949
| 82>    H        4.17499        -0.26244         7.07390
| 83>    H        4.68703        -1.40478         5.82679
| 84>    H        8.27621        -0.61324         0.04796
| 85>    H        9.46774        -1.62151        -0.77782
| 86>    H       11.30499        -0.47782         0.48434
| 87>    H       10.10342         0.55103         1.26974
| 88>    H       10.34946         0.66323        -0.47331
| 89>    H        9.28710        -3.49825        -1.16954
| 90>    H       10.12182        -4.75750        -2.07672
| 91>    H       10.18202        -2.51410        -3.24377
| 92>    H       11.75837        -3.24763        -2.97719
| 93>    H       11.23539        -1.91422        -1.95302
| 94>    H       15.90489        -8.04890        -0.70893
| 95>    H       16.27616        -8.29871        -2.42000
| 96>    H       14.10754        -9.75906        -0.83336
| 97>    H       15.66143       -10.43148        -1.33926
| 98>    H       14.44899       -10.01306        -2.54805
| 99>    H       15.20483        -8.35875        -4.24397
|100>    H       14.78632        -8.99739        -9.70938
|101>    H       11.48517        -5.49955        -8.43370
|102> *
|103> 
|104>                          ****END OF INPUT****
================================================================================

                       *****************************
                       * Geometry Optimization Run *
                       *****************************

Geometry optimization settings:
Update method            Update   .... BFGS
Choice of coordinates    CoordSys .... Z-matrix Internals
Initial Hessian          InHess   .... Almoef's Model

Convergence Tolerances:
Energy Change            TolE     ....  5.0000e-06 Eh
Max. Gradient            TolMAXG  ....  3.0000e-04 Eh/bohr
RMS Gradient             TolRMSG  ....  1.0000e-04 Eh/bohr
Max. Displacement        TolMAXD  ....  4.0000e-03 bohr
RMS Displacement         TolRMSD  ....  2.0000e-03 bohr
Strict Convergence                ....  False
------------------------------------------------------------------------------
                        ORCA OPTIMIZATION COORDINATE SETUP
------------------------------------------------------------------------------

The optimization will be done in new redundant internal coordinates
Making redundant internal coordinates   ...  (new redundants) done
Evaluating the initial hessian          ...  (Almloef) done
Evaluating the coordinates              ...  done
Calculating the B-matrix                .... done
Calculating the G-matrix                .... done
Diagonalizing the G-matrix              .... done
Small eigenvalue found = 2.862e-04
Small eigenvalue found = 1.250e-03
Small eigenvalue found = 1.680e-03
Small eigenvalue found = 1.865e-03
Small eigenvalue found = 3.471e-03
Small eigenvalue found = 5.830e-03
Small eigenvalue found = 6.147e-03
Small eigenvalue found = 7.156e-03
Small eigenvalue found = 7.690e-03
Small eigenvalue found = 9.730e-03
Small eigenvalue found = 1.113e-02
Small eigenvalue found = 1.163e-02
Small eigenvalue found = 1.247e-02
Small eigenvalue found = 1.294e-02
Small eigenvalue found = 1.485e-02
Small eigenvalue found = 1.715e-02
Small eigenvalue found = 2.236e-02
Small eigenvalue found = 2.409e-02
Small eigenvalue found = 2.616e-02
Small eigenvalue found = 2.667e-02
The first mode is                       ....  287
The number of degrees of freedom        ....  285

    -----------------------------------------------------------------
                    Redundant Internal Coordinates


    -----------------------------------------------------------------
         Definition                    Initial Value    Approx d2E/dq
    -----------------------------------------------------------------
      1. B(O   1,C   0)                  1.2189         1.049158   
      2. B(C   2,C   0)                  1.4765         0.454666   
      3. B(C   3,C   2)                  1.3790         0.650532   
      4. B(C   4,C   3)                  1.3896         0.625790   
      5. B(Cl  5,C   4)                  1.7173         0.421278   
      6. B(C   6,C   4)                  1.3985         0.605626   
      7. B(Cl  7,C   6)                  1.7175         0.420954   
      8. B(C   8,C   6)                  1.3914         0.621635   
      9. B(C   9,C   2)                  1.4055         0.590206   
     10. B(C   9,C   8)                  1.3847         0.637158   
     11. B(C  10,C   9)                  1.4633         0.477348   
     12. B(C  11,C  10)                  1.3718         0.667987   
     13. B(C  12,C  11)                  1.4102         0.580150   
     14. B(N  13,C  12)                  1.1489         1.356843   
     15. B(C  14,C  11)                  1.4110         0.578452   
     16. B(N  15,C  14)                  1.1476         1.363254   
     17. B(C  16,C   0)                  1.4630         0.477828   
     18. B(C  16,C  10)                  1.4487         0.503552   
     19. B(C  17,C  16)                  1.3763         0.657082   
     20. B(C  18,C  17)                  1.3958         0.611527   
     21. B(S  19,C  18)                  1.7661         0.423068   
     22. B(C  20,S  19)                  1.7218         0.497927   
     23. B(C  21,C  20)                  1.4074         0.586128   
     24. B(C  22,C  21)                  1.3868         0.632301   
     25. B(C  22,C  18)                  1.4084         0.583961   
     26. B(C  23,C  22)                  1.4935         0.427208   
     27. B(C  24,C  23)                  1.5314         0.371617   
     28. B(S  25,C  21)                  1.7546         0.441359   
     29. B(C  26,S  25)                  1.7287         0.485471   
     30. B(C  27,C  26)                  1.4005         0.601182   
     31. B(C  27,C  20)                  1.3965         0.610050   
     32. B(N  28,C  27)                  1.3715         0.599019   
     33. B(C  29,N  28)                  1.4480         0.452225   
     34. B(C  30,C  29)                  1.5276         0.376919   
     35. B(C  31,N  28)                  1.3847         0.570544   
     36. B(C  32,C  31)                  1.4270         0.545306   
     37. B(C  32,C  26)                  1.4005         0.601077   
     38. B(C  33,C  32)                  1.4130         0.574127   
     39. B(N  34,C  33)                  1.3235         0.714339   
     40. B(S  35,N  34)                  1.6183         0.652346   
     41. B(N  36,S  35)                  1.6187         0.651182   
     42. B(C  37,N  36)                  1.3235         0.714522   
     43. B(C  37,C  33)                  1.4332         0.533160   
     44. B(C  38,C  37)                  1.4131         0.574008   
     45. B(C  39,C  38)                  1.4279         0.543572   
     46. B(C  39,C  31)                  1.4194         0.560741   
     47. B(N  40,C  39)                  1.3796         0.581327   
     48. B(C  41,N  40)                  1.4456         0.456199   
     49. B(C  42,C  41)                  1.5285         0.375611   
     50. B(C  43,N  40)                  1.3689         0.604739   
     51. B(C  44,C  43)                  1.4019         0.598108   
     52. B(C  44,C  38)                  1.3995         0.603294   
     53. B(S  45,C  44)                  1.7286         0.485604   
     54. B(C  46,S  45)                  1.7543         0.441893   
     55. B(C  47,C  46)                  1.4076         0.585724   
     56. B(C  47,C  43)                  1.3967         0.609605   
     57. B(S  48,C  47)                  1.7226         0.496462   
     58. B(C  49,S  48)                  1.7655         0.424090   
     59. B(C  50,C  49)                  1.4084         0.584062   
     60. B(C  50,C  46)                  1.3865         0.632827   
     61. B(C  51,C  50)                  1.4934         0.427307   
     62. B(C  52,C  51)                  1.5311         0.372073   
     63. B(C  53,C  49)                  1.3957         0.611781   
     64. B(C  54,C  53)                  1.3764         0.656894   
     65. B(C  55,C  54)                  1.4487         0.503620   
     66. B(C  56,C  55)                  1.3719         0.667659   
     67. B(C  57,C  56)                  1.4111         0.578262   
     68. B(N  58,C  57)                  1.1479         1.361771   
     69. B(C  59,C  56)                  1.4103         0.579794   
     70. B(N  60,C  59)                  1.1493         1.354799   
     71. B(C  61,C  55)                  1.4632         0.477467   
     72. B(C  62,C  61)                  1.3846         0.637317   
     73. B(C  63,C  62)                  1.3914         0.621582   
     74. B(Cl 64,C  63)                  1.7175         0.420896   
     75. B(C  65,C  63)                  1.3985         0.605541   
     76. B(Cl 66,C  65)                  1.7174         0.421085   
     77. B(C  67,C  65)                  1.3896         0.625815   
     78. B(C  68,C  67)                  1.3791         0.650318   
     79. B(C  68,C  61)                  1.4055         0.590121   
     80. B(C  69,C  68)                  1.4765         0.454770   
     81. B(C  69,C  54)                  1.4627         0.478326   
     82. B(O  70,C  69)                  1.2191         1.048506   
     83. B(H  71,C   3)                  1.0788         0.375256   
     84. B(H  72,C   8)                  1.0774         0.377169   
     85. B(H  73,C  17)                  1.0813         0.371778   
     86. B(H  74,C  23)                  1.0909         0.358956   
     87. B(H  75,C  23)                  1.0918         0.357781   
     88. B(H  76,C  24)                  1.0875         0.363463   
     89. B(H  77,C  24)                  1.0861         0.365283   
     90. B(H  78,C  24)                  1.0875         0.363461   
     91. B(H  79,C  29)                  1.0932         0.355857   
     92. B(H  80,C  29)                  1.0830         0.369515   
     93. B(H  81,C  30)                  1.0882         0.362427   
     94. B(H  82,C  30)                  1.0871         0.363974   
     95. B(H  83,C  30)                  1.0862         0.365131   
     96. B(H  84,C  41)                  1.0909         0.358872   
     97. B(H  85,C  41)                  1.0955         0.352877   
     98. B(H  86,C  42)                  1.0863         0.364995   
     99. B(H  87,O  70)                  3.7842         0.000016   
    100. B(H  87,C  42)                  1.0863         0.364983   
    101. B(H  88,C  42)                  1.0873         0.363634   
    102. B(H  89,C  51)                  1.0916         0.357968   
    103. B(H  90,C  51)                  1.0907         0.359150   
    104. B(H  91,C  52)                  1.0872         0.363800   
    105. B(H  92,C  52)                  1.0860         0.365426   
    106. B(H  93,C  52)                  1.0871         0.363919   
    107. B(H  94,C  53)                  1.0813         0.371840   
    108. B(H  95,C  62)                  1.0775         0.377088   
    109. B(H  96,C  67)                  1.0785         0.375691   
    110. A(O   1,C   0,C  16)          127.9774         0.452427   
    111. A(O   1,C   0,C   2)          126.0406         0.448363   
    112. A(C   2,C   0,C  16)          105.9818         0.392257   
    113. A(C   0,C   2,C   9)          109.3169         0.407107   
    114. A(C   3,C   2,C   9)          122.0127         0.433974   
    115. A(C   0,C   2,C   3)          128.6701         0.414192   
    116. A(C   4,C   3,H  71)          121.0239         0.355944   
    117. A(C   2,C   3,H  71)          120.7404         0.358297   
    118. A(C   2,C   3,C   4)          118.2355         0.438576   
    119. A(C   3,C   4,C   6)          120.2280         0.432962   
    120. A(C   3,C   4,Cl  5)          119.7288         0.424110   
    121. A(Cl  5,C   4,C   6)          120.0429         0.421635   
    122. A(Cl  7,C   6,C   8)          118.9444         0.423547   
    123. A(C   4,C   6,Cl  7)          119.7831         0.421577   
    124. A(C   4,C   6,C   8)          121.2724         0.432443   
    125. A(C   6,C   8,C   9)          118.6673         0.436412   
    126. A(C   9,C   8,H  72)          122.2822         0.357343   
    127. A(C   6,C   8,H  72)          119.0503         0.355849   
    128. A(C   2,C   9,C  10)          108.7616         0.410632   
    129. A(C   8,C   9,C  10)          131.6545         0.416253   
    130. A(C   2,C   9,C   8)          119.5839         0.432356   
    131. A(C   9,C  10,C  11)          124.9903         0.419771   
    132. A(C  11,C  10,C  16)          127.6834         0.423797   
    133. A(C   9,C  10,C  16)          107.3210         0.399278   
    134. A(C  10,C  11,C  14)          124.0451         0.434471   
    135. A(C  10,C  11,C  12)          125.8696         0.434700   
    136. A(C  12,C  11,C  14)          110.0833         0.423621   
    137. L(C  11,C  12,N  13,C  14, 2) 180.3190         0.491503   
    138. L(C  11,C  12,N  13,C  14, 1) 175.6487         0.491503   
    139. L(C  11,C  14,N  15,C  12, 1) 176.3643         0.491666   
    140. L(C  11,C  14,N  15,C  12, 2) 180.1139         0.491666   
    141. A(C   0,C  16,C  10)          108.5999         0.399349   
    142. A(C   0,C  16,C  17)          126.2227         0.418617   
    143. A(C  10,C  16,C  17)          125.1715         0.422552   
    144. A(C  16,C  17,H  73)          115.6915         0.358340   
    145. A(C  16,C  17,C  18)          131.1218         0.437546   
    146. A(C  18,C  17,H  73)          113.1849         0.353996   
    147. A(S  19,C  18,C  22)          112.1366         0.423129   
    148. A(C  17,C  18,S  19)          125.0307         0.426635   
    149. A(C  17,C  18,C  22)          122.8324         0.428362   
    150. A(C  18,S  19,C  20)           90.3465         0.433916   
    151. A(S  19,C  20,C  27)          136.8916         0.439127   
    152. A(S  19,C  20,C  21)          112.0818         0.435971   
    153. A(C  21,C  20,C  27)          111.0261         0.428461   
    154. A(C  22,C  21,S  25)          132.2995         0.432473   
    155. A(C  20,C  21,S  25)          113.6023         0.426628   
    156. A(C  20,C  21,C  22)          114.0959         0.431224   
    157. A(C  21,C  22,C  23)          122.8148         0.407583   
    158. A(C  18,C  22,C  23)          125.7957         0.401900   
    159. A(C  18,C  22,C  21)          111.3377         0.430937   
    160. A(C  22,C  23,C  24)          110.8018         0.371473   
    161. A(C  22,C  23,H  75)          108.1656         0.331219   
    162. A(H  74,C  23,H  75)          108.2667         0.290399   
    163. A(C  24,C  23,H  75)          108.9743         0.323696   
    164. A(C  22,C  23,H  74)          111.1658         0.331399   
    165. A(C  24,C  23,H  74)          109.3977         0.323870   
    166. A(H  77,C  24,H  78)          108.7722         0.291920   
    167. A(H  76,C  24,H  78)          108.6406         0.291690   
    168. A(H  76,C  24,H  77)          108.4834         0.291920   
    169. A(C  23,C  24,H  78)          110.3576         0.324534   
    170. A(C  23,C  24,H  77)          109.7457         0.324801   
    171. A(C  23,C  24,H  76)          110.7890         0.324534   
    172. A(C  21,S  25,C  26)           88.9029         0.435245   
    173. A(C  27,C  26,C  32)          106.9128         0.429272   
    174. A(S  25,C  26,C  32)          139.1881         0.435959   
    175. A(S  25,C  26,C  27)          113.8798         0.435973   
    176. A(C  26,C  27,N  28)          110.1797         0.426210   
    177. A(C  20,C  27,N  28)          137.2318         0.427329   
    178. A(C  20,C  27,C  26)          112.5835         0.430415   
    179. A(C  29,N  28,C  31)          129.9854         0.399125   
    180. A(C  27,N  28,C  31)          107.5090         0.419499   
    181. A(C  27,N  28,C  29)          117.5032         0.402563   
    182. A(N  28,C  29,C  30)          110.8116         0.373692   
    183. A(N  28,C  29,H  79)          106.9355         0.332043   
    184. A(H  79,C  29,H  80)          108.4732         0.291478   
    185. A(C  30,C  29,H  80)          109.6827         0.326175   
    186. A(N  28,C  29,H  80)          111.2028         0.334124   
    187. A(C  30,C  29,H  79)          109.6621         0.324162   
    188. A(H  82,C  30,H  83)          108.5089         0.291965   
    189. A(H  81,C  30,H  83)          108.9557         0.291770   
    190. A(C  29,C  30,H  82)          110.4663         0.325366   
    191. A(C  29,C  30,H  83)          109.7562         0.325536   
    192. A(H  81,C  30,H  82)          108.5603         0.291624   
    193. A(C  29,C  30,H  81)          110.5453         0.325138   
    194. A(N  28,C  31,C  32)          108.4851         0.415230   
    195. A(C  32,C  31,C  39)          118.4909         0.416649   
    196. A(N  28,C  31,C  39)          132.9728         0.417297   
    197. A(C  31,C  32,C  33)          122.0093         0.418403   
    198. A(C  26,C  32,C  33)          130.9590         0.425744   
    199. A(C  26,C  32,C  31)          106.8767         0.421841   
    200. A(C  32,C  33,N  34)          128.5836         0.436280   
    201. A(N  34,C  33,C  37)          112.4599         0.430510   
    202. A(C  32,C  33,C  37)          118.8966         0.416728   
    203. A(C  33,N  34,S  35)          108.4984         0.468886   
    204. A(N  34,S  35,N  36)           98.0902         0.487621   
    205. A(S  35,N  36,C  37)          108.4805         0.468754   
    206. A(N  36,C  37,C  38)          128.6311         0.436284   
    207. A(C  33,C  37,C  38)          118.7986         0.416713   
    208. A(C  33,C  37,N  36)          112.4703         0.430530   
    209. A(C  39,C  38,C  44)          106.8538         0.421878   
    210. A(C  37,C  38,C  44)          130.9526         0.426009   
    211. A(C  37,C  38,C  39)          121.9049         0.418150   
    212. A(C  38,C  39,N  40)          108.2681         0.416379   
    213. A(C  31,C  39,N  40)          132.9676         0.418692   
    214. A(C  31,C  39,C  38)          118.7613         0.416413   
    215. A(C  41,N  40,C  43)          119.5906         0.403861   
    216. A(C  39,N  40,C  43)          108.0251         0.421617   
    217. A(C  39,N  40,C  41)          130.7776         0.401060   
    218. A(H  84,C  41,H  85)          107.4094         0.289761   
    219. A(C  42,C  41,H  85)          108.2991         0.323530   
    220. A(N  40,C  41,H  85)          107.4136         0.332062   
    221. A(C  42,C  41,H  84)          112.5456         0.324426   
    222. A(N  40,C  41,H  84)          108.8694         0.332991   
    223. A(N  40,C  41,C  42)          112.0692         0.374032   
    224. A(H  87,C  42,H  88)          108.2029         0.291904   
    225. A(H  86,C  42,H  88)          109.1011         0.291905   
    226. A(H  86,C  42,H  87)          108.1134         0.292075   
    227. A(C  41,C  42,H  88)          111.6509         0.325130   
    228. A(C  41,C  42,H  87)          109.8883         0.325328   
    229. A(C  41,C  42,H  86)          109.8015         0.325330   
    230. A(C  44,C  43,C  47)          112.5253         0.429962   
    231. A(N  40,C  43,C  47)          137.5892         0.428002   
    232. A(N  40,C  43,C  44)          109.8039         0.426544   
    233. A(C  43,C  44,S  45)          113.8980         0.435592   
    234. A(C  38,C  44,S  45)          139.0320         0.436270   
    235. A(C  38,C  44,C  43)          106.9922         0.429160   
    236. A(C  44,S  45,C  46)           88.8892         0.435362   
    237. A(C  47,C  46,C  50)          114.1609         0.431235   
    238. A(S  45,C  46,C  50)          132.1831         0.432631   
    239. A(S  45,C  46,C  47)          113.6537         0.426668   
    240. A(C  43,C  47,S  48)          137.0123         0.438835   
    241. A(C  43,C  47,C  46)          111.0212         0.428352   
    242. A(C  46,C  47,S  48)          111.9646         0.435685   
    243. A(C  47,S  48,C  49)           90.4147         0.433875   
    244. A(C  50,C  49,C  53)          122.8446         0.428407   
    245. A(S  48,C  49,C  53)          125.0412         0.426852   
    246. A(S  48,C  49,C  50)          112.1069         0.423325   
    247. A(C  49,C  50,C  51)          125.7400         0.401928   
    248. A(C  46,C  50,C  51)          122.8496         0.407660   
    249. A(C  46,C  50,C  49)          111.3475         0.431015   
    250. A(H  89,C  51,H  90)          108.2748         0.290448   
    251. A(C  50,C  51,C  52)          110.9422         0.371567   
    252. A(C  52,C  51,H  90)          109.3809         0.323964   
    253. A(C  50,C  51,H  90)          111.0653         0.331441   
    254. A(C  52,C  51,H  89)          108.9680         0.323789   
    255. A(C  50,C  51,H  89)          108.1392         0.331261   
    256. A(H  92,C  52,H  93)          108.3918         0.291995   
    257. A(H  91,C  52,H  93)          108.6867         0.291791   
    258. A(C  51,C  52,H  93)          110.8245         0.324666   
    259. A(H  91,C  52,H  92)          108.8051         0.291980   
    260. A(C  51,C  52,H  92)          109.7129         0.324887   
    261. A(C  51,C  52,H  91)          110.3666         0.324649   
    262. A(C  49,C  53,C  54)          131.1052         0.437556   
    263. A(C  54,C  53,H  94)          115.7061         0.358333   
    264. A(C  49,C  53,H  94)          113.1851         0.354030   
    265. A(C  53,C  54,C  69)          126.2203         0.418673   
    266. A(C  53,C  54,C  55)          125.1689         0.422540   
    267. A(C  55,C  54,C  69)          108.6108         0.399431   
    268. A(C  56,C  55,C  61)          124.9852         0.419753   
    269. A(C  54,C  55,C  61)          107.3150         0.399305   
    270. A(C  54,C  55,C  56)          127.6992         0.423770   
    271. A(C  57,C  56,C  59)          109.9822         0.423550   
    272. A(C  55,C  56,C  59)          125.9326         0.434614   
    273. A(C  55,C  56,C  57)          124.0852         0.434407   
    274. L(C  56,C  57,N  58,C  59, 2) 179.9711         0.491537   
    275. L(C  56,C  57,N  58,C  59, 1) 176.2831         0.491537   
    276. L(C  56,C  59,N  60,C  57, 2) 180.1662         0.491310   
    277. L(C  56,C  59,N  60,C  57, 1) 175.3811         0.491310   
    278. A(C  62,C  61,C  68)          119.5965         0.432364   
    279. A(C  55,C  61,C  68)          108.7740         0.410640   
    280. A(C  55,C  61,C  62)          131.6294         0.416290   
    281. A(C  61,C  62,C  63)          118.6621         0.436425   
    282. A(C  63,C  62,H  95)          119.0454         0.355831   
    283. A(C  61,C  62,H  95)          122.2925         0.357345   
    284. A(Cl 64,C  63,C  65)          119.7941         0.421556   
    285. A(C  62,C  63,C  65)          121.2703         0.432426   
    286. A(C  62,C  63,Cl 64)          118.9356         0.423530   
    287. A(Cl 66,C  65,C  67)          119.7322         0.424079   
    288. A(C  63,C  65,C  67)          120.2344         0.432954   
    289. A(C  63,C  65,Cl 66)          120.0335         0.421590   
    290. A(C  65,C  67,C  68)          118.2326         0.438553   
    291. A(C  68,C  67,H  96)          120.7402         0.358348   
    292. A(C  65,C  67,H  96)          121.0272         0.356017   
    293. A(C  61,C  68,C  67)          122.0038         0.433937   
    294. A(C  67,C  68,C  69)          128.6958         0.414185   
    295. A(C  61,C  68,C  69)          109.3004         0.407113   
    296. A(C  68,C  69,O  70)          126.0509         0.448331   
    297. A(C  54,C  69,O  70)          127.9496         0.452462   
    298. A(C  54,C  69,C  68)          105.9985         0.392345   
    299. D(C   9,C   2,C   0,O   1)   -179.1910         0.014086   
    300. D(C   9,C   2,C   0,C  16)      0.6802         0.014086   
    301. D(C   3,C   2,C   0,C  16)   -179.1340         0.014086   
    302. D(C   3,C   2,C   0,O   1)      0.9948         0.014086   
    303. D(C   4,C   3,C   2,C   0)    179.6629         0.029469   
    304. D(H  71,C   3,C   2,C   0)     -0.1773         0.029469   
    305. D(H  71,C   3,C   2,C   9)   -179.9705         0.029469   
    306. D(C   4,C   3,C   2,C   9)     -0.1303         0.029469   
    307. D(C   6,C   4,C   3,C   2)      0.0933         0.027130   
    308. D(Cl  5,C   4,C   3,H  71)      0.0990         0.027130   
    309. D(Cl  5,C   4,C   3,C   2)   -179.7407         0.027130   
    310. D(C   6,C   4,C   3,H  71)    179.9330         0.027130   
    311. D(C   8,C   6,C   4,C   3)      0.0046         0.025311   
    312. D(C   8,C   6,C   4,Cl  5)    179.8380         0.025311   
    313. D(Cl  7,C   6,C   4,C   3)   -179.9317         0.025311   
    314. D(Cl  7,C   6,C   4,Cl  5)     -0.0982         0.025311   
    315. D(H  72,C   8,C   6,C   4)   -179.9266         0.026748   
    316. D(C   9,C   8,C   6,C   4)     -0.0682         0.026748   
    317. D(C   9,C   8,C   6,Cl  7)    179.8686         0.026748   
    318. D(H  72,C   8,C   6,Cl  7)      0.0102         0.026748   
    319. D(C   2,C   9,C   8,C   6)      0.0328         0.028190   
    320. D(C  10,C   9,C   8,C   6)   -179.8853         0.028190   
    321. D(C  10,C   9,C   8,H  72)     -0.0316         0.028190   
    322. D(C   2,C   9,C   8,H  72)    179.8865         0.028190   
    323. D(C  10,C   9,C   2,C   0)      0.1743         0.023973   
    324. D(C   8,C   9,C   2,C   0)   -179.7611         0.023973   
    325. D(C   8,C   9,C   2,C   3)      0.0678         0.023973   
    326. D(C  10,C   9,C   2,C   3)   -179.9968         0.023973   
    327. D(C  16,C  10,C   9,C   2)     -0.9738         0.015514   
    328. D(C  11,C  10,C   9,C   2)    178.2385         0.015514   
    329. D(C  16,C  10,C   9,C   8)    178.9509         0.015514   
    330. D(C  11,C  10,C   9,C   8)     -1.8368         0.015514   
    331. D(C  14,C  11,C  10,C  16)    179.5791         0.031192   
    332. D(C  14,C  11,C  10,C   9)      0.5292         0.031192   
    333. D(C  12,C  11,C  10,C   9)   -178.9116         0.031192   
    334. D(C  12,C  11,C  10,C  16)      0.1382         0.031192   
    335. D(C  17,C  16,C  10,C  11)      3.0546         0.017274   
    336. D(C  10,C  16,C   0,O   1)    178.5879         0.015545   
    337. D(C  17,C  16,C  10,C   9)   -177.7608         0.017274   
    338. D(C   0,C  16,C  10,C  11)   -177.7854         0.017274   
    339. D(C  10,C  16,C   0,C   2)     -1.2800         0.015545   
    340. D(C   0,C  16,C  10,C   9)      1.3992         0.017274   
    341. D(C  17,C  16,C   0,O   1)     -2.2633         0.015545   
    342. D(C  17,C  16,C   0,C   2)    177.8688         0.015545   
    343. D(H  73,C  17,C  16,C  10)      0.4859         0.030108   
    344. D(C  18,C  17,C  16,C  10)    179.9606         0.030108   
    345. D(H  73,C  17,C  16,C   0)   -178.5272         0.030108   
    346. D(C  18,C  17,C  16,C   0)      0.9475         0.030108   
    347. D(C  22,C  18,C  17,H  73)      0.7423         0.025835   
    348. D(S  19,C  18,C  17,H  73)   -179.0552         0.025835   
    349. D(C  22,C  18,C  17,C  16)   -178.7427         0.025835   
    350. D(S  19,C  18,C  17,C  16)      1.4597         0.025835   
    351. D(C  20,S  19,C  18,C  22)      0.0848         0.004113   
    352. D(C  20,S  19,C  18,C  17)    179.9012         0.004113   
    353. D(C  27,C  20,S  19,C  18)    179.8670         0.005173   
    354. D(C  21,C  20,S  19,C  18)      0.1529         0.005173   
    355. D(S  25,C  21,C  20,C  27)      0.3294         0.023626   
    356. D(S  25,C  21,C  20,S  19)   -179.8799         0.023626   
    357. D(C  22,C  21,C  20,S  19)     -0.3658         0.023626   
    358. D(C  22,C  21,C  20,C  27)    179.8435         0.023626   
    359. D(C  23,C  22,C  18,C  17)      2.4457         0.023444   
    360. D(C  21,C  22,C  18,C  17)    179.8762         0.023444   
    361. D(C  21,C  22,C  18,S  19)     -0.3027         0.023444   
    362. D(C  23,C  22,C  18,S  19)   -177.7332         0.023444   
    363. D(C  23,C  22,C  21,S  25)     -2.6549         0.027734   
    364. D(C  18,C  22,C  21,S  25)    179.8249         0.027734   
    365. D(C  23,C  22,C  21,C  20)    177.9471         0.027734   
    366. D(C  18,C  22,C  21,C  20)      0.4269         0.027734   
    367. D(H  75,C  23,C  22,C  21)     24.6580         0.013483   
    368. D(H  75,C  23,C  22,C  18)   -158.1901         0.013483   
    369. D(H  74,C  23,C  22,C  21)    143.3949         0.013483   
    370. D(H  74,C  23,C  22,C  18)    -39.4531         0.013483   
    371. D(C  24,C  23,C  22,C  21)    -94.7295         0.013483   
    372. D(C  24,C  23,C  22,C  18)     82.4225         0.013483   
    373. D(H  78,C  24,C  23,H  75)    -59.4372         0.011034   
    374. D(H  78,C  24,C  23,H  74)   -177.6313         0.011034   
    375. D(H  78,C  24,C  23,C  22)     59.4630         0.011034   
    376. D(H  77,C  24,C  23,H  75)     60.4227         0.011034   
    377. D(H  77,C  24,C  23,H  74)    -57.7715         0.011034   
    378. D(H  77,C  24,C  23,C  22)    179.3229         0.011034   
    379. D(H  76,C  24,C  23,H  75)   -179.8042         0.011034   
    380. D(H  76,C  24,C  23,H  74)     62.0017         0.011034   
    381. D(H  76,C  24,C  23,C  22)    -60.9040         0.011034   
    382. D(C  26,S  25,C  21,C  20)      0.1004         0.004354   
    383. D(C  26,S  25,C  21,C  22)   -179.2999         0.004354   
    384. D(C  32,C  26,S  25,C  21)    177.6055         0.004983   
    385. D(C  27,C  26,S  25,C  21)     -0.5134         0.004983   
    386. D(N  28,C  27,C  26,S  25)   -179.8560         0.024921   
    387. D(C  20,C  27,C  26,C  32)   -177.9025         0.024921   
    388. D(C  20,C  27,C  26,S  25)      0.8126         0.024921   
    389. D(N  28,C  27,C  20,C  21)   -179.7883         0.025703   
    390. D(N  28,C  27,C  20,S  19)      0.4955         0.025703   
    391. D(C  26,C  27,C  20,C  21)     -0.7124         0.025703   
    392. D(N  28,C  27,C  26,C  32)      1.4289         0.024921   
    393. D(C  26,C  27,C  20,S  19)    179.5714         0.025703   
    394. D(C  31,N  28,C  27,C  26)     -0.3203         0.028907   
    395. D(C  31,N  28,C  27,C  20)    178.7707         0.028907   
    396. D(C  29,N  28,C  27,C  26)   -157.8250         0.028907   
    397. D(C  29,N  28,C  27,C  20)     21.2660         0.028907   
    398. D(H  80,C  29,N  28,C  31)     48.8728         0.017448   
    399. D(H  80,C  29,N  28,C  27)   -159.5659         0.017448   
    400. D(H  79,C  29,N  28,C  31)    167.1280         0.017448   
    401. D(H  79,C  29,N  28,C  27)    -41.3106         0.017448   
    402. D(C  30,C  29,N  28,C  31)    -73.3989         0.017448   
    403. D(C  30,C  29,N  28,C  27)     78.1625         0.017448   
    404. D(H  83,C  30,C  29,H  80)     58.1560         0.011333   
    405. D(H  83,C  30,C  29,H  79)    -60.8677         0.011333   
    406. D(H  83,C  30,C  29,N  28)   -178.6901         0.011333   
    407. D(H  82,C  30,C  29,H  79)     58.7411         0.011333   
    408. D(H  82,C  30,C  29,H  80)    177.7648         0.011333   
    409. D(H  81,C  30,C  29,H  80)    -62.0563         0.011333   
    410. D(H  82,C  30,C  29,N  28)    -59.0813         0.011333   
    411. D(H  81,C  30,C  29,H  79)    178.9200         0.011333   
    412. D(H  81,C  30,C  29,N  28)     61.0976         0.011333   
    413. D(C  39,C  31,N  28,C  29)    -29.9199         0.026055   
    414. D(C  39,C  31,N  28,C  27)    176.3703         0.026055   
    415. D(C  32,C  31,N  28,C  29)    152.8061         0.026055   
    416. D(C  32,C  31,N  28,C  27)     -0.9037         0.026055   
    417. D(C  33,C  32,C  31,C  39)      8.1070         0.020330   
    418. D(C  33,C  32,C  31,N  28)   -174.1621         0.020330   
    419. D(C  26,C  32,C  31,C  39)   -175.9573         0.020330   
    420. D(C  26,C  32,C  31,N  28)      1.7736         0.020330   
    421. D(C  33,C  32,C  26,C  27)    173.5120         0.024912   
    422. D(C  33,C  32,C  26,S  25)     -4.6902         0.024912   
    423. D(C  31,C  32,C  26,C  27)     -1.9234         0.024912   
    424. D(C  31,C  32,C  26,S  25)    179.8744         0.024912   
    425. D(N  34,C  33,C  32,C  26)      3.3288         0.022625   
    426. D(C  37,C  33,C  32,C  31)      1.2226         0.022625   
    427. D(C  37,C  33,C  32,C  26)   -173.6246         0.022625   
    428. D(N  34,C  33,C  32,C  31)    178.1760         0.022625   
    429. D(S  35,N  34,C  33,C  37)      0.2540         0.038365   
    430. D(S  35,N  34,C  33,C  32)   -176.8599         0.038365   
    431. D(N  36,S  35,N  34,C  33)     -0.1279         0.008085   
    432. D(C  37,N  36,S  35,N  34)     -0.0444         0.008060   
    433. D(C  38,C  37,N  36,S  35)   -176.0781         0.038387   
    434. D(C  33,C  37,N  36,S  35)      0.1948         0.038387   
    435. D(C  38,C  37,C  33,N  34)    176.3764         0.019409   
    436. D(C  38,C  37,C  33,C  32)     -6.2002         0.019409   
    437. D(N  36,C  37,C  33,N  34)     -0.3016         0.019409   
    438. D(N  36,C  37,C  33,C  32)    177.1217         0.019409   
    439. D(C  44,C  38,C  37,N  36)      5.0139         0.022616   
    440. D(C  44,C  38,C  37,C  33)   -171.0556         0.022616   
    441. D(C  39,C  38,C  37,N  36)    177.9845         0.022616   
    442. D(C  39,C  38,C  37,C  33)      1.9150         0.022616   
    443. D(N  40,C  39,C  38,C  44)      2.4440         0.020197   
    444. D(N  40,C  39,C  38,C  37)   -172.0140         0.020197   
    445. D(C  31,C  39,C  38,C  44)   -178.1068         0.020197   
    446. D(C  31,C  39,C  38,C  37)      7.4352         0.020197   
    447. D(N  40,C  39,C  31,C  32)    167.0861         0.021540   
    448. D(N  40,C  39,C  31,N  28)     -9.9721         0.021540   
    449. D(C  38,C  39,C  31,C  32)    -12.1991         0.021540   
    450. D(C  38,C  39,C  31,N  28)    170.7427         0.021540   
    451. D(C  43,N  40,C  39,C  38)     -1.7514         0.027113   
    452. D(C  43,N  40,C  39,C  31)    178.9084         0.027113   
    453. D(C  41,N  40,C  39,C  38)    163.3564         0.027113   
    454. D(C  41,N  40,C  39,C  31)    -15.9837         0.027113   
    455. D(H  85,C  41,N  40,C  43)     36.9999         0.017761   
    456. D(H  85,C  41,N  40,C  39)   -126.6777         0.017761   
    457. D(H  84,C  41,N  40,C  43)    153.0128         0.017761   
    458. D(H  84,C  41,N  40,C  39)    -10.6648         0.017761   
    459. D(C  42,C  41,N  40,C  43)    -81.8316         0.017761   
    460. D(C  42,C  41,N  40,C  39)    114.4908         0.017761   
    461. D(H  88,C  42,C  41,H  84)     71.9587         0.011258   
    462. D(H  88,C  42,C  41,N  40)    -51.1462         0.011258   
    463. D(H  87,C  42,C  41,H  85)    -49.3865         0.011258   
    464. D(H  87,C  42,C  41,H  84)   -167.9741         0.011258   
    465. D(H  87,C  42,C  41,N  40)     68.9210         0.011258   
    466. D(H  86,C  42,C  41,H  85)     69.4066         0.011258   
    467. D(H  86,C  42,C  41,H  84)    -49.1809         0.011258   
    468. D(H  88,C  42,C  41,H  85)   -169.4537         0.011258   
    469. D(H  86,C  42,C  41,N  40)   -172.2859         0.011258   
    470. D(C  47,C  43,N  40,C  41)      9.6309         0.029502   
    471. D(C  47,C  43,N  40,C  39)    176.6984         0.029502   
    472. D(C  44,C  43,N  40,C  41)   -166.6787         0.029502   
    473. D(C  44,C  43,N  40,C  39)      0.3888         0.029502   
    474. D(S  45,C  44,C  43,N  40)    178.5645         0.024653   
    475. D(C  38,C  44,C  43,C  47)   -176.1588         0.024653   
    476. D(C  38,C  44,C  43,N  40)      1.1476         0.024653   
    477. D(S  45,C  44,C  38,C  39)   -178.5624         0.025106   
    478. D(S  45,C  44,C  38,C  37)     -4.7944         0.025106   
    479. D(C  43,C  44,C  38,C  39)     -2.1656         0.025106   
    480. D(S  45,C  44,C  43,C  47)      1.2581         0.024653   
    481. D(C  43,C  44,C  38,C  37)    171.6025         0.025106   
    482. D(C  46,S  45,C  44,C  43)     -0.8470         0.004985   
    483. D(C  46,S  45,C  44,C  38)    175.3838         0.004985   
    484. D(C  50,C  46,S  45,C  44)   -179.1603         0.004361   
    485. D(C  47,C  46,S  45,C  44)      0.2479         0.004361   
    486. D(S  48,C  47,C  46,C  50)      0.3340         0.023592   
    487. D(S  48,C  47,C  46,S  45)   -179.1855         0.023592   
    488. D(C  43,C  47,C  46,C  50)    179.9202         0.023592   
    489. D(C  43,C  47,C  46,S  45)      0.4007         0.023592   
    490. D(S  48,C  47,C  43,C  44)    178.4038         0.025664   
    491. D(S  48,C  47,C  43,N  40)      2.1628         0.025664   
    492. D(C  46,C  47,C  43,C  44)     -1.0333         0.025664   
    493. D(C  46,C  47,C  43,N  40)   -177.2744         0.025664   
    494. D(C  49,S  48,C  47,C  46)      0.1092         0.005151   
    495. D(C  49,S  48,C  47,C  43)   -179.3243         0.005151   
    496. D(C  53,C  49,S  48,C  47)    178.5277         0.004126   
    497. D(C  50,C  49,S  48,C  47)     -0.5166         0.004126   
    498. D(C  51,C  50,C  49,S  48)    177.9619         0.023452   
    499. D(C  46,C  50,C  49,C  53)   -178.2755         0.023452   
    500. D(C  46,C  50,C  49,S  48)      0.7932         0.023452   
    501. D(C  51,C  50,C  46,C  47)   -177.9894         0.027783   
    502. D(C  51,C  50,C  46,S  45)      1.4166         0.027783   
    503. D(C  49,C  50,C  46,C  47)     -0.7248         0.027783   
    504. D(C  51,C  50,C  49,C  53)     -1.1068         0.023452   
    505. D(C  49,C  50,C  46,S  45)    178.6811         0.027783   
    506. D(H  90,C  51,C  50,C  49)     39.9318         0.013489   
    507. D(H  90,C  51,C  50,C  46)   -143.2074         0.013489   
    508. D(H  89,C  51,C  50,C  49)    158.6035         0.013489   
    509. D(H  89,C  51,C  50,C  46)    -24.5358         0.013489   
    510. D(C  52,C  51,C  50,C  49)    -81.9502         0.013489   
    511. D(C  52,C  51,C  50,C  46)     94.9105         0.013489   
    512. D(H  93,C  52,C  51,H  90)    -61.6332         0.011059   
    513. D(H  93,C  52,C  51,H  89)   -179.8238         0.011059   
    514. D(H  93,C  52,C  51,C  50)     61.2277         0.011059   
    515. D(H  92,C  52,C  51,H  90)     58.0275         0.011059   
    516. D(H  92,C  52,C  51,H  89)    -60.1631         0.011059   
    517. D(H  92,C  52,C  51,C  50)   -179.1116         0.011059   
    518. D(H  91,C  52,C  51,H  90)    177.9129         0.011059   
    519. D(H  91,C  52,C  51,H  89)     59.7223         0.011059   
    520. D(H  91,C  52,C  51,C  50)    -59.2262         0.011059   
    521. D(H  94,C  53,C  49,C  50)     -1.0547         0.025858   
    522. D(H  94,C  53,C  49,S  48)    179.9992         0.025858   
    523. D(C  54,C  53,C  49,C  50)    178.2127         0.025858   
    524. D(C  54,C  53,C  49,S  48)     -0.7334         0.025858   
    525. D(C  69,C  54,C  53,H  94)   -178.7942         0.030090   
    526. D(C  69,C  54,C  53,C  49)      1.9533         0.030090   
    527. D(C  55,C  54,C  53,H  94)      1.0960         0.030090   
    528. D(C  55,C  54,C  53,C  49)   -178.1566         0.030090   
    529. D(C  61,C  55,C  54,C  69)     -0.3375         0.017279   
    530. D(C  61,C  55,C  54,C  53)    179.7560         0.017279   
    531. D(C  56,C  55,C  54,C  69)    179.9015         0.017279   
    532. D(C  56,C  55,C  54,C  53)     -0.0050         0.017279   
    533. D(C  59,C  56,C  55,C  61)   -179.8273         0.031159   
    534. D(C  59,C  56,C  55,C  54)     -0.1057         0.031159   
    535. D(C  57,C  56,C  55,C  61)      0.0910         0.031159   
    536. D(C  57,C  56,C  55,C  54)    179.8125         0.031159   
    537. D(C  68,C  61,C  55,C  56)   -179.8721         0.015522   
    538. D(C  68,C  61,C  55,C  54)      0.3587         0.015522   
    539. D(C  62,C  61,C  55,C  56)      0.2280         0.015522   
    540. D(C  62,C  61,C  55,C  54)   -179.5411         0.015522   
    541. D(H  95,C  62,C  61,C  68)   -179.8681         0.028205   
    542. D(H  95,C  62,C  61,C  55)      0.0229         0.028205   
    543. D(C  63,C  62,C  61,C  68)      0.1026         0.028205   
    544. D(C  63,C  62,C  61,C  55)    179.9936         0.028205   
    545. D(C  65,C  63,C  62,H  95)   -179.9593         0.026744   
    546. D(C  65,C  63,C  62,C  61)      0.0690         0.026744   
    547. D(Cl 64,C  63,C  62,H  95)      0.0455         0.026744   
    548. D(Cl 64,C  63,C  62,C  61)   -179.9261         0.026744   
    549. D(C  67,C  65,C  63,Cl 64)    179.8590         0.025304   
    550. D(C  67,C  65,C  63,C  62)     -0.1361         0.025304   
    551. D(Cl 66,C  65,C  63,Cl 64)     -0.0936         0.025304   
    552. D(Cl 66,C  65,C  63,C  62)    179.9113         0.025304   
    553. D(C  68,C  67,C  65,C  63)      0.0261         0.027132   
    554. D(H  96,C  67,C  65,Cl 66)      0.0123         0.027132   
    555. D(H  96,C  67,C  65,C  63)   -179.9405         0.027132   
    556. D(C  68,C  67,C  65,Cl 66)    179.9789         0.027132   
    557. D(C  69,C  68,C  67,H  96)      0.2497         0.029448   
    558. D(C  69,C  68,C  67,C  65)   -179.7169         0.029448   
    559. D(C  61,C  68,C  67,H  96)   -179.8844         0.029448   
    560. D(C  61,C  68,C  67,C  65)      0.1490         0.029448   
    561. D(C  69,C  68,C  61,C  62)    179.6727         0.023966   
    562. D(C  69,C  68,C  61,C  55)     -0.2413         0.023966   
    563. D(C  67,C  68,C  61,C  62)     -0.2164         0.023966   
    564. D(C  67,C  68,C  61,C  55)    179.8696         0.023966   
    565. D(O  70,C  69,C  68,C  67)     -0.4214         0.014093   
    566. D(O  70,C  69,C  68,C  61)    179.6991         0.014093   
    567. D(C  54,C  69,C  68,C  67)    179.9108         0.014093   
    568. D(C  54,C  69,C  68,C  61)      0.0313         0.014093   
    569. D(O  70,C  69,C  54,C  55)   -179.4667         0.015577   
    570. D(O  70,C  69,C  54,C  53)      0.4385         0.015577   
    571. D(C  68,C  69,C  54,C  55)      0.1927         0.015577   
    572. D(C  68,C  69,C  54,C  53)   -179.9021         0.015577   
    -----------------------------------------------------------------

Number of atoms                         .... 97
Number of degrees of freedom            .... 572

         *************************************************************
         *                GEOMETRY OPTIMIZATION CYCLE   1            *
         *************************************************************
---------------------------------
CARTESIAN COORDINATES (ANGSTROEM)
---------------------------------
  C      4.597550    2.875820    1.075310
  O      5.392160    2.173270    0.474680
  C      3.709080    3.891090    0.475330
  C      3.573910    4.241850   -0.851460
  C      2.656860    5.233040   -1.179270
  Cl     2.452620    5.695130   -2.820560
  C      1.899830    5.850600   -0.178630
  Cl     0.768360    7.073160   -0.596860
  C      2.042160    5.493830    1.158680
  C      2.954030    4.505590    1.489100
  C      3.326750    3.917080    2.775920
  C      2.817220    4.296790    3.991670
  C      3.178480    3.757880    5.243740
  N      3.419350    3.377220    6.300650
  C      1.848480    5.308590    4.160980
  N      1.062690    6.118380    4.370280
  C      4.324070    2.899890    2.512320
  C      4.896620    2.085810    3.462910
  C      5.855280    1.077430    3.351020
  S      6.646720    0.593270    1.848210
  C      7.556770   -0.595720    2.698300
  C      7.253640   -0.611340    4.072570
  C      6.304870    0.325470    4.453750
  C      5.806350    0.448010    5.856230
  C      4.515470   -0.353660    6.046580
  S      8.162340   -1.807820    4.978860
  C      8.944730   -2.277240    3.510580
  C      8.518660   -1.558890    2.386390
  N      9.182950   -1.993020    1.267830
  C      9.256900   -1.087420    0.140400
  C     10.324480   -0.019480    0.371180
  C     10.053130   -2.995160    1.662760
  C      9.933660   -3.167830    3.074270
  C     10.781670   -4.036870    3.796960
  N     10.808240   -4.269820    5.099570
  S     12.025850   -5.288210    5.414300
  N     12.564560   -5.474340    3.899220
  C     11.809000   -4.745980    3.092870
  C     11.855340   -4.655230    1.683470
  C     10.935190   -3.847650    0.948580
  N     11.113260   -4.103150   -0.395440
  C     10.265310   -3.818430   -1.531090
  C     10.899900   -2.803320   -2.481470
  C     12.133370   -5.006960   -0.523270
  C     12.622240   -5.353780    0.744010
  S     13.893340   -6.524710    0.707870
  C     13.753310   -6.572560   -1.040160
  C     12.765740   -5.709660   -1.551420
  S     12.649990   -5.807780   -3.267310
  C     13.934580   -7.018490   -3.297560
  C     14.422800   -7.305570   -2.008110
  C     15.476620   -8.311020   -1.678210
  C     14.882240   -9.719590   -1.595150
  C     14.414870   -7.648770   -4.446530
  C     14.045880   -7.526820   -5.766890
  C     14.614000   -8.281590   -6.865190
  C     15.599030   -9.234780   -6.807230
  C     16.094890   -9.928910   -7.931250
  N     16.543930  -10.530380   -8.799760
  C     16.262410   -9.669560   -5.641050
  N     16.850210  -10.083040   -4.744140
  C     13.936550   -7.848490   -8.087670
  C     14.079450   -8.242400   -9.407340
  C     13.279990   -7.640180  -10.373880
  Cl    13.450070   -8.124850  -12.012810
  C     12.347860   -6.654600  -10.033840
  Cl    11.378890   -5.930650  -11.253060
  C     12.200610   -6.257630   -8.710360
  C     12.994160   -6.859650   -7.756540
  C     13.026720   -6.622870   -6.299550
  O     12.338350   -5.824820   -5.686840
  H      4.163770    3.756250   -1.613050
  H      1.439790    5.992140    1.900040
  H      4.550700    2.233750    4.476660
  H      5.627450    1.491040    6.120940
  H      6.572350    0.051620    6.525600
  H      3.731490    0.015390    5.389490
  H      4.174990   -0.262440    7.073900
  H      4.687030   -1.404780    5.826790
  H      8.276210   -0.613240    0.047960
  H      9.467740   -1.621510   -0.777820
  H     11.304990   -0.477820    0.484340
  H     10.103420    0.551030    1.269740
  H     10.349460    0.663230   -0.473310
  H      9.287100   -3.498250   -1.169540
  H     10.121820   -4.757500   -2.076720
  H     10.182020   -2.514100   -3.243770
  H     11.758370   -3.247630   -2.977190
  H     11.235390   -1.914220   -1.953020
  H     15.904890   -8.048900   -0.708930
  H     16.276160   -8.298710   -2.420000
  H     14.107540   -9.759060   -0.833360
  H     15.661430  -10.431480   -1.339260
  H     14.448990  -10.013060   -2.548050
  H     15.204830   -8.358750   -4.243970
  H     14.786320   -8.997390   -9.709380
  H     11.485170   -5.499550   -8.433700

----------------------------
CARTESIAN COORDINATES (A.U.)
----------------------------
  NO LB      ZA    FRAG     MASS         X           Y           Z
   0 C     6.0000    0    12.011    8.688110    5.434512    2.032041
   1 O     8.0000    0    15.999   10.189706    4.106885    0.897015
   2 C     6.0000    0    12.011    7.009145    7.353094    0.898244
   3 C     6.0000    0    12.011    6.753711    8.015935   -1.609026
   4 C     6.0000    0    12.011    5.020738    9.889012   -2.228497
   5 Cl   17.0000    0    35.453    4.634780   10.762236   -5.330086
   6 C     6.0000    0    12.011    3.590158   11.056032   -0.337562
   7 Cl   17.0000    0    35.453    1.451990   13.366335   -1.127902
   8 C     6.0000    0    12.011    3.859123   10.381834    2.189588
   9 C     6.0000    0    12.011    5.582308    8.514331    2.813991
  10 C     6.0000    0    12.011    6.286646    7.402208    5.245729
  11 C     6.0000    0    12.011    5.323774    8.119756    7.543163
  12 C     6.0000    0    12.011    6.006457    7.101364    9.909233
  13 N     7.0000    0    14.007    6.461635    6.382021   11.906503
  14 C     6.0000    0    12.011    3.493121   10.031781    7.863113
  15 N     7.0000    0    14.007    2.008193   11.562063    8.258632
  16 C     6.0000    0    12.011    8.171308    5.479998    4.747597
  17 C     6.0000    0    12.011    9.253271    3.941610    6.543952
  18 C     6.0000    0    12.011   11.064876    2.036048    6.332510
  19 S    16.0000    0    32.060   12.560480    1.121118    3.492611
  20 C     6.0000    0    12.011   14.280226   -1.125748    5.099048
  21 C     6.0000    0    12.011   13.707393   -1.155265    7.696042
  22 C     6.0000    0    12.011   11.914478    0.615049    8.416368
  23 C     6.0000    0    12.011   10.972411    0.846616   11.066671
  24 C     6.0000    0    12.011    8.533002   -0.668321   11.426380
  25 S    16.0000    0    32.060   15.424587   -3.416285    9.408682
  26 C     6.0000    0    12.011   16.903090   -4.303360    6.634035
  27 C     6.0000    0    12.011   16.097934   -2.945875    4.509624
  28 N     7.0000    0    14.007   17.353261   -3.766262    2.395851
  29 C     6.0000    0    12.011   17.493006   -2.054926    0.265318
  30 C     6.0000    0    12.011   19.510440   -0.036812    0.701429
  31 C     6.0000    0    12.011   18.997662   -5.660032    3.142161
  32 C     6.0000    0    12.011   18.771897   -5.986331    5.809528
  33 C     6.0000    0    12.011   20.374404   -7.628579    7.175215
  34 N     7.0000    0    14.007   20.424614   -8.068790    9.636791
  35 S    16.0000    0    32.060   22.725563   -9.993269   10.231544
  36 N     7.0000    0    14.007   23.743577  -10.345003    7.368458
  37 C     6.0000    0    12.011   22.315776   -8.968602    5.844677
  38 C     6.0000    0    12.011   22.403346   -8.797110    3.181297
  39 C     6.0000    0    12.011   20.664514   -7.271005    1.792556
  40 N     7.0000    0    14.007   21.001018   -7.753830   -0.747273
  41 C     6.0000    0    12.011   19.398625   -7.215787   -2.893341
  42 C     6.0000    0    12.011   20.597826   -5.297507   -4.689299
  43 C     6.0000    0    12.011   22.928746   -9.461783   -0.988837
  44 C     6.0000    0    12.011   23.852577  -10.117178    1.405975
  45 S    16.0000    0    32.060   26.254608  -12.329915    1.337680
  46 C     6.0000    0    12.011   25.989989  -12.420338   -1.965618
  47 C     6.0000    0    12.011   24.123752  -10.789694   -2.931759
  48 S    16.0000    0    32.060   23.905017  -10.975114   -6.174321
  49 C     6.0000    0    12.011   26.332540  -13.263024   -6.231485
  50 C     6.0000    0    12.011   27.255142  -13.805527   -3.794778
  51 C     6.0000    0    12.011   29.246573  -15.705552   -3.171357
  52 C     6.0000    0    12.011   28.123358  -18.367363   -3.014397
  53 C     6.0000    0    12.011   27.240157  -14.454081   -8.402724
  54 C     6.0000    0    12.011   26.542867  -14.223628  -10.897843
  55 C     6.0000    0    12.011   27.616458  -15.649937  -12.973329
  56 C     6.0000    0    12.011   29.477895  -17.451205  -12.863800
  57 C     6.0000    0    12.011   30.414934  -18.762921  -14.987890
  58 N     7.0000    0    14.007   31.263497  -19.899534  -16.629136
  59 C     6.0000    0    12.011   30.731501  -18.272820  -10.660040
  60 N     7.0000    0    14.007   31.842282  -19.054184   -8.965125
  61 C     6.0000    0    12.011   26.336263  -14.831497  -15.283481
  62 C     6.0000    0    12.011   26.606305  -15.575879  -17.777296
  63 C     6.0000    0    12.011   25.095544  -14.437848  -19.603792
  64 Cl   17.0000    0    35.453   25.416949  -15.353741  -22.700921
  65 C     6.0000    0    12.011   23.334074  -12.575372  -18.961210
  66 Cl   17.0000    0    35.453   21.502986  -11.207304  -21.265202
  67 C     6.0000    0    12.011   23.055812  -11.825207  -16.460195
  68 C     6.0000    0    12.011   24.555404  -12.962860  -14.657736
  69 C     6.0000    0    12.011   24.616933  -12.515411  -11.904424
  70 O     8.0000    0    15.999   23.316102  -11.007315  -10.746570
  71 H     1.0000    0     1.008    7.868385    7.098284   -3.048223
  72 H     1.0000    0     1.008    2.720809   11.323504    3.590555
  73 H     1.0000    0     1.008    8.599577    4.221176    8.459661
  74 H     1.0000    0     1.008   10.634339    2.817657   11.566900
  75 H     1.0000    0     1.008   12.419942    0.097548   12.331597
  76 H     1.0000    0     1.008    7.051494    0.029083   10.184660
  77 H     1.0000    0     1.008    7.889588   -0.495940   13.367734
  78 H     1.0000    0     1.008    8.857203   -2.654649   11.011037
  79 H     1.0000    0     1.008   15.639770   -1.158856    0.090631
  80 H     1.0000    0     1.008   17.891436   -3.064210   -1.469867
  81 H     1.0000    0     1.008   21.363335   -0.902949    0.915270
  82 H     1.0000    0     1.008   19.092697    1.041296    2.399461
  83 H     1.0000    0     1.008   19.557645    1.253323   -0.894426
  84 H     1.0000    0     1.008   17.550076   -6.610734   -2.210110
  85 H     1.0000    0     1.008   19.127468   -8.990372   -3.924432
  86 H     1.0000    0     1.008   19.241229   -4.750960   -6.129837
  87 H     1.0000    0     1.008   22.220099   -6.137131   -5.626074
  88 H     1.0000    0     1.008   21.231810   -3.617352   -3.690673
  89 H     1.0000    0     1.008   30.055886  -15.210217   -1.339684
  90 H     1.0000    0     1.008   30.757485  -15.682289   -4.573137
  91 H     1.0000    0     1.008   26.659387  -18.441951   -1.574822
  92 H     1.0000    0     1.008   29.595814  -19.712640   -2.530835
  93 H     1.0000    0     1.008   27.304634  -18.921941   -4.815117
  94 H     1.0000    0     1.008   28.732965  -15.795748   -8.019941
  95 H     1.0000    0     1.008   27.942095  -17.002603  -18.348069
  96 H     1.0000    0     1.008   21.703826  -10.392643  -15.937383

--------------------------------
INTERNAL COORDINATES (ANGSTROEM)
--------------------------------
 C      0   0   0     0.000000000000     0.00000000     0.00000000
 O      1   0   0     1.218908508256     0.00000000     0.00000000
 C      1   2   0     1.476525690328   126.04064998     0.00000000
 C      3   1   2     1.379012404078   128.67014991     0.99477189
 C      4   3   1     1.389567455973   118.23549971   179.66293950
 Cl     5   4   3     1.717286816405   119.72882151   180.25929506
 C      5   4   3     1.398483172620   120.22804187     0.09328301
 Cl     7   5   4     1.717496331117   119.78313861   180.06829889
 C      7   5   4     1.391380860117   121.27239477     0.00000000
 C      9   7   5     1.384666953061   118.66734325   359.93182198
 C     10   9   7     1.463273703345   131.65449373   180.11474780
 C     11  10   9     1.371804857660   124.99029215   358.16324037
 C     12  11  10     1.410181570082   125.86958555   181.08838063
 N     13  12  11     1.148903451383   175.64448922   176.84399357
 C     12  11  10     1.410979200307   124.04514955     0.52924921
 N     15  12  11     1.147620258709   176.36369534   179.36277166
 C     11  10   9     1.448726212402   107.32100364   178.95091971
 C     17  11  10     1.376285252773   125.17146526   182.23922279
 C     18  17  11     1.395843326488   131.12184103   179.96063783
 S     19  18  17     1.766133085387   125.03070636     1.45971078
 C     20  19  18     1.721784315964    90.34645638   179.90120575
 C     21  20  19     1.407391137602   112.08178270     0.15290555
 C     22  21  20     1.386750042870   114.09593088   359.63421756
 C     23  22  21     1.493481969225   122.81482650   177.94709764
 C     24  23  22     1.531430405144   110.80180002   265.27048550
 S     22  21  20     1.754611536637   113.60228246   180.12011842
 C     26  22  21     1.728680250046    88.90285122     0.10043886
 C     21  20  19     1.396501582205   136.89160742   179.86702191
 N     28  21  20     1.371468750865   137.23183189     0.49549589
 C     29  28  21     1.447991148937   117.50323224    21.26598935
 C     30  29  28     1.527573994411   110.81163226    78.16246076
 C     29  28  21     1.384726513395   107.50901200   178.77067043
 C     27  26  22     1.400535436574   139.18808258   177.60549338
 C     33  27  26     1.413022405272   130.95900681   355.30975189
 N     34  33  27     1.323542398074   128.58358351     3.32879406
 S     35  34  33     1.618254391961   108.49842600   183.14005333
 N     36  35  34     1.618740327353    98.09016806   359.87210828
 C     37  36  35     1.323472525480   108.48046032   359.95557239
 C     38  37  36     1.413078666635   128.63114480   183.92187589
 C     32  29  28     1.419444298344   132.97280972   176.37028477
 N     40  32  29     1.379629999420   132.96756538   350.02794967
 C     41  40  32     1.445609076964   130.77761882   344.01629001
 C     42  41  40     1.528520501858   112.06919699   114.49082548
 C     41  40  32     1.368881819990   108.02508597   178.90842395
 C     39  38  37     1.399533066455   130.95258160     5.01390126
 S     45  39  38     1.728605904913   139.03204401   355.20564327
 C     46  45  39     1.754282447128    88.88915663   175.38375190
 C     44  41  40     1.396700228897   137.58919872   176.69844198
 S     48  44  41     1.722586453273   137.01234674     2.16281101
 C     49  48  44     1.765475923002    90.41465676   180.67565166
 C     47  46  45     1.386523610582   132.18312411   180.83966056
 C     51  47  46     1.493418998439   122.84959745     1.41658304
 C     52  51  47     1.531096336910   110.94219337    94.91050010
 C     50  49  48     1.395730426479   125.04123590   178.52767251
 C     54  50  49     1.376363306762   131.10515333   359.26658633
 C     55  54  50     1.448689399871   125.16888367   181.84342145
 C     56  55  54     1.371938277985   127.69924915     0.00000000
 C     57  56  55     1.411068586887   124.08520693   179.81248717
 N     58  57  56     1.147916679293   176.28307288   180.34904469
 C     57  56  55     1.410348348884   125.93256632   359.89425042
 N     60  57  56     1.149313751114   175.38002121   178.61146400
 C     56  55  54     1.463205885342   107.31504216   179.75599698
 C     62  56  55     1.384599005850   131.62937602   180.45885407
 C     63  62  56     1.391403892333   118.66211573   179.99355980
 Cl    64  63  62     1.717534209325   118.93563163   180.07385379
 C     64  63  62     1.398521174277   121.27030336     0.06898822
 Cl    66  64  63     1.717411969156   120.03346159   179.91127791
 C     66  64  63     1.389556423396   120.23436502   359.86392459
 C     68  66  64     1.379101981472   118.23256097     0.02607720
 C     55  54  50     1.462716439950   126.22027843     1.95325074
 O     70  55  54     1.219077767618   127.94963132     0.43853763
 H      4   3   1     1.078777784208   120.74038562   359.82274606
 H      9   7   5     1.077393671134   119.05025254   180.07337425
 H     18  17  11     1.081312143879   115.69146741     0.48593526
 H     24  23  22     1.090865791470   111.16583064   143.39488043
 H     24  23  22     1.091758777844   108.16556992    24.65796185
 H     25  24  23     1.087469452904   110.78900860   299.09603513
 H     25  24  23     1.086109617488   109.74573739   179.32288733
 H     25  24  23     1.087471255758   110.35756536    59.46301751
 H     30  29  28     1.093226738650   106.93550484   318.68935338
 H     30  29  28     1.082974423567   111.20280141   200.43412925
 H     31  30  29     1.088246571922   110.54532363    61.09757568
 H     31  30  29     1.087087511335   110.46626957   300.91870675
 H     31  30  29     1.086222953449   109.75622272   181.30988264
 H     42  41  40     1.090930079794   108.86943039   349.33522291
 H     42  41  40     1.095515377300   107.41357501   233.32227086
 H     43  42  41     1.086324625883   109.80151635   187.71412470
 H     43  42  41     1.086333482592   109.88828941    68.92102321
 H     43  42  41     1.087341598855   111.65090759   308.85381273
 H     52  51  47     1.091616143935   108.13916777   335.46418418
 H     52  51  47     1.090719098485   111.06526541   216.79256264
 H     53  52  51     1.087217538030   110.36664350   300.77378416
 H     53  52  51     1.086003738622   109.71288911   180.88840874
 H     53  52  51     1.087128609411   110.82449774    61.22769896
 H     54  50  49     1.081267291469   113.18514197   179.99919304
 H     63  62  56     1.077452207107   122.29251002     0.00000000
 H     68  66  64     1.078462069616   121.02720217   180.05951925

---------------------------
INTERNAL COORDINATES (A.U.)
---------------------------
 C      0   0   0     0.000000000000     0.00000000     0.00000000
 O      1   0   0     2.303403262911     0.00000000     0.00000000
 C      1   2   0     2.790229184420   126.04064998     0.00000000
 C      3   1   2     2.605955778987   128.67014991     0.99477189
 C      4   3   1     2.625901936399   118.23549971   179.66293950
 Cl     5   4   3     3.245201776400   119.72882151   180.25929506
 C      5   4   3     2.642750199148   120.22804187     0.09328301
 Cl     7   5   4     3.245597701825   119.78313861   180.06829889
 C      7   5   4     2.629328773601   121.27239477     0.00000000
 C      9   7   5     2.616641327977   118.66734325   359.93182198
 C     10   9   7     2.765186558290   131.65449373   180.11474780
 C     11  10   9     2.592335490161   124.99029215   358.16324037
 C     12  11  10     2.664856966559   125.86958555   181.08838063
 N     13  12  11     2.171112877431   175.64448922   176.84399357
 C     12  11  10     2.666364269240   124.04514955     0.52924921
 N     15  12  11     2.168687994700   176.36369534   179.36277166
 C     11  10   9     2.737695784472   107.32100364   178.95091971
 C     17  11  10     2.600802209895   125.17146526   182.23922279
 C     18  17  11     2.637761612923   131.12184103   179.96063783
 S     19  18  17     3.337507847440   125.03070636     1.45971078
 C     20  19  18     3.253700818853    90.34645638   179.90120575
 C     21  20  19     2.659583813375   112.08178270     0.15290555
 C     22  21  20     2.620577797228   114.09593088   359.63421756
 C     23  22  21     2.822271907785   122.81482650   177.94709764
 C     24  23  22     2.893984058883   110.80180002   265.27048550
 S     22  21  20     3.315735275663   113.60228246   180.12011842
 C     26  22  21     3.266732245706    88.90285122     0.10043886
 C     21  20  19     2.639005535954   136.89160742   179.86702191
 N     28  21  20     2.591700340366   137.23183189     0.49549589
 C     29  28  21     2.736306715833   117.50323224    21.26598935
 C     30  29  28     2.886696498736   110.81163226    78.16246076
 C     29  28  21     2.616753880697   107.50901200   178.77067043
 C     27  26  22     2.646628415977   139.18808258   177.60549338
 C     33  27  26     2.670225367058   130.95900681   355.30975189
 N     34  33  27     2.501132658994   128.58358351     3.32879406
 S     35  34  33     3.058057615821   108.49842600   183.14005333
 N     36  35  34     3.058975900632    98.09016806   359.87210828
 C     37  36  35     2.501000618926   108.48046032   359.95557239
 C     38  37  36     2.670331685627   128.63114480   183.92187589
 C     32  29  28     2.682360986225   132.97280972   176.37028477
 N     40  32  29     2.607122865046   132.96756538   350.02794967
 C     41  40  32     2.731805252172   130.77761882   344.01629001
 C     42  41  40     2.888485138595   112.06919699   114.49082548
 C     41  40  32     2.586811749485   108.02508597   178.90842395
 C     39  38  37     2.644734210966   130.95258160     5.01390126
 S     45  39  38     3.266591753765   139.03204401   355.20564327
 C     46  45  39     3.315113386616    88.88915663   175.38375190
 C     44  41  40     2.639380923800   137.58919872   176.69844198
 S     48  44  41     3.255216638689   137.01234674     2.16281101
 C     49  48  44     3.336265990506    90.41465676   180.67565166
 C     47  46  45     2.620149902215   132.18312411   180.83966056
 C     51  47  46     2.822152910246   122.84959745     1.41658304
 C     52  51  47     2.893352761410   110.94219337    94.91050010
 C     50  49  48     2.637548262827   125.04123590   178.52767251
 C     54  50  49     2.600949710558   131.10515333   359.26658633
 C     55  54  50     2.737626218872   125.16888367   181.84342145
 C     56  55  54     2.592587618035   127.69924915     0.00000000
 C     57  56  55     2.666533185396   124.08520693   179.81248717
 N     58  57  56     2.169248148425   176.28307288   180.34904469
 C     57  56  55     2.665172132819   125.93256632   359.89425042
 N     60  57  56     2.171888231555   175.38002121   178.61146400
 C     56  55  54     2.765058400839   107.31504216   179.75599698
 C     62  56  55     2.616512926356   131.62937602   180.45885407
 C     63  62  56     2.629372298182   118.66211573   179.99355980
 Cl    64  63  62     3.245669281264   118.93563163   180.07385379
 C     64  63  62     2.642822011873   121.27030336     0.06898822
 Cl    66  64  63     3.245438280823   120.03346159   179.91127791
 C     66  64  63     2.625881087849   120.23436502   359.86392459
 C     68  66  64     2.606125055730   118.23256097     0.02607720
 C     55  54  50     2.764133483090   126.22027843     1.95325074
 O     70  55  54     2.303723116750   127.94963132     0.43853763
 H      4   3   1     2.038594571511   120.74038562   359.82274606
 H      9   7   5     2.035978976864   119.05025254   180.07337425
 H     18  17  11     2.043383817214   115.69146741     0.48593526
 H     24  23  22     2.061437594742   111.16583064   143.39488043
 H     24  23  22     2.063125094430   108.16556992    24.65796185
 H     25  24  23     2.055019444994   110.78900860   299.09603513
 H     25  24  23     2.052449728470   109.74573739   179.32288733
 H     25  24  23     2.055022851894   110.35756536    59.46301751
 H     30  29  28     2.065899138329   106.93550484   318.68935338
 H     30  29  28     2.046525070583   111.20280141   200.43412925
 H     31  30  29     2.056487987111   110.54532363    61.09757568
 H     31  30  29     2.054297680029   110.46626957   300.91870675
 H     31  30  29     2.052663902398   109.75622272   181.30988264
 H     42  41  40     2.061559082068   108.86943039   349.33522291
 H     42  41  40     2.070224038596   107.41357501   233.32227086
 H     43  42  41     2.052856035453   109.80151635   187.71412470
 H     43  42  41     2.052872772207   109.88828941    68.92102321
 H     43  42  41     2.054777835856   111.65090759   308.85381273
 H     52  51  47     2.062855555405   108.13916777   335.46418418
 H     52  51  47     2.061160385174   111.06526541   216.79256264
 H     53  52  51     2.054543394873   110.36664350   300.77378416
 H     53  52  51     2.052249646409   109.71288911   180.88840874
 H     53  52  51     2.054375344138   110.82449774    61.22769896
 H     54  50  49     2.043299058443   113.18514197   179.99919304
 H     63  62  56     2.036089593821   122.29251002     0.00000000
 H     68  66  64     2.037997957396   121.02720217   180.05951925

---------------------
BASIS SET INFORMATION
---------------------
There are 6 groups of distinct atoms

 Group   1 Type C   : 7s4p1d contracted to 3s2p1d pattern {511/31/1}
 Group   2 Type O   : 7s4p1d contracted to 3s2p1d pattern {511/31/1}
 Group   3 Type Cl  : 10s7p1d contracted to 4s3p1d pattern {5311/511/1}
 Group   4 Type N   : 7s4p1d contracted to 3s2p1d pattern {511/31/1}
 Group   5 Type S   : 10s7p1d contracted to 4s3p1d pattern {5311/511/1}
 Group   6 Type H   : 4s1p contracted to 2s1p pattern {31/1}

Atom   0C    basis set group =>   1
Atom   1O    basis set group =>   2
Atom   2C    basis set group =>   1
Atom   3C    basis set group =>   1
Atom   4C    basis set group =>   1
Atom   5Cl   basis set group =>   3
Atom   6C    basis set group =>   1
Atom   7Cl   basis set group =>   3
Atom   8C    basis set group =>   1
Atom   9C    basis set group =>   1
Atom  10C    basis set group =>   1
Atom  11C    basis set group =>   1
Atom  12C    basis set group =>   1
Atom  13N    basis set group =>   4
Atom  14C    basis set group =>   1
Atom  15N    basis set group =>   4
Atom  16C    basis set group =>   1
Atom  17C    basis set group =>   1
Atom  18C    basis set group =>   1
Atom  19S    basis set group =>   5
Atom  20C    basis set group =>   1
Atom  21C    basis set group =>   1
Atom  22C    basis set group =>   1
Atom  23C    basis set group =>   1
Atom  24C    basis set group =>   1
[...]
      pz      :     1.693498  p :     4.589853
      px      :     1.453391
      py      :     1.442963
      dz2     :     0.004130  d :     0.030333
      dxz     :     0.006326
      dyz     :     0.006158
      dx2y2   :     0.005230
      dxy     :     0.008490
 71 H s       :     0.886651  s :     0.886651
      pz      :     0.026823  p :     0.069587
      px      :     0.021528
      py      :     0.021236
 72 H s       :     0.880881  s :     0.880881
      pz      :     0.030325  p :     0.076273
      px      :     0.023171
      py      :     0.022777
 73 H s       :     0.875781  s :     0.875781
      pz      :     0.047561  p :     0.078183
      px      :     0.015679
      py      :     0.014944
 74 H s       :     0.892692  s :     0.892692
      pz      :     0.013352  p :     0.067161
      px      :     0.012875
      py      :     0.040934
 75 H s       :     0.904349  s :     0.904349
      pz      :     0.024273  p :     0.065177
      px      :     0.023664
      py      :     0.017240
 76 H s       :     0.912393  s :     0.912393
      pz      :     0.022403  p :     0.065401
      px      :     0.025434
      py      :     0.017565
 77 H s       :     0.901309  s :     0.901309
      pz      :     0.037182  p :     0.064469
      px      :     0.014460
      py      :     0.012828
 78 H s       :     0.910204  s :     0.910204
      pz      :     0.013028  p :     0.064236
      px      :     0.011851
      py      :     0.039356
 79 H s       :     0.905419  s :     0.905419
      pz      :     0.010983  p :     0.066867
      px      :     0.028109
      py      :     0.027775
 80 H s       :     0.908948  s :     0.908948
      pz      :     0.037330  p :     0.069295
      px      :     0.014149
      py      :     0.017816
 81 H s       :     0.905541  s :     0.905541
      pz      :     0.012483  p :     0.065964
      px      :     0.027436
      py      :     0.026045
 82 H s       :     0.899263  s :     0.899263
      pz      :     0.034328  p :     0.064950
      px      :     0.012258
      py      :     0.018364
 83 H s       :     0.898895  s :     0.898895
      pz      :     0.026781  p :     0.065008
      px      :     0.013215
      py      :     0.025013
 84 H s       :     0.903020  s :     0.903020
      pz      :     0.015579  p :     0.067759
      px      :     0.033704
      py      :     0.018477
 85 H s       :     0.901884  s :     0.901884
      pz      :     0.017352  p :     0.065300
      px      :     0.014111
      py      :     0.033837
 86 H s       :     0.896415  s :     0.896415
      pz      :     0.026345  p :     0.064990
      px      :     0.024627
      py      :     0.014018
 87 H s       :     0.908562  s :     0.908562
      pz      :     0.019576  p :     0.068076
      px      :     0.030210
      py      :     0.018290
 88 H s       :     0.906841  s :     0.906841
      pz      :     0.017241  p :     0.066137
      px      :     0.016549
      py      :     0.032346
 89 H s       :     0.901282  s :     0.901282
      pz      :     0.028696  p :     0.065232
      px      :     0.021863
      py      :     0.014673
 90 H s       :     0.895534  s :     0.895534
      pz      :     0.031281  p :     0.069080
      px      :     0.024755
      py      :     0.013044
 91 H s       :     0.913164  s :     0.913164
      pz      :     0.029072  p :     0.064524
      px      :     0.023395
      py      :     0.012058
 92 H s       :     0.901764  s :     0.901764
      pz      :     0.013491  p :     0.064521
      px      :     0.026113
      py      :     0.024916
 93 H s       :     0.908915  s :     0.908915
      pz      :     0.028903  p :     0.064398
      px      :     0.019654
      py      :     0.015840
 94 H s       :     0.874663  s :     0.874663
      pz      :     0.014218  p :     0.079465
      px      :     0.033767
      py      :     0.031480
 95 H s       :     0.880199  s :     0.880199
      pz      :     0.013978  p :     0.076071
      px      :     0.031328
      py      :     0.030765
 96 H s       :     0.886409  s :     0.886409
      pz      :     0.013098  p :     0.069609
      px      :     0.028495
      py      :     0.028016


                      *****************************
                      * MAYER POPULATION ANALYSIS *
                      *****************************

  NA   - Mulliken gross atomic population
  ZA   - Total nuclear charge
  QA   - Mulliken gross atomic charge
  VA   - Mayer's total valence
  BVA  - Mayer's bonded valence
  FA   - Mayer's free valence

  ATOM       NA         ZA         QA         VA         BVA        FA
  0 C      5.8601     6.0000     0.1399     4.0838     4.0838     0.0000
  1 O      8.1881     8.0000    -0.1881     2.3451     2.3451     0.0000
  2 C      6.0082     6.0000    -0.0082     3.6979     3.6979     0.0000
  3 C      6.0236     6.0000    -0.0236     3.8201     3.8201    -0.0000
  4 C      5.9361     6.0000     0.0639     3.9114     3.9114     0.0000
  5 Cl    17.0488    17.0000    -0.0488     1.1976     1.1976     0.0000
  6 C      5.9650     6.0000     0.0350     3.9804     3.9804     0.0000
  7 Cl    17.0383    17.0000    -0.0383     1.2132     1.2132     0.0000
  8 C      6.0048     6.0000    -0.0048     3.7774     3.7774     0.0000
  9 C      5.9575     6.0000     0.0425     3.7304     3.7304     0.0000
 10 C      5.7344     6.0000     0.2656     3.8626     3.8626     0.0000
 11 C      6.3159     6.0000    -0.3159     4.0094     4.0094    -0.0000
 12 C      6.1389     6.0000    -0.1389     4.1853     4.1853    -0.0000
 13 N      6.9131     7.0000     0.0869     3.1363     3.1363     0.0000
 14 C      6.1421     6.0000    -0.1421     4.1751     4.1751     0.0000
 15 N      6.8961     7.0000     0.1039     3.1200     3.1200     0.0000
 16 C      6.0672     6.0000    -0.0672     3.6458     3.6458     0.0000
 17 C      6.0414     6.0000    -0.0414     3.8706     3.8706     0.0000
 18 C      6.0762     6.0000    -0.0762     3.8397     3.8397     0.0000
 19 S     15.8156    16.0000     0.1844     2.4514     2.4514     0.0000
 20 C      6.0339     6.0000    -0.0339     3.8960     3.8960    -0.0000
 21 C      6.0792     6.0000    -0.0792     3.9934     3.9934     0.0000
 22 C      6.0662     6.0000    -0.0662     4.1240     4.1240    -0.0000
 23 C      5.9392     6.0000     0.0608     4.0446     4.0446    -0.0000
 24 C      5.9837     6.0000     0.0163     4.0270     4.0270     0.0000
 25 S     15.8044    16.0000     0.1956     2.3435     2.3435    -0.0000
 26 C      6.0874     6.0000    -0.0874     3.8854     3.8854     0.0000
 27 C      5.9468     6.0000     0.0532     4.1193     4.1193    -0.0000
 28 N      7.2057     7.0000    -0.2057     3.3313     3.3313    -0.0000
 29 C      5.8921     6.0000     0.1079     4.0361     4.0361    -0.0000
 30 C      6.0095     6.0000    -0.0095     4.0249     4.0249     0.0000
 31 C      5.9606     6.0000     0.0394     3.9052     3.9052    -0.0000
 32 C      6.0202     6.0000    -0.0202     3.9914     3.9914    -0.0000
 33 C      6.0131     6.0000    -0.0131     3.9317     3.9317    -0.0000
 34 N      7.2785     7.0000    -0.2785     3.0176     3.0176     0.0000
 35 S     15.5465    16.0000     0.4535     2.6683     2.6683     0.0000
 36 N      7.2779     7.0000    -0.2779     3.0139     3.0139     0.0000
 37 C      6.0001     6.0000    -0.0001     3.9330     3.9330     0.0000
 38 C      6.0297     6.0000    -0.0297     3.9731     3.9731     0.0000
 39 C      5.9312     6.0000     0.0688     3.8818     3.8818     0.0000
 40 N      7.1999     7.0000    -0.1999     3.3627     3.3627    -0.0000
 41 C      5.9010     6.0000     0.0990     4.0170     4.0170    -0.0000
 42 C      5.9988     6.0000     0.0012     3.9940     3.9940     0.0000
 43 C      5.9473     6.0000     0.0527     4.1119     4.1119     0.0000
 44 C      6.0945     6.0000    -0.0945     3.8920     3.8920     0.0000
 45 S     15.8034    16.0000     0.1966     2.3490     2.3490    -0.0000
 46 C      6.0725     6.0000    -0.0725     3.9790     3.9790     0.0000
 47 C      6.0364     6.0000    -0.0364     3.8977     3.8977    -0.0000
 48 S     15.8124    16.0000     0.1876     2.4532     2.4532     0.0000
 49 C      6.0805     6.0000    -0.0805     3.8466     3.8466    -0.0000
 50 C      6.0724     6.0000    -0.0724     4.1234     4.1234     0.0000
 51 C      5.9544     6.0000     0.0456     4.0387     4.0387    -0.0000
 52 C      5.9775     6.0000     0.0225     4.0226     4.0226    -0.0000
 53 C      6.0406     6.0000    -0.0406     3.8730     3.8730    -0.0000
 54 C      6.0588     6.0000    -0.0588     3.6419     3.6419    -0.0000
 55 C      5.7350     6.0000     0.2650     3.8578     3.8578    -0.0000
 56 C      6.3234     6.0000    -0.3234     4.0134     4.0134     0.0000
 57 C      6.1413     6.0000    -0.1413     4.1734     4.1734     0.0000
 58 N      6.8938     7.0000     0.1062     3.1256     3.1256     0.0000
 59 C      6.1292     6.0000    -0.1292     4.1891     4.1891     0.0000
 60 N      6.9122     7.0000     0.0878     3.1490     3.1490     0.0000
 61 C      5.9589     6.0000     0.0411     3.7463     3.7463    -0.0000
 62 C      6.0151     6.0000    -0.0151     3.7790     3.7790    -0.0000
 63 C      5.9544     6.0000     0.0456     3.9706     3.9706    -0.0000
 64 Cl    17.0391    17.0000    -0.0391     1.2110     1.2110    -0.0000
 65 C      5.9404     6.0000     0.0596     3.9191     3.9191    -0.0000
 66 Cl    17.0453    17.0000    -0.0453     1.2009     1.2009     0.0000
 67 C      6.0323     6.0000    -0.0323     3.8153     3.8153    -0.0000
 68 C      6.0026     6.0000    -0.0026     3.6888     3.6888    -0.0000
 69 C      5.8602     6.0000     0.1398     4.0839     4.0839     0.0000
 70 O      8.1871     8.0000    -0.1871     2.3463     2.3463     0.0000
 71 H      1.0068     1.0000    -0.0068     1.0134     1.0134    -0.0000
 72 H      1.0034     1.0000    -0.0034     1.0606     1.0606     0.0000
 73 H      1.0139     1.0000    -0.0139     1.0466     1.0466    -0.0000
 74 H      0.9599     1.0000     0.0401     0.9990     0.9990     0.0000
 75 H      0.9950     1.0000     0.0050     0.9820     0.9820     0.0000
 76 H      0.9864     1.0000     0.0136     1.0051     1.0051     0.0000
 77 H      0.9672     1.0000     0.0328     0.9879     0.9879     0.0000
 78 H      0.9795     1.0000     0.0205     0.9852     0.9852     0.0000
 79 H      0.9610     1.0000     0.0390     1.0002     1.0002    -0.0000
 80 H      0.9923     1.0000     0.0077     1.0031     1.0031    -0.0000
 81 H      0.9627     1.0000     0.0373     0.9984     0.9984     0.0000
 82 H      0.9643     1.0000     0.0357     0.9913     0.9913    -0.0000
 83 H      0.9621     1.0000     0.0379     0.9856     0.9856     0.0000
 84 H      0.9664     1.0000     0.0336     0.9956     0.9956     0.0000
 85 H      0.9646     1.0000     0.0354     0.9906     0.9906    -0.0000
 86 H      0.9645     1.0000     0.0355     0.9883     0.9883     0.0000
 87 H      0.9653     1.0000     0.0347     1.0133     1.0133    -0.0000
 88 H      0.9776     1.0000     0.0224     1.0104     1.0104    -0.0000
 89 H      0.9859     1.0000     0.0141     0.9805     0.9805    -0.0000
 90 H      0.9617     1.0000     0.0383     1.0179     1.0179    -0.0000
 91 H      0.9822     1.0000     0.0178     0.9941     0.9941    -0.0000
 92 H      0.9658     1.0000     0.0342     0.9848     0.9848    -0.0000
 93 H      0.9830     1.0000     0.0170     0.9928     0.9928    -0.0000
 94 H      1.0254     1.0000    -0.0254     1.0491     1.0491     0.0000
 95 H      0.9997     1.0000     0.0003     1.0595     1.0595     0.0000
 96 H      1.0051     1.0000    -0.0051     1.0136     1.0136    -0.0000

  Mayer bond orders larger than 0.100000
B(  0-C ,  1-O ) :   2.1211 B(  0-C ,  2-C ) :   0.9579 B(  0-C , 16-C ) :   0.9789 
B(  2-C ,  3-C ) :   1.3391 B(  2-C ,  9-C ) :   1.3161 B(  3-C ,  4-C ) :   1.3246 
B(  3-C , 71-H ) :   1.0069 B(  4-C ,  5-Cl) :   1.0410 B(  4-C ,  6-C ) :   1.3906 
B(  6-C ,  7-Cl) :   1.0751 B(  6-C ,  8-C ) :   1.3452 B(  8-C ,  9-C ) :   1.3275 
B(  8-C , 72-H ) :   0.9805 B(  9-C , 10-C ) :   0.9941 B( 10-C , 11-C ) :   1.5592 
B( 10-C , 16-C ) :   1.1222 B( 11-C , 12-C ) :   1.1587 B( 11-C , 14-C ) :   1.1456 
B( 12-C , 13-N ) :   2.9069 B( 14-C , 15-N ) :   2.9266 B( 16-C , 17-C ) :   1.4385 
B( 17-C , 18-C ) :   1.3281 B( 17-C , 73-H ) :   0.9189 B( 18-C , 19-S ) :   1.0364 
B( 18-C , 22-C ) :   1.3311 B( 19-S , 20-C ) :   1.0384 B( 20-C , 21-C ) :   1.3583 
B( 20-C , 27-C ) :   1.3083 B( 21-C , 22-C ) :   1.4221 B( 21-C , 25-S ) :   1.0234 
B( 22-C , 23-C ) :   1.0870 B( 23-C , 24-C ) :   1.1078 B( 23-C , 74-H ) :   0.8973 
B( 23-C , 75-H ) :   0.9162 B( 24-C , 76-H ) :   0.9662 B( 24-C , 77-H ) :   0.9627 
B( 24-C , 78-H ) :   0.9651 B( 25-S , 26-C ) :   1.0306 B( 26-C , 27-C ) :   1.3879 
B( 26-C , 32-C ) :   1.3285 B( 27-C , 28-N ) :   1.1291 B( 28-N , 29-C ) :   0.9473 
B( 28-N , 31-C ) :   1.1390 B( 29-C , 30-C ) :   1.1244 B( 29-C , 79-H ) :   0.9337 
B( 29-C , 80-H ) :   0.9364 B( 30-C , 81-H ) :   0.9544 B( 30-C , 82-H ) :   0.9593 
B( 30-C , 83-H ) :   0.9588 B( 31-C , 32-C ) :   1.3749 B( 31-C , 39-C ) :   1.1552 
B( 32-C , 33-C ) :   1.1139 B( 33-C , 34-N ) :   1.6150 B( 33-C , 37-C ) :   1.0938 
B( 34-N , 35-S ) :   1.1981 B( 34-N , 36-N ) :   0.1356 B( 35-S , 36-N ) :   1.1958 
B( 36-N , 37-C ) :   1.6130 B( 37-C , 38-C ) :   1.1215 B( 38-C , 39-C ) :   1.3266 
B( 38-C , 44-C ) :   1.3563 B( 39-C , 40-N ) :   1.1697 B( 40-N , 41-C ) :   0.9344 
B( 40-N , 43-C ) :   1.1383 B( 41-C , 42-C ) :   1.1092 B( 41-C , 84-H ) :   0.9464 
B( 41-C , 85-H ) :   0.9370 B( 42-C , 86-H ) :   0.9586 B( 42-C , 87-H ) :   0.9510 
B( 42-C , 88-H ) :   0.9577 B( 43-C , 44-C ) :   1.3702 B( 43-C , 47-C ) :   1.3095 
B( 44-C , 45-S ) :   1.0290 B( 45-S , 46-C ) :   1.0256 B( 46-C , 47-C ) :   1.3616 
B( 46-C , 50-C ) :   1.4105 B( 47-C , 48-S ) :   1.0340 B( 48-S , 49-C ) :   1.0371 
B( 49-C , 50-C ) :   1.3345 B( 49-C , 53-C ) :   1.3279 B( 50-C , 51-C ) :   1.0915 
B( 51-C , 52-C ) :   1.1057 B( 51-C , 89-H ) :   0.9113 B( 51-C , 90-H ) :   0.8976 
B( 52-C , 91-H ) :   0.9686 B( 52-C , 92-H ) :   0.9630 B( 52-C , 93-H ) :   0.9656 
B( 53-C , 54-C ) :   1.4463 B( 53-C , 94-H ) :   0.9202 B( 54-C , 55-C ) :   1.1190 
B( 54-C , 69-C ) :   0.9703 B( 55-C , 56-C ) :   1.5623 B( 55-C , 61-C ) :   0.9926 
B( 56-C , 57-C ) :   1.1423 B( 56-C , 59-C ) :   1.1602 B( 57-C , 58-N ) :   2.9314 
B( 59-C , 60-N ) :   2.9133 B( 61-C , 62-C ) :   1.3321 B( 61-C , 68-C ) :   1.3235 
B( 62-C , 63-C ) :   1.3423 B( 62-C , 95-H ) :   0.9812 B( 63-C , 64-Cl) :   1.0709 
B( 63-C , 65-C ) :   1.3914 B( 65-C , 66-Cl) :   1.0442 B( 65-C , 67-C ) :   1.3274 
B( 67-C , 68-C ) :   1.3254 B( 67-C , 96-H ) :   1.0112 B( 68-C , 69-C ) :   0.9596 
B( 69-C , 70-O ) :   2.1283 

-------
TIMINGS
-------

Total SCF time: 0 days 0 hours 22 min 40 sec 

Total time                  ....    1360.651 sec
Sum of individual times     ....    1357.870 sec  ( 99.8%)

Fock matrix formation       ....    1301.593 sec  ( 95.7%)
  Split-RI-J                ....     137.492 sec  ( 10.6% of F)
  Chain of spheres X        ....    1134.769 sec  ( 87.2% of F)
  COS-X 1 center corr.      ....       0.000 sec  (  0.0% of F)
  XC integration            ....      28.659 sec  (  2.2% of F)
    Basis function eval.    ....      10.337 sec  ( 36.1% of XC)
    Density eval.           ....       8.044 sec  ( 28.1% of XC)
    XC-Functional eval.     ....       1.334 sec  (  4.7% of XC)
    XC-Potential eval.      ....       7.946 sec  ( 27.7% of XC)
Diagonalization             ....       0.457 sec  (  0.0%)
Density matrix formation    ....       1.320 sec  (  0.1%)
Population analysis         ....       0.268 sec  (  0.0%)
Initial guess               ....       0.691 sec  (  0.1%)
Orbital Transformation      ....       0.000 sec  (  0.0%)
Orbital Orthonormalization  ....       0.546 sec  (  0.0%)
DIIS solution               ....       0.136 sec  (  0.0%)
SOSCF solution              ....       2.321 sec  (  0.2%)
Grid generation             ....      51.083 sec  (  3.8%)


-------------------------------------------------------------------------------
                          DFT DISPERSION CORRECTION                            
                                                                               
                              DFTD3 V3.1  Rev 1                                
                          USING Becke-Johnson damping                          
-------------------------------------------------------------------------------
Gaussians B3LYP functional is recognized, using regular B3LYP params
Active option DFTDOPT                   ...         4   

molecular C6(AA) [au] = 187434.349894 


            DFT-D V3
 parameters
 s6 scaling factor         :     1.0000 
 a1 scaling factor         :     0.3981 
 s8 scaling factor         :     1.9889 
 a2 scaling factor         :     4.4211 
 ad hoc parameters k1-k3   :    16.0000     1.3333    -4.0000 

 Edisp/kcal,au: -195.517345806089  -0.311576690124 
 E6   /kcal   : -87.777681259 
 E8   /kcal   : -107.739664547 
 % E8         :  55.104913635 

-------------------------   ----------------
Dispersion correction           -0.311576690
-------------------------   ----------------


-------------------------   --------------------
FINAL SINGLE POINT ENERGY     -6414.671256760550
-------------------------   --------------------

                                *** OPTIMIZATION RUN DONE ***

                            ***************************************
                            *     ORCA property calculations      *
                            ***************************************

                                    ---------------------
                                    Active property flags
                                    ---------------------
   (+) Dipole Moment


------------------------------------------------------------------------------
                       ORCA ELECTRIC PROPERTIES CALCULATION
------------------------------------------------------------------------------

Dipole Moment Calculation                       ... on
Quadrupole Moment Calculation                   ... off
Polarizability Calculation                      ... off
GBWName                                         ... BTP-4Cl.gbw
Electron density file                           ... BTP-4Cl.scfp
The origin for moment calculation is the CENTER OF MASS  = (17.799214, -4.849981 -1.990233)

-------------
DIPOLE MOMENT
-------------
                                X             Y             Z
Electronic contribution:    -22.85230      19.98479     -52.78106
Nuclear contribution   :     23.04379     -19.79550      52.73780
                        -----------------------------------------
Total Dipole Moment    :      0.19149       0.18929      -0.04325
                        -----------------------------------------
Magnitude (a.u.)       :      0.27270
Magnitude (Debye)      :      0.69316



--------------------
Rotational spectrum 
--------------------
 
Rotational constants in cm-1:     0.000960     0.000268     0.000211 
Rotational constants in MHz :    28.768077     8.045107     6.324483 

 Dipole components along the rotational axes: 
x,y,z [a.u.] :    -0.015990    -0.033876    -0.270119 
x,y,z [Debye]:    -0.040644    -0.086107    -0.686589 

 

Timings for individual modules:

Sum of individual times         ...    76578.944 sec (=1276.316 min)
GTO integral calculation        ...       73.335 sec (=   1.222 min)   0.1 %
SCF iterations                  ...    62421.139 sec (=1040.352 min)  81.5 %
SCF Gradient evaluation         ...    14041.868 sec (= 234.031 min)  18.3 %
Geometry relaxation             ...       42.602 sec (=   0.710 min)   0.1 %
                             ****ORCA TERMINATED NORMALLY****
TOTAL RUN TIME: 0 days 21 hours 16 minutes 56 seconds 913 msec
