
                                 *****************
                                 * O   R   C   A *
                                 *****************

           --- An Ab Initio, DFT and Semiempirical electronic structure package ---

                  #######################################################
                  #                        -***-                        #
                  #          Department of theory and spectroscopy      #
                  #               Directorship: Frank Neese             #
                  #        Max Planck Institute fuer Kohlenforschung    #
                  #                Kaiser Wilhelm Platz 1               #
                  #                 D-45470 Muelheim/Ruhr               #
                  #                      Germany                        #
                  #                                                     #
                  #                  All rights reserved                #
                  #                        -***-                        #
                  #######################################################


                         Program Version 4.2.0 -  RELEASE  -


 With contributions from (in alphabetic order):
   Daniel Aravena         : Magnetic Suceptibility
   Michael Atanasov       : Ab Initio Ligand Field Theory (pilot matlab implementation)
   Alexander A. Auer      : GIAO ZORA, VPT2
   Ute Becker             : Parallelization
   Giovanni Bistoni       : ED, misc. LED, open-shell LED, HFLED
   Martin Brehm           : Molecular dynamics
   Dmytro Bykov           : SCF Hessian
   Vijay G. Chilkuri      : MRCI spin determinant printing, contributions to CSF-ICE
   Dipayan Datta          : RHF DLPNO-CCSD density
   Achintya Kumar Dutta   : EOM-CC, STEOM-CC
   Dmitry Ganyushin       : Spin-Orbit,Spin-Spin,Magnetic field MRCI
   Miquel Garcia          : C-PCM Hessian, Gaussian charge scheme
   Yang Guo               : DLPNO-NEVPT2, CIM, IAO-localization
   Andreas Hansen         : Spin unrestricted coupled pair/coupled cluster methods
   Benjamin Helmich-Paris : CASSCF linear response (MC-RPA)
   Lee Huntington         : MR-EOM, pCC
   Robert Izsak           : Overlap fitted RIJCOSX, COSX-SCS-MP3, EOM
   Christian Kollmar      : KDIIS, OOCD, Brueckner-CCSD(T), CCSD density
   Simone Kossmann        : Meta GGA functionals, TD-DFT gradient, OOMP2, MP2 Hessian
   Martin Krupicka        : AUTO-CI
   Lucas Lang             : DCDCAS
   Dagmar Lenk            : GEPOL surface, SMD
   Dimitrios Liakos       : Extrapolation schemes; Compound Job, initial MDCI parallelization
   Dimitrios Manganas     : Further ROCIS development; embedding schemes
   Dimitrios Pantazis     : SARC Basis sets
   Taras Petrenko         : DFT Hessian,TD-DFT gradient, ASA, ECA, R-Raman, ABS, FL, XAS/XES, NRVS
   Peter Pinski           : DLPNO-MP2, DLPNO-MP2 Gradient
   Christoph Reimann      : Effective Core Potentials
   Marius Retegan         : Local ZFS, SOC
   Christoph Riplinger    : Optimizer, TS searches, QM/MM, DLPNO-CCSD(T), (RO)-DLPNO pert. Triples
   Tobias Risthaus        : Range-separated hybrids, TD-DFT gradient, RPA, STAB
   Michael Roemelt        : Original ROCIS implementation
   Masaaki Saitow         : Open-shell DLPNO-CCSD energy and density
   Barbara Sandhoefer     : DKH picture change effects
   Avijit Sen             : IP-ROCIS
   Kantharuban Sivalingam : CASSCF convergence, NEVPT2, FIC-MRCI
   Bernardo de Souza      : ESD, SOC TD-DFT
   Georgi Stoychev        : AutoAux, RI-MP2 NMR
   Willem Van den Heuvel  : Paramagnetic NMR
   Boris Wezisla          : Elementary symmetry handling
   Frank Wennmohs         : Technical directorship


 We gratefully acknowledge several colleagues who have allowed us to
 interface, adapt or use parts of their codes:
   Stefan Grimme, W. Hujo, H. Kruse,             : VdW corrections, initial TS optimization,
                  C. Bannwarth                     DFT functionals, gCP, sTDA/sTD-DF
   Ed Valeev, F. Pavosevic, A. Kumar             : LibInt (2-el integral package), F12 methods
   Garnet Chan, S. Sharma, J. Yang, R. Olivares  : DMRG
   Ulf Ekstrom                                   : XCFun DFT Library
   Mihaly Kallay                                 : mrcc  (arbitrary order and MRCC methods)
   Andreas Klamt, Michael Diedenhofen            : otool_cosmo (COSMO solvation model)
   Jiri Pittner, Ondrej Demel                    : Mk-CCSD
   Frank Weinhold                                : gennbo (NPA and NBO analysis)
   Christopher J. Cramer and Donald G. Truhlar   : smd solvation model
   Lars Goerigk                                  : TD-DFT with DH, B97 family of functionals
   V. Asgeirsson, H. Jonsson                     : NEB implementation
   FAccTs GmbH                                   : IRC, NEB, NEB-TS, Multilevel, MM, QM/MM, CI optimization
   S Lehtola, MJT Oliveira, MAL Marques          : LibXC Library


 Your calculation uses the libint2 library for the computation of 2-el integrals
 For citations please refer to: http://libint.valeyev.net

 Your ORCA version has been built with support for libXC version: 4.2.3
 For citations please refer to: https://tddft.org/programs/libxc/

 This ORCA versions uses:
   CBLAS   interface :  Fast vector & matrix operations
   LAPACKE interface :  Fast linear algebra routines
   SCALAPACK package :  Parallel linear algebra routines


Your calculation utilizes the atom-pairwise dispersion correction
with the Becke-Johnson damping scheme (D3BJ)
Cite in your paper:
S.Grimme, S.Ehrlich, L.Goerigk, J Comput Chem, (2011), 32, 1456–1465 
S.Grimme, J.Antony, S.Ehrlich and H.Krieg, J.Chem.Phys., 132, (2010), 154104 
   

----- Orbital basis set information -----
Your calculation utilizes the basis: def2-SVP
   F. Weigend and R. Ahlrichs, Phys. Chem. Chem. Phys. 7, 3297 (2005).

----- AuxJ basis set information -----
Your calculation utilizes the auxiliary basis: def2/J
   F. Weigend, Phys. Chem. Chem. Phys. 8, 1057 (2006).

================================================================================
                                        WARNINGS
                       Please study these warnings very carefully!
================================================================================


WARNING: Geometry Optimization
  ===> : Switching off AutoStart
         For restart on a previous wavefunction, please use MOREAD

INFO   : the flag for use of LIBINT has been found!

================================================================================
                                       INPUT FILE
================================================================================
NAME = CPDT-4F.inp
|  1> # ORCA input file
|  2> # SCF done       -178.227475266823          0.000860535557
|  3> ! B3LYP/G D3BJ Opt RIJCOSX def2-SVP def2/J
|  4> * xyz 0 1
|  5>    C       -1.09716         4.47660         1.38562
|  6>    C       -2.18496         3.65483         1.64420
|  7>    C       -2.05078         2.27049         1.74858
|  8>    C       -0.81211         1.66834         1.59500
|  9>    C        0.26841         2.48690         1.33515
| 10>    C        0.14474         3.88220         1.22844
| 11>    C        1.67915         2.10418         1.11656
| 12>    C        2.39745         3.34921         0.84506
| 13>    C        1.46340         4.45108         0.93903
| 14>    C        3.72814         3.44919         0.50542
| 15>    C        4.69399         2.45909         0.31509
| 16>    C        5.98593         2.76845        -0.15161
| 17>    C        6.76186         1.65591        -0.36094
| 18>    C        6.08335         0.47228        -0.00399
| 19>    S        4.48482         0.72625         0.54035
| 20>    C        8.14677         1.34800        -0.88293
| 21>    C        8.14947        -0.15900        -0.76978
| 22>    C        6.93867        -0.61979        -0.24759
| 23>    C        9.01083        -1.18812        -1.11959
| 24>    C        8.47220        -2.43802        -0.85013
| 25>    S        6.87519        -2.33159        -0.13529
| 26>    C        9.01658        -3.70440        -1.17351
| 27>    S       10.36777        -3.82253        -2.28386
| 28>    C       10.24566        -5.53557        -2.24913
| 29>    C        9.24062        -5.98732        -1.39014
| 30>    C        8.54238        -4.95029        -0.79002
| 31>    C       10.83078        -6.64057        -2.89570
| 32>    C       10.20403        -7.81760        -2.44406
| 33>    C        9.14472        -7.49455        -1.41681
| 34>    S       12.01626        -6.93310        -4.08476
| 35>    C       11.65968        -8.66664        -4.02373
| 36>    C       10.68672        -8.94997        -3.06272
| 37>    C       12.35016        -9.46810        -4.94065
| 38>    C       12.17788       -10.78152        -5.31333
| 39>    C       12.98334       -11.43001        -6.33249
| 40>    C       12.35635       -12.71419        -6.64614
| 41>    C       11.25208       -12.89033        -5.79876
| 42>    C       11.11123       -11.71632        -4.90843
| 43>    C       12.67060       -13.68933        -7.57999
| 44>    C       11.86625       -14.81793        -7.63848
| 45>    C       10.77294       -14.98517        -6.78833
| 46>    C       10.45324       -14.01516        -5.85249
| 47>    F       10.02430       -16.09137        -6.87998
| 48>    F       12.14869       -15.76758        -8.53756
| 49>    O       10.26290       -11.59420        -4.04762
| 50>    C       14.14973       -10.97508        -6.89081
| 51>    C       14.87002       -11.66838        -7.88729
| 52>    C       14.82733        -9.78365        -6.55333
| 53>    C        9.47718        -8.11217        -0.04726
| 54>    C        7.72729        -7.88304        -1.89154
| 55>    C        7.47302        -9.37767        -2.03319
| 56>    C       10.80124        -7.61416         0.52075
| 57>    C        9.24136         1.99215        -0.01614
| 58>    C        8.30753         1.71316        -2.37514
| 59>    C        8.18099         3.19506        -2.69978
| 60>    C        9.19749         1.52159         1.43303
| 61>    O        2.12990         0.97345         1.16130
| 62>    F       -3.39299         4.20978         1.79386
| 63>    F       -3.12859         1.51605         1.99611
| 64>    C        1.72567         5.78886         0.79020
| 65>    C        0.75026         6.80287         0.89908
| 66>    C        2.98681         6.35687         0.51389
| 67>    N        3.97523         6.89825         0.28990
| 68>    N        0.00935         7.67644         0.97235
| 69>    N       15.50067       -12.17298        -8.70260
| 70>    N       15.45671        -8.84815        -6.33431
| 71>    H       -1.25682         5.53975         1.31331
| 72>    H       -0.70286         0.59838         1.67307
| 73>    H        4.10231         4.44736         0.31332
| 74>    H        6.28746         3.78719        -0.31866
| 75>    H        9.98650        -1.06740        -1.55532
| 76>    H        7.71929        -5.06277        -0.10738
| 77>    H       10.37300        -9.95684        -2.86339
| 78>    H       13.11476        -8.92558        -5.48424
| 79>    H       13.50108       -13.60928        -8.26161
| 80>    H        9.60850       -14.13774        -5.19357
| 81>    H        9.52477        -9.19524        -0.15944
| 82>    H        8.66928        -7.87206         0.64660
| 83>    H        7.55212        -7.39882        -2.85567
| 84>    H        7.01484        -7.46436        -1.17720
| 85>    H        8.14776        -9.82744        -2.75486
| 86>    H        6.45453        -9.53323        -2.38179
| 87>    H        7.58296        -9.88973        -1.08154
| 88>    H       11.62176        -7.84215        -0.15595
| 89>    H       11.00065        -8.09848         1.47341
| 90>    H       10.77751        -6.53879         0.68270
| 91>    H        9.11383         3.07452        -0.04142
| 92>    H       10.21429         1.75125        -0.44886
| 93>    H        7.55154         1.16169        -2.93993
| 94>    H        9.28771         1.35621        -2.69833
| 95>    H        7.19186         3.56531        -2.44702
| 96>    H        8.33341         3.34216        -3.76649
| 97>    H        8.92483         3.78301        -2.16983
| 98>    H        8.23193         1.74460         1.88160
| 99>    H        9.96781         2.02680         2.01041
|100>    H        9.36793         0.44940         1.49946
|101> *
|102> 
|103>                          ****END OF INPUT****
================================================================================

                       *****************************
                       * Geometry Optimization Run *
                       *****************************

Geometry optimization settings:
Update method            Update   .... BFGS
Choice of coordinates    CoordSys .... Z-matrix Internals
Initial Hessian          InHess   .... Almoef's Model

Convergence Tolerances:
Energy Change            TolE     ....  5.0000e-06 Eh
Max. Gradient            TolMAXG  ....  3.0000e-04 Eh/bohr
RMS Gradient             TolRMSG  ....  1.0000e-04 Eh/bohr
Max. Displacement        TolMAXD  ....  4.0000e-03 bohr
RMS Displacement         TolRMSD  ....  2.0000e-03 bohr
Strict Convergence                ....  False
------------------------------------------------------------------------------
                        ORCA OPTIMIZATION COORDINATE SETUP
------------------------------------------------------------------------------

The optimization will be done in new redundant internal coordinates
Making redundant internal coordinates   ...  (new redundants) done
Evaluating the initial hessian          ...  (Almloef) done
Evaluating the coordinates              ...  done
Calculating the B-matrix                .... done
Calculating the G-matrix                .... done
Diagonalizing the G-matrix              .... done
Small eigenvalue found = 2.384e-04
Small eigenvalue found = 6.796e-04
Small eigenvalue found = 7.958e-04
Small eigenvalue found = 2.352e-03
Small eigenvalue found = 2.452e-03
Small eigenvalue found = 4.575e-03
Small eigenvalue found = 5.542e-03
Small eigenvalue found = 7.709e-03
Small eigenvalue found = 8.227e-03
Small eigenvalue found = 9.102e-03
Small eigenvalue found = 1.009e-02
Small eigenvalue found = 1.148e-02
Small eigenvalue found = 1.198e-02
Small eigenvalue found = 1.398e-02
Small eigenvalue found = 1.880e-02
Small eigenvalue found = 1.990e-02
Small eigenvalue found = 2.056e-02
Small eigenvalue found = 2.412e-02
The first mode is                       ....  286
The number of degrees of freedom        ....  282

    -----------------------------------------------------------------
                    Redundant Internal Coordinates


    -----------------------------------------------------------------
         Definition                    Initial Value    Approx d2E/dq
    -----------------------------------------------------------------
      1. B(C   1,C   0)                  1.3876         0.630292   
      2. B(C   2,C   1)                  1.3947         0.614013   
      3. B(C   3,C   2)                  1.3858         0.634483   
      4. B(C   4,C   3)                  1.3802         0.647584   
      5. B(C   5,C   0)                  1.3858         0.634603   
      6. B(C   5,C   4)                  1.4048         0.591671   
      7. B(C   6,C   4)                  1.4780         0.452233   
      8. B(C   7,C   6)                  1.4628         0.478190   
      9. B(C   8,C   7)                  1.4475         0.505735   
     10. B(C   8,C   5)                  1.4650         0.474317   
     11. B(C   9,C   7)                  1.3770         0.655395   
     12. B(C  10,C   9)                  1.3962         0.610714   
     13. B(C  11,C  10)                  1.4081         0.584698   
     14. B(C  12,C  11)                  1.3725         0.666394   
     15. B(C  13,C  12)                  1.4102         0.580031   
     16. B(S  14,C  13)                  1.7077         0.524444   
     17. B(S  14,C  10)                  1.7599         0.432876   
     18. B(C  15,C  12)                  1.5117         0.399542   
     19. B(C  16,C  15)                  1.5112         0.400222   
     20. B(C  17,C  13)                  1.4084         0.584005   
     21. B(C  17,C  16)                  1.3968         0.609385   
     22. B(C  18,C  16)                  1.3869         0.632032   
     23. B(C  19,C  18)                  1.3874         0.630707   
     24. B(S  20,C  17)                  1.7167         0.507401   
     25. B(S  20,C  19)                  1.7529         0.444093   
     26. B(C  21,C  19)                  1.4159         0.568186   
     27. B(S  22,C  21)                  1.7529         0.444195   
     28. B(C  23,S  22)                  1.7177         0.505384   
     29. B(C  24,C  23)                  1.3972         0.608584   
     30. B(C  25,C  24)                  1.3868         0.632268   
     31. B(C  25,C  21)                  1.3871         0.631383   
     32. B(C  26,C  23)                  1.4076         0.585597   
     33. B(C  27,C  26)                  1.4079         0.585024   
     34. B(C  28,C  27)                  1.5105         0.401254   
     35. B(C  28,C  24)                  1.5105         0.401298   
     36. B(S  29,C  26)                  1.7043         0.530866   
     37. B(C  30,S  29)                  1.7709         0.415746   
     38. B(C  31,C  30)                  1.3966         0.609849   
     39. B(C  31,C  27)                  1.3777         0.653733   
     40. B(C  32,C  30)                  1.3999         0.602384   
     41. B(C  33,C  32)                  1.3761         0.657537   
     42. B(C  34,C  33)                  1.4519         0.497729   
     43. B(C  35,C  34)                  1.4631         0.477683   
     44. B(C  36,C  35)                  1.4030         0.595596   
     45. B(C  37,C  36)                  1.4801         0.448663   
     46. B(C  37,C  33)                  1.4750         0.457271   
     47. B(C  38,C  35)                  1.3863         0.633432   
     48. B(C  39,C  38)                  1.3871         0.631412   
     49. B(C  40,C  39)                  1.3950         0.613404   
     50. B(C  41,C  40)                  1.3853         0.635789   
     51. B(C  41,C  36)                  1.3807         0.646561   
     52. B(F  42,C  40)                  1.3389         0.627424   
     53. B(F  43,C  39)                  1.3379         0.629656   
     54. B(O  44,C  37)                  1.2147         1.065384   
     55. B(C  45,C  34)                  1.3708         0.670407   
     56. B(C  46,C  45)                  1.4115         0.577254   
     57. B(C  47,C  45)                  1.4116         0.577191   
     58. B(C  48,C  28)                  1.5387         0.361801   
     59. B(C  49,C  28)                  1.5445         0.354229   
     60. B(C  50,C  49)                  1.5227         0.383719   
     61. B(C  51,C  48)                  1.5244         0.381345   
     62. B(C  52,C  15)                  1.5377         0.363216   
     63. B(C  53,C  15)                  1.5446         0.354029   
     64. B(C  54,C  53)                  1.5223         0.384277   
     65. B(C  55,C  52)                  1.5243         0.381501   
     66. B(O  56,C   6)                  1.2181         1.052343   
     67. B(F  57,C   1)                  1.3378         0.629871   
     68. B(F  58,C   2)                  1.3387         0.627781   
     69. B(C  59,C   8)                  1.3713         0.669112   
     70. B(C  60,C  59)                  1.4112         0.577976   
     71. B(C  61,C  59)                  1.4105         0.579512   
     72. B(N  62,C  61)                  1.1490         1.356282   
     73. B(N  63,C  60)                  1.1478         1.362364   
     74. B(N  64,C  46)                  1.1476         1.363170   
     75. B(N  65,C  47)                  1.1486         1.358428   
     76. B(H  66,C   0)                  1.0775         0.377020   
     77. B(H  67,C   3)                  1.0784         0.375842   
     78. B(H  68,C   9)                  1.0832         0.369255   
     79. B(H  69,C  11)                  1.0755         0.379830   
     80. B(H  70,C  18)                  1.0753         0.380019   
     81. B(H  71,C  25)                  1.0752         0.380174   
     82. B(H  72,C  31)                  1.0733         0.382905   
     83. B(H  73,C  32)                  1.0837         0.368515   
     84. B(H  74,C  38)                  1.0774         0.377211   
     85. B(H  75,C  41)                  1.0783         0.375879   
     86. B(H  76,C  48)                  1.0899         0.360228   
     87. B(H  77,C  48)                  1.0917         0.357865   
     88. B(H  78,C  49)                  1.0930         0.356123   
     89. B(H  79,C  49)                  1.0923         0.357046   
     90. B(H  80,C  50)                  1.0855         0.366062   
     91. B(H  81,C  50)                  1.0877         0.363185   
     92. B(H  82,C  50)                  1.0862         0.365101   
     93. B(H  83,C  51)                  1.0877         0.363116   
     94. B(H  84,C  51)                  1.0871         0.363892   
     95. B(H  85,C  51)                  1.0878         0.363082   
     96. B(H  86,C  52)                  1.0902         0.359901   
     97. B(H  87,C  52)                  1.0917         0.357820   
     98. B(H  88,C  53)                  1.0930         0.356166   
     99. B(H  89,C  53)                  1.0921         0.357371   
    100. B(H  90,C  54)                  1.0860         0.365458   
    101. B(H  91,C  54)                  1.0875         0.363371   
    102. B(H  92,C  54)                  1.0862         0.365162   
    103. B(H  93,C  55)                  1.0878         0.363055   
    104. B(H  94,C  55)                  1.0872         0.363827   
    105. B(H  95,C  55)                  1.0877         0.363178   
    106. A(C   5,C   0,H  66)          123.2575         0.357075   
    107. A(C   1,C   0,C   5)          118.0126         0.437184   
    108. A(C   1,C   0,H  66)          118.7295         0.356662   
    109. A(C   0,C   1,C   2)          121.7578         0.434594   
    110. A(C   2,C   1,F  57)          119.3558         0.429785   
    111. A(C   0,C   1,F  57)          118.8863         0.431809   
    112. A(C   1,C   2,F  58)          119.7186         0.429529   
    113. A(C   1,C   2,C   3)          120.5950         0.435113   
    114. A(C   3,C   2,F  58)          119.6861         0.432066   
    115. A(C   2,C   3,C   4)          117.5744         0.439309   
    116. A(C   4,C   3,H  67)          121.5172         0.358116   
    117. A(C   2,C   3,H  67)          120.9080         0.356874   
    118. A(C   5,C   4,C   6)          109.2678         0.406900   
    119. A(C   3,C   4,C   5)          122.3042         0.433813   
    120. A(C   3,C   4,C   6)          128.4258         0.413464   
    121. A(C   0,C   5,C   8)          131.4915         0.415484   
    122. A(C   0,C   5,C   4)          119.7557         0.432236   
    123. A(C   4,C   5,C   8)          108.7504         0.410349   
    124. A(C   4,C   6,C   7)          106.0071         0.391941   
    125. A(C   4,C   6,O  56)          126.0263         0.448173   
    126. A(C   7,C   6,O  56)          127.9664         0.452739   
    127. A(C   8,C   7,C   9)          125.7544         0.422684   
    128. A(C   6,C   7,C   9)          125.5995         0.418481   
    129. A(C   6,C   7,C   8)          108.6010         0.399706   
    130. A(C   5,C   8,C   7)          107.3403         0.399135   
    131. A(C   5,C   8,C  59)          124.9172         0.419421   
    132. A(C   7,C   8,C  59)          127.7425         0.424252   
    133. A(C  10,C   9,H  68)          112.9762         0.353508   
    134. A(C   7,C   9,C  10)          130.5903         0.437238   
    135. A(C   7,C   9,H  68)          116.3902         0.357769   
    136. A(C   9,C  10,S  14)          126.7674         0.428289   
    137. A(C  11,C  10,S  14)          111.5804         0.424963   
    138. A(C   9,C  10,C  11)          121.6078         0.428357   
    139. A(C  10,C  11,H  69)          121.1209         0.352594   
    140. A(C  12,C  11,H  69)          125.8493         0.360513   
    141. A(C  10,C  11,C  12)          113.0286         0.435125   
    142. A(C  11,C  12,C  13)          111.7000         0.434498   
    143. A(C  11,C  12,C  15)          137.3676         0.406544   
    144. A(C  13,C  12,C  15)          110.9297         0.396723   
    145. A(C  12,C  13,C  17)          108.3509         0.424330   
    146. A(S  14,C  13,C  17)          137.6424         0.439781   
    147. A(C  12,C  13,S  14)          113.9690         0.439239   
    148. A(C  10,S  14,C  13)           89.6779         0.439806   
    149. A(C  12,C  15,C  16)          100.3054         0.371934   
    150. A(C  16,C  15,C  53)          107.9320         0.364295   
    151. A(C  16,C  15,C  52)          111.9788         0.365896   
    152. A(C  12,C  15,C  52)          111.8498         0.365789   
    153. A(C  12,C  15,C  53)          112.3817         0.364189   
    154. A(C  52,C  15,C  53)          111.8055         0.358315   
    155. A(C  15,C  16,C  18)          136.2354         0.402882   
    156. A(C  15,C  16,C  17)          110.8183         0.400301   
    157. A(C  17,C  16,C  18)          112.8228         0.434218   
    158. A(C  13,C  17,C  16)          109.5909         0.428098   
    159. A(C  13,C  17,S  20)          137.6841         0.437168   
    160. A(C  16,C  17,S  20)          112.6728         0.440536   
    161. A(C  19,C  18,H  70)          122.1450         0.357182   
    162. A(C  16,C  18,C  19)          112.2336         0.436916   
    163. A(C  16,C  18,H  70)          125.6206         0.357309   
    164. A(C  18,C  19,C  21)          127.7443         0.428631   
    165. A(S  20,C  19,C  21)          119.8503         0.424730   
    166. A(C  18,C  19,S  20)          112.2217         0.432757   
    167. A(C  17,S  20,C  19)           90.0101         0.439214   
    168. A(S  22,C  21,C  25)          112.2166         0.432858   
    169. A(C  19,C  21,C  25)          127.5003         0.428713   
    170. A(C  19,C  21,S  22)          120.0886         0.424747   
    171. A(C  21,S  22,C  23)           89.9773         0.438917   
    172. A(C  24,C  23,C  26)          109.1230         0.428206   
    173. A(S  22,C  23,C  24)          112.7070         0.440115   
    174. A(S  22,C  23,C  26)          138.0750         0.437069   
    175. A(C  25,C  24,C  28)          136.2078         0.403100   
    176. A(C  23,C  24,C  28)          110.9435         0.400397   
    177. A(C  23,C  24,C  25)          112.7345         0.434145   
    178. A(C  21,C  25,C  24)          112.3271         0.437030   
    179. A(C  24,C  25,H  71)          125.5875         0.357357   
    180. A(C  21,C  25,H  71)          122.0841         0.357272   
    181. A(C  27,C  26,S  29)          112.9515         0.440888   
    182. A(C  23,C  26,S  29)          138.1009         0.440966   
    183. A(C  23,C  26,C  27)          108.8979         0.425189   
    184. A(C  28,C  27,C  31)          136.6248         0.405474   
    185. A(C  26,C  27,C  31)          112.7762         0.433669   
    186. A(C  26,C  27,C  28)          110.5818         0.397619   
    187. A(C  24,C  28,C  27)          100.4212         0.372380   
    188. A(C  48,C  28,C  49)          111.7716         0.358112   
    189. A(C  27,C  28,C  49)          112.3813         0.364490   
    190. A(C  24,C  28,C  49)          108.3416         0.364497   
    191. A(C  27,C  28,C  48)          111.5878         0.365812   
    192. A(C  24,C  28,C  48)          111.7823         0.365819   
    193. A(C  26,S  29,C  30)           90.2245         0.437573   
    194. A(C  31,C  30,C  32)          132.6999         0.430544   
    195. A(S  29,C  30,C  32)          116.0105         0.424159   
    196. A(S  29,C  30,C  31)          111.2592         0.425095   
    197. A(C  27,C  31,C  30)          112.7271         0.436926   
    198. A(C  30,C  31,H  72)          121.4497         0.355605   
    199. A(C  27,C  31,H  72)          125.8220         0.359831   
    200. A(C  30,C  32,C  33)          131.4565         0.436414   
    201. A(C  30,C  32,H  73)          112.9495         0.352567   
    202. A(C  33,C  32,H  73)          115.4863         0.357846   
    203. A(C  34,C  33,C  37)          108.1079         0.395467   
    204. A(C  32,C  33,C  37)          128.3966         0.415403   
    205. A(C  32,C  33,C  34)          123.1587         0.421727   
    206. A(C  35,C  34,C  45)          124.6531         0.420095   
    207. A(C  33,C  34,C  45)          127.5680         0.423190   
    208. A(C  33,C  34,C  35)          107.7448         0.398511   
    209. A(C  36,C  35,C  38)          119.7994         0.432607   
    210. A(C  34,C  35,C  38)          131.6581         0.415871   
    211. A(C  34,C  35,C  36)          108.5422         0.411346   
    212. A(C  35,C  36,C  41)          122.2868         0.434206   
    213. A(C  37,C  36,C  41)          127.9187         0.412766   
    214. A(C  35,C  36,C  37)          109.7924         0.406805   
    215. A(C  36,C  37,O  44)          124.9217         0.448530   
    216. A(C  33,C  37,O  44)          129.4834         0.450080   
    217. A(C  33,C  37,C  36)          105.5901         0.388352   
    218. A(C  35,C  38,C  39)          117.9877         0.437178   
    219. A(C  39,C  38,H  74)          118.7352         0.356800   
    220. A(C  35,C  38,H  74)          123.2761         0.356993   
    221. A(C  38,C  39,F  43)          118.9102         0.431921   
    222. A(C  40,C  39,F  43)          119.3338         0.429682   
    223. A(C  38,C  39,C  40)          121.7559         0.434656   
    224. A(C  41,C  40,F  42)          119.7195         0.432181   
    225. A(C  39,C  40,F  42)          119.7072         0.429408   
    226. A(C  39,C  40,C  41)          120.5731         0.435197   
    227. A(C  36,C  41,C  40)          117.5965         0.439346   
    228. A(C  40,C  41,H  75)          120.9313         0.357004   
    229. A(C  36,C  41,H  75)          121.4721         0.358025   
    230. A(C  46,C  45,C  47)          109.7788         0.423078   
    231. A(C  34,C  45,C  47)          126.2408         0.434583   
    232. A(C  34,C  45,C  46)          123.9667         0.434592   
    233. L(C  45,C  46,N  64,C  47, 2) 180.7712         0.491471   
    234. L(C  45,C  46,N  64,C  47, 1) 176.3109         0.491471   
    235. A(C  45,C  47,N  65)          174.9283         0.491144   
    236. A(C  28,C  48,C  51)          112.8417         0.362642   
    237. A(H  76,C  48,H  77)          108.4390         0.290571   
    238. A(C  51,C  48,H  77)          109.5182         0.325085   
    239. A(C  28,C  48,H  77)          108.5134         0.322290   
    240. A(C  51,C  48,H  76)          108.9699         0.325437   
    241. A(C  28,C  48,H  76)          108.4631         0.322638   
    242. A(C  28,C  49,C  50)          115.3877         0.361718   
    243. A(H  78,C  49,H  79)          107.6088         0.289945   
    244. A(C  50,C  49,H  79)          109.1564         0.325294   
    245. A(C  28,C  49,H  79)          107.5274         0.321056   
    246. A(C  50,C  49,H  78)          109.0277         0.325156   
    247. A(C  28,C  49,H  78)          107.8649         0.320920   
    248. A(H  81,C  50,H  82)          107.9471         0.291862   
    249. A(H  80,C  50,H  82)          108.9174         0.292224   
    250. A(C  49,C  50,H  82)          111.3653         0.326490   
    251. A(H  80,C  50,H  81)          108.0417         0.291983   
    252. A(C  49,C  50,H  81)          109.0602         0.326208   
    253. A(C  49,C  50,H  80)          111.3917         0.326632   
    254. A(H  83,C  51,H  85)          108.4391         0.291599   
    255. A(C  48,C  51,H  85)          111.0696         0.325859   
    256. A(H  83,C  51,H  84)          108.2654         0.291701   
    257. A(H  84,C  51,H  85)          108.2979         0.291697   
    258. A(C  48,C  51,H  84)          109.8950         0.325979   
    259. A(C  48,C  51,H  83)          110.7886         0.325865   
    260. A(C  15,C  52,C  55)          112.7132         0.362909   
    261. A(C  55,C  52,H  87)          109.5336         0.325100   
    262. A(H  86,C  52,H  87)          108.3093         0.290524   
    263. A(C  15,C  52,H  87)          108.5737         0.322490   
    264. A(C  55,C  52,H  86)          108.9768         0.325410   
    265. A(C  15,C  52,H  86)          108.6375         0.322797   
    266. A(C  15,C  53,C  54)          115.3088         0.361773   
    267. A(H  88,C  53,H  89)          107.6357         0.289992   
    268. A(C  54,C  53,H  89)          109.2491         0.325421   
    269. A(C  15,C  53,H  89)          107.5803         0.321074   
    270. A(C  54,C  53,H  88)          108.8727         0.325240   
    271. A(C  15,C  53,H  88)          107.9349         0.320897   
    272. A(H  90,C  54,H  92)          109.0040         0.292156   
    273. A(C  53,C  54,H  92)          111.4662         0.326578   
    274. A(H  90,C  54,H  91)          108.0489         0.291930   
    275. A(H  91,C  54,H  92)          108.0205         0.291893   
    276. A(C  53,C  54,H  91)          109.2196         0.326313   
    277. A(C  53,C  54,H  90)          110.9751         0.326621   
    278. A(H  94,C  55,H  95)          108.3372         0.291701   
    279. A(H  93,C  55,H  95)          108.4214         0.291603   
    280. A(C  52,C  55,H  95)          110.9692         0.325896   
    281. A(H  93,C  55,H  94)          108.3404         0.291685   
    282. A(C  52,C  55,H  94)          109.9412         0.325991   
    283. A(C  52,C  55,H  93)          110.7511         0.325877   
    284. A(C  60,C  59,C  61)          110.1061         0.423476   
    285. A(C   8,C  59,C  61)          125.8108         0.434746   
    286. A(C   8,C  59,C  60)          124.0829         0.434538   
    287. L(C  59,C  60,N  63,C  61, 2) 179.8446         0.491531   
    288. L(C  59,C  60,N  63,C  61, 1) 176.3434         0.491531   
    289. L(C  59,C  61,N  62,C  60, 2) 180.0380         0.491366   
    290. L(C  59,C  61,N  62,C  60, 1) 175.6218         0.491366   
    291. D(F  57,C   1,C   0,C   5)   -179.7441         0.027546   
    292. D(C   2,C   1,C   0,C   5)      0.1170         0.027546   
    293. D(C   2,C   1,C   0,H  66)    179.8998         0.027546   
    294. D(F  57,C   1,C   0,H  66)      0.0386         0.027546   
    295. D(F  58,C   2,C   1,F  57)      0.0150         0.026058   
    296. D(C   3,C   2,C   1,C   0)     -0.0094         0.026058   
    297. D(F  58,C   2,C   1,C   0)   -179.8455         0.026058   
    298. D(C   3,C   2,C   1,F  57)    179.8511         0.026058   
    299. D(C   4,C   3,C   2,F  58)    179.7168         0.027938   
    300. D(H  67,C   3,C   2,C   1)   -179.8984         0.027938   
    301. D(C   4,C   3,C   2,C   1)     -0.1193         0.027938   
    302. D(H  67,C   3,C   2,F  58)     -0.0622         0.027938   
    303. D(C   5,C   4,C   3,C   2)      0.1433         0.029184   
    304. D(C   6,C   4,C   3,C   2)   -179.2574         0.029184   
    305. D(C   5,C   4,C   3,H  67)    179.9209         0.029184   
    306. D(C   6,C   4,C   3,H  67)      0.5202         0.029184   
    307. D(C   8,C   5,C   0,C   1)    179.2598         0.027949   
    308. D(C   8,C   5,C   4,C   6)     -0.0228         0.024098   
    309. D(C   8,C   5,C   4,C   3)   -179.5255         0.024098   
    310. D(C   4,C   5,C   0,C   1)     -0.0935         0.027949   
    311. D(C   0,C   5,C   4,C   6)    179.4656         0.024098   
    312. D(C   8,C   5,C   0,H  66)     -0.5124         0.027949   
    313. D(C   0,C   5,C   4,C   3)     -0.0370         0.024098   
    314. D(C   4,C   5,C   0,H  66)   -179.8657         0.027949   
    315. D(O  56,C   6,C   4,C   3)     -1.7548         0.013939   
    316. D(C   7,C   6,C   4,C   5)     -1.0826         0.013939   
    317. D(C   7,C   6,C   4,C   3)    178.3808         0.013939   
    318. D(O  56,C   6,C   4,C   5)    178.7818         0.013939   
    319. D(C   9,C   7,C   6,C   4)   -175.8866         0.015569   
    320. D(C   8,C   7,C   6,C   4)      1.7818         0.015569   
    321. D(C   8,C   7,C   6,O  56)   -178.0792         0.015569   
    322. D(C   9,C   7,C   6,O  56)      4.2525         0.015569   
    323. D(C   7,C   8,C   5,C   4)      1.1387         0.015318   
    324. D(C  59,C   8,C   7,C   9)     -4.1064         0.017426   
    325. D(C  59,C   8,C   7,C   6)    178.2298         0.017426   
    326. D(C   5,C   8,C   7,C   9)    175.8463         0.017426   
    327. D(C   5,C   8,C   7,C   6)     -1.8175         0.017426   
    328. D(C  59,C   8,C   5,C   4)   -178.9069         0.015318   
    329. D(C   7,C   8,C   5,C   0)   -178.2684         0.015318   
    330. D(C  59,C   8,C   5,C   0)      1.6860         0.015318   
    331. D(H  68,C   9,C   7,C   8)      1.3064         0.029943   
    332. D(H  68,C   9,C   7,C   6)    178.5831         0.029943   
    333. D(C  10,C   9,C   7,C   8)   -176.1015         0.029943   
    334. D(C  10,C   9,C   7,C   6)      1.1752         0.029943   
    335. D(S  14,C  10,C   9,H  68)    179.3288         0.025763   
    336. D(S  14,C  10,C   9,C   7)     -3.1932         0.025763   
    337. D(C  11,C  10,C   9,C   7)    174.1716         0.025763   
    338. D(C  11,C  10,C   9,H  68)     -3.3063         0.025763   
    339. D(H  69,C  11,C  10,S  14)   -178.4686         0.023506   
    340. D(H  69,C  11,C  10,C   9)      3.8012         0.023506   
    341. D(C  12,C  11,C  10,S  14)      1.9063         0.023506   
    342. D(C  12,C  11,C  10,C   9)   -175.8238         0.023506   
    343. D(C  15,C  12,C  11,H  69)     -2.5959         0.031032   
    344. D(C  13,C  12,C  11,H  69)    178.0847         0.031032   
    345. D(C  15,C  12,C  11,C  10)    177.0081         0.031032   
    346. D(C  13,C  12,C  11,C  10)     -2.3113         0.031032   
    347. D(C  17,C  13,C  12,C  15)      0.4129         0.023115   
    348. D(C  17,C  13,C  12,C  11)    179.9194         0.023115   
    349. D(S  14,C  13,C  12,C  15)   -177.7549         0.023115   
    350. D(S  14,C  13,C  12,C  11)      1.7516         0.023115   
    351. D(C  10,S  14,C  13,C  12)     -0.5541         0.005596   
    352. D(C  13,S  14,C  10,C  11)     -0.7450         0.004241   
    353. D(C  13,S  14,C  10,C   9)    176.8417         0.004241   
    354. D(C  10,S  14,C  13,C  17)   -177.9725         0.005596   
    355. D(C  53,C  15,C  12,C  13)    114.4157         0.011848   
    356. D(C  53,C  15,C  12,C  11)    -64.9073         0.011848   
    357. D(C  52,C  15,C  12,C  11)     61.8147         0.011848   
    358. D(C  16,C  15,C  12,C  13)      0.0029         0.011848   
    359. D(C  16,C  15,C  12,C  11)   -179.3201         0.011848   
    360. D(C  52,C  15,C  12,C  13)   -118.8623         0.011848   
    361. D(C  18,C  16,C  15,C  53)     57.3300         0.011887   
    362. D(C  18,C  16,C  15,C  52)    -66.1487         0.011887   
    363. D(C  18,C  16,C  15,C  12)    175.0804         0.011887   
    364. D(C  17,C  16,C  15,C  53)   -118.1780         0.011887   
    365. D(C  17,C  16,C  15,C  52)    118.3432         0.011887   
    366. D(C  17,C  16,C  15,C  12)     -0.4277         0.011887   
    367. D(S  20,C  17,C  16,C  18)      1.9297         0.025644   
    368. D(S  20,C  17,C  16,C  15)    178.5602         0.025644   
    369. D(C  13,C  17,C  16,C  18)   -175.9184         0.025644   
    370. D(C  13,C  17,C  16,C  15)      0.7122         0.025644   
    371. D(S  20,C  17,C  13,S  14)     -0.2273         0.023447   
    372. D(S  20,C  17,C  13,C  12)   -177.7420         0.023447   
    373. D(C  16,C  17,C  13,S  14)    176.8226         0.023447   
    374. D(C  16,C  17,C  13,C  12)     -0.6922         0.023447   
    375. D(H  70,C  18,C  16,C  17)    178.8571         0.027709   
    376. D(H  70,C  18,C  16,C  15)      3.4125         0.027709   
    377. D(C  19,C  18,C  16,C  17)     -0.8404         0.027709   
    378. D(C  19,C  18,C  16,C  15)   -176.2850         0.027709   
    379. D(C  21,C  19,C  18,H  70)     -5.2853         0.027585   
    380. D(C  21,C  19,C  18,C  16)    174.4243         0.027585   
    381. D(S  20,C  19,C  18,H  70)    179.7080         0.027585   
    382. D(S  20,C  19,C  18,C  16)     -0.5825         0.027585   
    383. D(C  17,S  20,C  19,C  21)   -174.0472         0.004391   
    384. D(C  17,S  20,C  19,C  18)      1.4014         0.004391   
    385. D(C  19,S  20,C  17,C  16)     -1.8727         0.005322   
    386. D(C  19,S  20,C  17,C  13)    175.1151         0.005322   
    387. D(C  25,C  21,C  19,S  20)    -12.1601         0.022140   
    388. D(C  25,C  21,C  19,C  18)    173.1703         0.022140   
    389. D(S  22,C  21,C  19,S  20)    162.3563         0.022140   
    390. D(S  22,C  21,C  19,C  18)    -12.3133         0.022140   
    391. D(C  23,S  22,C  21,C  25)      1.4779         0.004392   
    392. D(C  23,S  22,C  21,C  19)   -173.8248         0.004392   
    393. D(C  26,C  23,S  22,C  21)    174.0695         0.005290   
    394. D(C  24,C  23,S  22,C  21)     -1.8446         0.005290   
    395. D(C  28,C  24,C  23,C  26)      1.4467         0.025573   
    396. D(C  28,C  24,C  23,S  22)    178.5585         0.025573   
    397. D(C  25,C  24,C  23,C  26)   -175.3113         0.025573   
    398. D(C  25,C  24,C  23,S  22)      1.8004         0.025573   
    399. D(H  71,C  25,C  24,C  28)      3.3077         0.027731   
    400. D(H  71,C  25,C  24,C  23)    178.9307         0.027731   
    401. D(C  21,C  25,C  24,C  23)     -0.6528         0.027731   
    402. D(H  71,C  25,C  21,S  22)    179.6527         0.027648   
    403. D(C  21,C  25,C  24,C  28)   -176.2758         0.027731   
    404. D(H  71,C  25,C  21,C  19)     -5.4715         0.027648   
    405. D(C  24,C  25,C  21,S  22)     -0.7471         0.027648   
    406. D(C  24,C  25,C  21,C  19)    174.1287         0.027648   
    407. D(S  29,C  26,C  23,C  24)    176.7401         0.023582   
    408. D(C  27,C  26,C  23,C  24)     -0.3766         0.023582   
    409. D(C  27,C  26,C  23,S  22)   -176.3874         0.023582   
    410. D(S  29,C  26,C  23,S  22)      0.7294         0.023582   
    411. D(C  31,C  27,C  26,S  29)      0.0054         0.023533   
    412. D(C  31,C  27,C  26,C  23)    177.9148         0.023533   
    413. D(C  28,C  27,C  26,S  29)   -178.7420         0.023533   
    414. D(C  28,C  27,C  26,C  23)     -0.8326         0.023533   
    415. D(C  48,C  28,C  24,C  23)    116.6456         0.011948   
    416. D(C  27,C  28,C  24,C  25)    173.8754         0.011948   
    417. D(C  27,C  28,C  24,C  23)     -1.8021         0.011948   
    418. D(C  49,C  28,C  27,C  31)    -61.8089         0.011945   
    419. D(C  49,C  28,C  27,C  26)    116.5092         0.011945   
    420. D(C  48,C  28,C  27,C  31)     64.6552         0.011945   
    421. D(C  48,C  28,C  27,C  26)   -117.0266         0.011945   
    422. D(C  24,C  28,C  27,C  31)   -176.7547         0.011945   
    423. D(C  24,C  28,C  27,C  26)      1.5635         0.011945   
    424. D(C  49,C  28,C  24,C  25)     55.9159         0.011948   
    425. D(C  49,C  28,C  24,C  23)   -119.7617         0.011948   
    426. D(C  48,C  28,C  24,C  25)    -67.6769         0.011948   
    427. D(C  30,S  29,C  26,C  27)      1.2603         0.005703   
    428. D(C  30,S  29,C  26,C  23)   -175.7773         0.005703   
    429. D(C  32,C  30,S  29,C  26)    176.0353         0.004020   
    430. D(C  31,C  30,S  29,C  26)     -2.2162         0.004020   
    431. D(H  72,C  31,C  30,C  32)      4.4220         0.025685   
    432. D(H  72,C  31,C  30,S  29)   -177.7164         0.025685   
    433. D(C  27,C  31,C  30,C  32)   -175.2076         0.025685   
    434. D(C  27,C  31,C  30,S  29)      2.6540         0.025685   
    435. D(H  72,C  31,C  27,C  28)     -3.0601         0.029780   
    436. D(H  72,C  31,C  27,C  26)    178.6475         0.029780   
    437. D(C  30,C  31,C  27,C  28)    176.5502         0.029780   
    438. D(C  30,C  31,C  27,C  26)     -1.7422         0.029780   
    439. D(H  73,C  32,C  30,C  31)   -174.6656         0.025026   
    440. D(H  73,C  32,C  30,S  29)      7.5519         0.025026   
    441. D(C  33,C  32,C  30,C  31)      9.3503         0.025026   
    442. D(C  33,C  32,C  30,S  29)   -168.4321         0.025026   
    443. D(C  37,C  33,C  32,H  73)   -170.5865         0.030153   
    444. D(C  37,C  33,C  32,C  30)      5.3166         0.030153   
    445. D(C  34,C  33,C  32,H  73)      1.9338         0.030153   
    446. D(C  34,C  33,C  32,C  30)    177.8369         0.030153   
    447. D(C  45,C  34,C  33,C  37)   -173.1251         0.016873   
    448. D(C  45,C  34,C  33,C  32)     13.0368         0.016873   
    449. D(C  35,C  34,C  33,C  37)      4.8110         0.016873   
    450. D(C  35,C  34,C  33,C  32)   -169.0271         0.016873   
    451. D(C  38,C  35,C  34,C  45)     -5.5125         0.015536   
    452. D(C  38,C  35,C  34,C  33)    176.4761         0.015536   
    453. D(C  36,C  35,C  34,C  45)    174.6576         0.015536   
    454. D(C  36,C  35,C  34,C  33)     -3.3538         0.015536   
    455. D(C  41,C  36,C  35,C  38)      0.2355         0.024435   
    456. D(C  41,C  36,C  35,C  34)   -179.9110         0.024435   
    457. D(C  37,C  36,C  35,C  38)   -179.2787         0.024435   
    458. D(C  37,C  36,C  35,C  34)      0.5748         0.024435   
    459. D(O  44,C  37,C  36,C  41)      2.1358         0.013723   
    460. D(O  44,C  37,C  36,C  35)   -178.3848         0.013723   
    461. D(C  33,C  37,C  36,C  41)   -177.1249         0.013723   
    462. D(C  33,C  37,C  36,C  35)      2.3545         0.013723   
    463. D(O  44,C  37,C  33,C  34)    176.4042         0.014246   
    464. D(O  44,C  37,C  33,C  32)    -10.1796         0.014246   
    465. D(C  36,C  37,C  33,C  34)     -4.3811         0.014246   
    466. D(C  36,C  37,C  33,C  32)    169.0351         0.014246   
    467. D(H  74,C  38,C  35,C  36)    179.6193         0.027839   
    468. D(H  74,C  38,C  35,C  34)     -0.1949         0.027839   
    469. D(C  39,C  38,C  35,C  36)     -0.0036         0.027839   
    470. D(C  39,C  38,C  35,C  34)   -179.8178         0.027839   
    471. D(F  43,C  39,C  38,H  74)      0.0218         0.027651   
    472. D(F  43,C  39,C  38,C  35)    179.6622         0.027651   
    473. D(C  40,C  39,C  38,H  74)   -179.8425         0.027651   
    474. D(C  40,C  39,C  38,C  35)     -0.2020         0.027651   
    475. D(F  42,C  40,C  39,F  43)      0.1600         0.026003   
    476. D(F  42,C  40,C  39,C  38)   -179.9763         0.026003   
    477. D(C  41,C  40,C  39,F  43)   -179.6780         0.026003   
    478. D(C  41,C  40,C  39,C  38)      0.1857         0.026003   
    479. D(H  75,C  41,C  40,F  42)      0.0616         0.028061   
    480. D(H  75,C  41,C  40,C  39)    179.8996         0.028061   
    481. D(C  36,C  41,C  40,F  42)   -179.7953         0.028061   
    482. D(C  36,C  41,C  40,C  39)      0.0427         0.028061   
    483. D(H  75,C  41,C  36,C  37)     -0.6869         0.029085   
    484. D(H  75,C  41,C  36,C  35)    179.8926         0.029085   
    485. D(C  40,C  41,C  36,C  37)    179.1693         0.029085   
    486. D(C  40,C  41,C  36,C  35)     -0.2513         0.029085   
    487. D(C  47,C  45,C  34,C  35)   -175.7621         0.031436   
    488. D(C  47,C  45,C  34,C  33)      1.8482         0.031436   
    489. D(C  46,C  45,C  34,C  35)      2.7541         0.031436   
    490. D(C  46,C  45,C  34,C  33)   -179.6356         0.031436   
    491. D(N  65,C  47,C  45,C  46)     -9.5985         0.020768   
    492. D(N  65,C  47,C  45,C  34)    169.0938         0.020768   
    493. D(H  77,C  48,C  28,C  49)    -51.6607         0.010495   
    494. D(H  77,C  48,C  28,C  27)   -178.4574         0.010495   
    495. D(H  77,C  48,C  28,C  24)     69.9746         0.010495   
    496. D(H  76,C  48,C  28,C  49)     65.9498         0.010495   
    497. D(H  76,C  48,C  28,C  27)    -60.8469         0.010495   
    498. D(H  76,C  48,C  28,C  24)   -172.4149         0.010495   
    499. D(C  51,C  48,C  28,C  49)   -173.2192         0.010495   
    500. D(C  51,C  48,C  28,C  27)     59.9841         0.010495   
    501. D(C  51,C  48,C  28,C  24)    -51.5839         0.010495   
    502. D(H  79,C  49,C  28,C  48)     63.2201         0.010091   
    503. D(H  79,C  49,C  28,C  27)   -170.4148         0.010091   
    504. D(H  79,C  49,C  28,C  24)    -60.3791         0.010091   
    505. D(H  78,C  49,C  28,C  48)    179.0125         0.010091   
    506. D(H  78,C  49,C  28,C  27)    -54.6224         0.010091   
    507. D(H  78,C  49,C  28,C  24)     55.4133         0.010091   
    508. D(C  50,C  49,C  28,C  48)    -58.8388         0.010091   
    509. D(C  50,C  49,C  28,C  27)     67.5263         0.010091   
    510. D(C  50,C  49,C  28,C  24)    177.5620         0.010091   
    511. D(H  82,C  50,C  49,H  79)    -59.5531         0.011723   
    512. D(H  82,C  50,C  49,H  78)   -176.8474         0.011723   
    513. D(H  82,C  50,C  49,C  28)     61.6286         0.011723   
    514. D(H  81,C  50,C  49,H  79)     59.4744         0.011723   
    515. D(H  81,C  50,C  49,H  78)    -57.8199         0.011723   
    516. D(H  81,C  50,C  49,C  28)   -179.3439         0.011723   
    517. D(H  80,C  50,C  49,H  79)    178.6351         0.011723   
    518. D(H  80,C  50,C  49,H  78)     61.3408         0.011723   
    519. D(H  80,C  50,C  49,C  28)    -60.1832         0.011723   
    520. D(H  85,C  51,C  48,H  77)    -59.3539         0.011586   
    521. D(H  85,C  51,C  48,H  76)   -177.8239         0.011586   
    522. D(H  85,C  51,C  48,C  28)     61.6345         0.011586   
    523. D(H  84,C  51,C  48,H  77)     60.4630         0.011586   
    524. D(H  84,C  51,C  48,H  76)    -58.0070         0.011586   
    525. D(H  84,C  51,C  48,C  28)   -178.5486         0.011586   
    526. D(H  83,C  51,C  48,H  77)   -179.9390         0.011586   
    527. D(H  83,C  51,C  48,H  76)     61.5910         0.011586   
    528. D(H  83,C  51,C  48,C  28)    -58.9507         0.011586   
    529. D(H  87,C  52,C  15,C  16)     69.2683         0.010571   
    530. D(H  87,C  52,C  15,C  12)   -179.0358         0.010571   
    531. D(H  86,C  52,C  15,C  53)     65.5841         0.010571   
    532. D(H  86,C  52,C  15,C  16)   -173.1457         0.010571   
    533. D(H  86,C  52,C  15,C  12)    -61.4498         0.010571   
    534. D(C  55,C  52,C  15,C  53)   -173.5383         0.010571   
    535. D(C  55,C  52,C  15,C  16)    -52.2680         0.010571   
    536. D(H  87,C  52,C  15,C  53)    -52.0019         0.010571   
    537. D(C  55,C  52,C  15,C  12)     59.4279         0.010571   
    538. D(H  89,C  53,C  15,C  12)   -173.6154         0.010080   
    539. D(H  88,C  53,C  15,C  52)    175.5253         0.010080   
    540. D(H  88,C  53,C  15,C  16)     51.9414         0.010080   
    541. D(H  88,C  53,C  15,C  12)    -57.7289         0.010080   
    542. D(C  54,C  53,C  15,C  52)    -62.5272         0.010080   
    543. D(C  54,C  53,C  15,C  16)    173.8890         0.010080   
    544. D(H  89,C  53,C  15,C  16)    -63.9450         0.010080   
    545. D(C  54,C  53,C  15,C  12)     64.2186         0.010080   
    546. D(H  89,C  53,C  15,C  52)     59.6388         0.010080   
    547. D(H  92,C  54,C  53,H  89)    -61.8893         0.011756   
    548. D(H  92,C  54,C  53,H  88)   -179.1801         0.011756   
    549. D(H  92,C  54,C  53,C  15)     59.3777         0.011756   
    550. D(H  91,C  54,C  53,H  89)     57.3938         0.011756   
    551. D(H  91,C  54,C  53,H  88)    -59.8971         0.011756   
    552. D(H  91,C  54,C  53,C  15)    178.6608         0.011756   
    553. D(H  90,C  54,C  53,H  89)    176.4096         0.011756   
    554. D(H  90,C  54,C  53,H  88)     59.1187         0.011756   
    555. D(H  90,C  54,C  53,C  15)    -62.3235         0.011756   
    556. D(H  95,C  55,C  52,H  87)    -59.0483         0.011595   
    557. D(H  95,C  55,C  52,H  86)   -177.3744         0.011595   
    558. D(H  95,C  55,C  52,C  15)     61.9420         0.011595   
    559. D(H  94,C  55,C  52,H  87)     60.7835         0.011595   
    560. D(H  94,C  55,C  52,H  86)    -57.5425         0.011595   
    561. D(H  94,C  55,C  52,C  15)   -178.2262         0.011595   
    562. D(H  93,C  55,C  52,H  87)   -179.5192         0.011595   
    563. D(H  93,C  55,C  52,H  86)     62.1547         0.011595   
    564. D(H  93,C  55,C  52,C  15)    -58.5289         0.011595   
    565. D(C  61,C  59,C   8,C   7)     -0.1661         0.031305   
    566. D(C  61,C  59,C   8,C   5)    179.8890         0.031305   
    567. D(C  60,C  59,C   8,C   7)   -179.9716         0.031305   
    568. D(C  60,C  59,C   8,C   5)      0.0835         0.031305   
    -----------------------------------------------------------------

Number of atoms                         .... 96
Number of degrees of freedom            .... 568

         *************************************************************
         *                GEOMETRY OPTIMIZATION CYCLE   1            *
         *************************************************************
---------------------------------
CARTESIAN COORDINATES (ANGSTROEM)
---------------------------------
  C     -1.097160    4.476600    1.385620
  C     -2.184960    3.654830    1.644200
  C     -2.050780    2.270490    1.748580
  C     -0.812110    1.668340    1.595000
  C      0.268410    2.486900    1.335150
  C      0.144740    3.882200    1.228440
  C      1.679150    2.104180    1.116560
  C      2.397450    3.349210    0.845060
  C      1.463400    4.451080    0.939030
  C      3.728140    3.449190    0.505420
  C      4.693990    2.459090    0.315090
  C      5.985930    2.768450   -0.151610
  C      6.761860    1.655910   -0.360940
  C      6.083350    0.472280   -0.003990
  S      4.484820    0.726250    0.540350
  C      8.146770    1.348000   -0.882930
  C      8.149470   -0.159000   -0.769780
  C      6.938670   -0.619790   -0.247590
  C      9.010830   -1.188120   -1.119590
  C      8.472200   -2.438020   -0.850130
  S      6.875190   -2.331590   -0.135290
  C      9.016580   -3.704400   -1.173510
  S     10.367770   -3.822530   -2.283860
  C     10.245660   -5.535570   -2.249130
  C      9.240620   -5.987320   -1.390140
  C      8.542380   -4.950290   -0.790020
  C     10.830780   -6.640570   -2.895700
  C     10.204030   -7.817600   -2.444060
  C      9.144720   -7.494550   -1.416810
  S     12.016260   -6.933100   -4.084760
  C     11.659680   -8.666640   -4.023730
  C     10.686720   -8.949970   -3.062720
  C     12.350160   -9.468100   -4.940650
  C     12.177880  -10.781520   -5.313330
  C     12.983340  -11.430010   -6.332490
  C     12.356350  -12.714190   -6.646140
  C     11.252080  -12.890330   -5.798760
  C     11.111230  -11.716320   -4.908430
  C     12.670600  -13.689330   -7.579990
  C     11.866250  -14.817930   -7.638480
  C     10.772940  -14.985170   -6.788330
  C     10.453240  -14.015160   -5.852490
  F     10.024300  -16.091370   -6.879980
  F     12.148690  -15.767580   -8.537560
  O     10.262900  -11.594200   -4.047620
  C     14.149730  -10.975080   -6.890810
  C     14.870020  -11.668380   -7.887290
  C     14.827330   -9.783650   -6.553330
  C      9.477180   -8.112170   -0.047260
  C      7.727290   -7.883040   -1.891540
  C      7.473020   -9.377670   -2.033190
  C     10.801240   -7.614160    0.520750
  C      9.241360    1.992150   -0.016140
  C      8.307530    1.713160   -2.375140
  C      8.180990    3.195060   -2.699780
  C      9.197490    1.521590    1.433030
  O      2.129900    0.973450    1.161300
  F     -3.392990    4.209780    1.793860
  F     -3.128590    1.516050    1.996110
  C      1.725670    5.788860    0.790200
  C      0.750260    6.802870    0.899080
  C      2.986810    6.356870    0.513890
  N      3.975230    6.898250    0.289900
  N      0.009350    7.676440    0.972350
  N     15.500670  -12.172980   -8.702600
  N     15.456710   -8.848150   -6.334310
  H     -1.256820    5.539750    1.313310
  H     -0.702860    0.598380    1.673070
  H      4.102310    4.447360    0.313320
  H      6.287460    3.787190   -0.318660
  H      9.986500   -1.067400   -1.555320
  H      7.719290   -5.062770   -0.107380
  H     10.373000   -9.956840   -2.863390
  H     13.114760   -8.925580   -5.484240
  H     13.501080  -13.609280   -8.261610
  H      9.608500  -14.137740   -5.193570
  H      9.524770   -9.195240   -0.159440
  H      8.669280   -7.872060    0.646600
  H      7.552120   -7.398820   -2.855670
  H      7.014840   -7.464360   -1.177200
  H      8.147760   -9.827440   -2.754860
  H      6.454530   -9.533230   -2.381790
  H      7.582960   -9.889730   -1.081540
  H     11.621760   -7.842150   -0.155950
  H     11.000650   -8.098480    1.473410
  H     10.777510   -6.538790    0.682700
  H      9.113830    3.074520   -0.041420
  H     10.214290    1.751250   -0.448860
  H      7.551540    1.161690   -2.939930
  H      9.287710    1.356210   -2.698330
  H      7.191860    3.565310   -2.447020
  H      8.333410    3.342160   -3.766490
  H      8.924830    3.783010   -2.169830
  H      8.231930    1.744600    1.881600
  H      9.967810    2.026800    2.010410
  H      9.367930    0.449400    1.499460

----------------------------
CARTESIAN COORDINATES (A.U.)
----------------------------
  NO LB      ZA    FRAG     MASS         X           Y           Z
   0 C     6.0000    0    12.011   -2.073332    8.459548    2.618442
   1 C     6.0000    0    12.011   -4.128976    6.906628    3.107088
   2 C     6.0000    0    12.011   -3.875413    4.290604    3.304337
   3 C     6.0000    0    12.011   -1.534665    3.152706    3.014113
   4 C     6.0000    0    12.011    0.507221    4.699560    2.523068
   5 C     6.0000    0    12.011    0.273519    7.336295    2.321415
   6 C     6.0000    0    12.011    3.173134    3.976324    2.109993
   7 C     6.0000    0    12.011    4.530524    6.329090    1.596932
   8 C     6.0000    0    12.011    2.765425    8.411322    1.774510
   9 C     6.0000    0    12.011    7.045164    6.518024    0.955105
  10 C     6.0000    0    12.011    8.870356    4.647007    0.595434
  11 C     6.0000    0    12.011   11.311768    5.231612   -0.286501
  12 C     6.0000    0    12.011   12.778064    3.129216   -0.682078
  13 C     6.0000    0    12.011   11.495865    0.892480   -0.007540
  14 S    16.0000    0    32.060    8.475082    1.372414    1.021114
  15 C     6.0000    0    12.011   15.395164    2.547351   -1.668496
  16 C     6.0000    0    12.011   15.400266   -0.300466   -1.454673
  17 C     6.0000    0    12.011   13.112186   -1.171233   -0.467877
  18 C     6.0000    0    12.011   17.028001   -2.245221   -2.115718
  19 C     6.0000    0    12.011   16.010138   -4.607190   -1.606513
  20 S    16.0000    0    32.060   12.992226   -4.406067   -0.255661
  21 C     6.0000    0    12.011   17.038867   -7.000301   -2.217613
  22 S    16.0000    0    32.060   19.592246   -7.223535   -4.315870
  23 C     6.0000    0    12.011   19.361491  -10.460711   -4.250240
  24 C     6.0000    0    12.011   17.462241  -11.314395   -2.626984
  25 C     6.0000    0    12.011   16.142759   -9.354692   -1.492921
  26 C     6.0000    0    12.011   20.467208  -12.548859   -5.472080
  27 C     6.0000    0    12.011   19.282822  -14.773123   -4.618604
  28 C     6.0000    0    12.011   17.281016  -14.162647   -2.677383
  29 S    16.0000    0    32.060   22.707441  -13.101660   -7.719078
  30 C     6.0000    0    12.011   22.033602  -16.377576   -7.603748
  31 C     6.0000    0    12.011   20.194974  -16.912992   -5.787702
  32 C     6.0000    0    12.011   23.338420  -17.892116   -9.336475
  33 C     6.0000    0    12.011   23.012858  -20.374120  -10.040739
  34 C     6.0000    0    12.011   24.534957  -21.599589  -11.966672
  35 C     6.0000    0    12.011   23.350118  -24.026337  -12.559384
  36 C     6.0000    0    12.011   21.263350  -24.359193  -10.958068
  37 C     6.0000    0    12.011   20.997182  -22.140636   -9.275588
  38 C     6.0000    0    12.011   23.943964  -25.869085  -14.324105
  39 C     6.0000    0    12.011   22.423963  -28.001830  -14.434635
  40 C     6.0000    0    12.011   20.357906  -28.317867  -12.828085
  41 C     6.0000    0    12.011   19.753761  -26.484814  -11.059603
  42 F     9.0000    0    18.998   18.943182  -30.408282  -13.001278
  43 F     9.0000    0    18.998   22.957697  -29.796408  -16.133650
  44 O     8.0000    0    15.999   19.394070  -21.909863   -7.648893
  45 C     6.0000    0    12.011   26.739115  -20.739895  -13.021744
  46 C     6.0000    0    12.011   28.100265  -22.050043  -14.904818
  47 C     6.0000    0    12.011   28.019593  -18.488419  -12.383999
  48 C     6.0000    0    12.011   17.909275  -15.329780   -0.089308
  49 C     6.0000    0    12.011   14.602462  -14.896787   -3.574493
  50 C     6.0000    0    12.011   14.121961  -17.721228   -3.842172
  51 C     6.0000    0    12.011   20.411386  -14.388677    0.984075
  52 C     6.0000    0    12.011   17.463640    3.764618   -0.030500
  53 C     6.0000    0    12.011   15.698957    3.237403   -4.488364
  54 C     6.0000    0    12.011   15.459831    6.037788   -5.101845
  55 C     6.0000    0    12.011   17.380737    2.875388    2.708034
  56 O     8.0000    0    15.999    4.024928    1.839554    2.194539
  57 F     9.0000    0    18.998   -6.411822    7.955331    3.389904
  58 F     9.0000    0    18.998   -5.912178    2.864919    3.772101
  59 C     6.0000    0    12.011    3.261044   10.939360    1.493262
  60 C     6.0000    0    12.011    1.417786   12.855561    1.699015
  61 C     6.0000    0    12.011    5.644253   12.012743    0.971111
  62 N     7.0000    0    14.007    7.512096   13.035803    0.547832
  63 N     7.0000    0    14.007    0.017669   14.506369    1.837475
  64 N     7.0000    0    14.007   29.292021  -23.003598  -16.445531
  65 N     7.0000    0    14.007   29.208949  -16.720580  -11.970111
  66 H     1.0000    0     1.008   -2.375046   10.468610    2.481796
  67 H     1.0000    0     1.008   -1.328213    1.130774    3.161644
  68 H     1.0000    0     1.008    7.752242    8.404292    0.592089
  69 H     1.0000    0     1.008   11.881577    7.156752   -0.602180
  70 H     1.0000    0     1.008   18.871750   -2.017094   -2.939129
  71 H     1.0000    0     1.008   14.587344   -9.567249   -0.202919
  72 H     1.0000    0     1.008   19.602129  -18.815701   -5.411023
  73 H     1.0000    0     1.008   24.783305  -16.866902  -10.363712
  74 H     1.0000    0     1.008   25.513344  -25.717812  -15.612180
  75 H     1.0000    0     1.008   18.157434  -26.716457   -9.814425
  76 H     1.0000    0     1.008   17.999207  -17.376485   -0.301298
  77 H     1.0000    0     1.008   16.382565  -14.876038    1.221897
  78 H     1.0000    0     1.008   14.271439  -13.981744   -5.396434
  79 H     1.0000    0     1.008   13.256126  -14.105596   -2.224586
  80 H     1.0000    0     1.008   15.397035  -18.571170   -5.205931
  81 H     1.0000    0     1.008   12.197294  -18.015194   -4.500931
  82 H     1.0000    0     1.008   14.329718  -18.688881   -2.043814
  83 H     1.0000    0     1.008   21.961944  -14.819516   -0.294703
  84 H     1.0000    0     1.008   20.788216  -15.303909    2.784341
  85 H     1.0000    0     1.008   20.366542  -12.356522    1.290116
  86 H     1.0000    0     1.008   17.222643    5.810001   -0.078272
  87 H     1.0000    0     1.008   19.302211    3.309383   -0.848222
  88 H     1.0000    0     1.008   14.270342    2.195276   -5.555663
  89 H     1.0000    0     1.008   17.551228    2.562865   -5.099105
  90 H     1.0000    0     1.008   13.590646    6.737459   -4.624198
  91 H     1.0000    0     1.008   15.747863    6.315767   -7.117635
  92 H     1.0000    0     1.008   16.865484    7.148853   -4.100384
  93 H     1.0000    0     1.008   15.556093    3.296816    3.555709
  94 H     1.0000    0     1.008   18.836431    3.830097    3.799124
  95 H     1.0000    0     1.008   17.702822    0.849243    2.833569

--------------------------------
INTERNAL COORDINATES (ANGSTROEM)
--------------------------------
 C      0   0   0     0.000000000000     0.00000000     0.00000000
 C      1   0   0     1.387616081378     0.00000000     0.00000000
 C      2   1   0     1.394738933421   121.75780351     0.00000000
 C      3   2   1     1.385811966971   120.59503316     0.00000000
 C      4   3   2     1.380248516210   117.57442142   359.88068143
 C      1   2   3     1.385760629546   118.01261236     0.11704458
 C      5   4   3     1.477986310525   128.42580249   180.74260823
 C      7   5   4     1.462794189522   106.00713225   178.38076056
 C      8   7   5     1.447548707402   108.60099339     1.78180757
 C      8   7   5     1.376984824208   125.59952673   184.11344220
 C     10   8   7     1.396205479648   130.59026667     1.17518679
 C     11  10   8     1.408055916219   121.60778454   174.17164086
 C     12  11  10     1.372454613239   113.02863157   184.17617526
 C     13  12  11     1.410237249366   111.69997487   357.68866207
 S     14  13  12     1.707660668107   113.96896879     1.75158406
 C     13  12  11     1.511706928045   137.36764708   177.00809141
 C     16  13  12     1.511244259708   100.30541300   180.67993907
 C     17  16  13     1.396798646978   110.81830727   359.57233361
 C     17  16  13     1.386865552280   136.23542335   175.08041335
 C     19  17  16     1.387436837661   112.23364748   183.71504476
 S     18  17  16     1.716653791654   112.67282535   178.56022935
 C     20  19  17     1.415853987246   127.74433711   174.42425106
 S     22  20  19     1.752868002874   120.08856182   347.68670841
 C     23  22  20     1.717737775855    89.97726315   186.17522098
 C     24  23  22     1.397156857407   112.70696438   358.15544263
 C     25  24  23     1.386763978801   112.73445041     1.80042632
 C     24  23  22     1.407637445971   138.07499902   174.06950277
 C     27  24  23     1.407904070951   108.89791552   183.61260464
 C     25  24  23     1.510513280908   110.94350468   178.55845798
 S     27  24  23     1.704347474813   138.10085559     0.72935641
 C     30  27  24     1.770885340416    90.22449195   184.22272912
 C     28  27  24     1.377676176973   112.77618624   177.91475031
 C     31  30  27     1.399943944735   116.01050305   176.03529756
 C     33  31  30     1.376096972310   131.45654486   191.56786657
 C     34  33  31     1.451892625954   123.15869195   177.83687782
 C     35  34  33     1.463082723225   107.74482925   190.97294268
 C     36  35  34     1.403029007861   108.54223043   356.64615669
 C     34  33  31     1.474970261565   128.39655603     5.31657580
 C     36  35  34     1.386263649022   131.65814079   176.47606663
 C     39  36  35     1.387133001049   117.98768289   180.18219654
 C     40  39  36     1.395009317603   121.75586222   359.79799671
 C     37  36  35     1.380679103702   122.28675273   180.08902077
 F     41  40  39     1.338857726609   119.70715776   180.02371023
 F     40  39  36     1.337890997989   118.91023756   179.66224283
 O     38  34  33     1.214730809439   129.48339335   349.82042906
 C     35  34  33     1.370820250580   127.56797049    13.03677839
 C     46  35  34     1.411543468867   123.96671763   180.36435436
 C     46  35  34     1.411573574172   126.24078629     1.84818639
 C     29  25  24     1.538717426463   111.78231175   116.64557235
 C     29  25  24     1.544474298232   108.34160018   240.23832921
 C     50  29  25     1.522707060567   115.38765789   177.56199571
 C     49  29  25     1.524396340785   112.84165174   308.41614015
 C     16  13  12     1.537654510838   111.84977128    61.81473213
 C     16  13  12     1.544628203582   112.38172831   295.09270111
 C     54  16  13     1.522311108545   115.30883541    64.21857150
 C     53  16  13     1.524285071566   112.71323386    59.42788274
 O      7   5   4     1.218083561584   126.02628914   358.24524476
 F      2   1   3     1.337798228060   118.88630216   180.13881019
 F      3   2   1     1.338702808916   119.71861733   180.15447668
 C      9   8   7     1.371346509895   127.74247582   178.22978789
 C     60   9   8     1.411203671551   124.08286575   180.02838915
 C     60   9   8     1.410481008663   125.81079801   359.83393914
 N     62  60   9     1.149016066424   175.62175411   179.85589819
 N     61  60   9     1.147798181694   176.34222904   181.35149809
 N     47  46  35     1.147637128451   176.28198811   173.79874828
 N     48  46  35     1.148585736809   174.92827257   169.09378556
 H      1   2   3     1.077500800093   118.72948550   179.89981209
 H      4   3   2     1.078352859226   120.90795393   180.10164200
 H     10   8   7     1.083166168139   116.39019151   178.58305067
 H     12  11  10     1.075480000279   121.12091613     3.80124003
 H     19  17  16     1.075344549528   125.62062823     3.41249159
 H     26  25  24     1.075233122676   125.58746577   178.93066973
 H     32  28  27     1.073284624040   125.82204411   178.64752474
 H     33  31  30     1.083711769107   112.94951789     7.55189020
 H     39  36  35     1.077362918101   123.27607458   359.80513518
 H     42  37  36     1.078326059409   121.47213320   179.89255980
 H     49  29  25     1.089903567019   108.46305638   187.58512674
 H     49  29  25     1.091694518489   108.51343256    69.97461310
 H     50  29  25     1.093023418871   107.86487188    55.41332993
 H     50  29  25     1.092318442809   107.52736235   299.62094277
 H     51  50  29     1.085529690704   111.39171142   299.81682416
 H     51  50  29     1.087677688334   109.06018272   180.65610763
 H     51  50  29     1.086245814583   111.36525092    61.62857596
 H     52  49  29     1.087729470273   110.78855077   301.04930060
 H     52  49  29     1.087148235569   109.89495439   181.45135525
 H     52  49  29     1.087755281440   111.06957074    61.63447120
 H     53  16  13     1.090150354859   108.63750106   298.55023556
 H     53  16  13     1.091728992608   108.57366689   180.96424136
 H     54  16  13     1.092990295062   107.93490238   302.27106420
 H     54  16  13     1.092070469796   107.58028594   186.38461931
 H     55  54  16     1.085979206523   110.97508221   297.67654242
 H     55  54  16     1.087538730575   109.21958821   178.66077401
 H     55  54  16     1.086199866783   111.46620092    59.37768360
 H     56  53  16     1.087775077210   110.75114842   301.47107762
 H     56  53  16     1.087197181242   109.94117837   181.77383178
 H     56  53  16     1.087682920064   110.96923252    61.94197916

---------------------------
INTERNAL COORDINATES (A.U.)
---------------------------
 C      0   0   0     0.000000000000     0.00000000     0.00000000
 C      1   0   0     2.622214372830     0.00000000     0.00000000
 C      2   1   0     2.635674612483   121.75780351     0.00000000
 C      3   2   1     2.618805090686   120.59503316     0.00000000
 C      4   3   2     2.608291692388   117.57442142   359.88068143
 C      1   2   3     2.618708077012   118.01261236     0.11704458
 C      5   4   3     2.792989356577   128.42580249   180.74260823
 C      7   5   4     2.764280408488   106.00713225   178.38076056
 C      8   7   5     2.735470622501   108.60099339     1.78180757
 C      8   7   5     2.602124208319   125.59952673   184.11344220
 C     10   8   7     2.638445983215   130.59026667     1.17518679
 C     11  10   8     2.660840062902   121.60778454   174.17164086
 C     12  11  10     2.593563350258   113.02863157   184.17617526
 C     13  12  11     2.664962185157   111.69997487   357.68866207
 S     14  13  12     3.227010992391   113.96896879     1.75158406
 C     13  12  11     2.856712088757   137.36764708   177.00809141
 C     16  13  12     2.855837772308   100.30541300   180.67993907
 C     17  16  13     2.639566907020   110.81830727   359.57233361
 C     17  16  13     2.620796078378   136.23542335   175.08041335
 C     19  17  16     2.621875651294   112.23364748   183.71504476
 S     18  17  16     3.244005532984   112.67282535   178.56022935
 C     20  19  17     2.675576281515   127.74433711   174.42425106
 S     22  20  19     3.312440474346   120.08856182   347.68670841
 C     23  22  20     3.246053966257    89.97726315   186.17522098
 C     24  23  22     2.640243826630   112.70696438   358.15544263
 C     25  24  23     2.620604132321   112.73445041     1.80042632
 C     24  23  22     2.660049268738   138.07499902   174.06950277
 C     27  24  23     2.660553116930   108.89791552   183.61260464
 C     25  24  23     2.854456422567   110.94350468   178.55845798
 S     27  24  23     3.220749964436   138.10085559     0.72935641
 C     30  27  24     3.346488307962    90.22449195   184.22272912
 C     28  27  24     2.603430675707   112.77618624   177.91475031
 C     31  30  27     2.645510658390   116.01050305   176.03529756
 C     33  31  30     2.600446411384   131.45654486   191.56786657
 C     34  33  31     2.743679438913   123.15869195   177.83687782
 C     35  34  33     2.764825658167   107.74482925   190.97294268
 C     36  35  34     2.651340582805   108.54223043   356.64615669
 C     34  33  31     2.787289850035   128.39655603     5.31657580
 C     36  35  34     2.619658646062   131.65814079   176.47606663
 C     39  36  35     2.621301483307   117.98768289   180.18219654
 C     40  39  36     2.636185564539   121.75586222   359.79799671
 C     37  36  35     2.609105384825   122.28675273   180.08902077
 F     41  40  39     2.530074435575   119.70715776   180.02371023
 F     40  39  36     2.528247583238   118.91023756   179.66224283
 O     38  34  33     2.295508556276   129.48339335   349.82042906
 C     35  34  33     2.590474852429   127.56797049    13.03677839
 C     46  35  34     2.667430582283   123.96671763   180.36435436
 C     46  35  34     2.667487473065   126.24078629     1.84818639
 C     29  25  24     2.907754533507   111.78231175   116.64557235
 C     29  25  24     2.918633444539   108.34160018   240.23832921
 C     50  29  25     2.877499326660   115.38765789   177.56199571
 C     49  29  25     2.880691603636   112.84165174   308.41614015
 C     16  13  12     2.905745914072   111.84977128    61.81473213
 C     16  13  12     2.918924283500   112.38172831   295.09270111
 C     54  16  13     2.876751085776   115.30883541    64.21857150
 C     53  16  13     2.880481335285   112.71323386    59.42788274
 O      7   5   4     2.301844339624   126.02628914   358.24524476
 F      2   1   3     2.528072273478   118.88630216   180.13881019
 F      3   2   1     2.529781683563   119.71861733   180.15447668
 C      9   8   7     2.591469338409   127.74247582   178.22978789
 C     60   9   8     2.666788458416   124.08286575   180.02838915
 C     60   9   8     2.665422823471   125.81079801   359.83393914
 N     62  60   9     2.171325689016   175.62175411   179.85589819
 N     61  60   9     2.169024220414   176.34222904   181.35149809
 N     47  46  35     2.168719873893   176.28198811   173.79874828
 N     48  46  35     2.170512483896   174.92827257   169.09378556
 H      1   2   3     2.036181421256   118.72948550   179.89981209
 H      4   3   2     2.037791579667   120.90795393   180.10164200
 H     10   8   7     2.046887415311   116.39019151   178.58305067
 H     12  11  10     2.032362663037   121.12091613     3.80124003
 H     19  17  16     2.032106698213   125.62062823     3.41249159
 H     26  25  24     2.031896131979   125.58746577   178.93066973
 H     32  28  27     2.028214003184   125.82204411   178.64752474
 H     33  31  30     2.047918451719   112.94951789     7.55189020
 H     39  36  35     2.035920862054   123.27607458   359.80513518
 H     42  37  36     2.037740935353   121.47213320   179.89255980
 H     49  29  25     2.059619254049   108.46305638   187.58512674
 H     49  29  25     2.063003661848   108.51343256    69.97461310
 H     50  29  25     2.065514919628   107.86487188    55.41332993
 H     50  29  25     2.064182707940   107.52736235   299.62094277
 H     51  50  29     2.051353825671   111.39171142   299.81682416
 H     51  50  29     2.055412952928   109.06018272   180.65610763
 H     51  50  29     2.052707103681   111.36525092    61.62857596
 H     52  49  29     2.055510806611   110.78855077   301.04930060
 H     52  49  29     2.054412432200   109.89495439   181.45135525
 H     52  49  29     2.055559582648   111.06957074    61.63447120
 H     53  16  13     2.060085615481   108.63750106   298.55023556
 H     53  16  13     2.063068808490   108.57366689   180.96424136
 H     54  16  13     2.065452324701   107.93490238   302.27106420
 H     54  16  13     2.063714106857   107.58028594   186.38461931
 H     55  54  16     2.052203287461   110.97508221   297.67654242
 H     55  54  16     2.055150360819   109.21958821   178.66077401
 H     55  54  16     2.052620274922   111.46620092    59.37768360
 H     56  53  16     2.055596991233   110.75114842   301.47107762
 H     56  53  16     2.054504926118   109.94117837   181.77383178
 H     56  53  16     2.055422839466   110.96923252    61.94197916

---------------------
BASIS SET INFORMATION
---------------------
There are 6 groups of distinct atoms

 Group   1 Type C   : 7s4p1d contracted to 3s2p1d pattern {511/31/1}
 Group   2 Type S   : 10s7p1d contracted to 4s3p1d pattern {5311/511/1}
 Group   3 Type F   : 7s4p1d contracted to 3s2p1d pattern {511/31/1}
 Group   4 Type O   : 7s4p1d contracted to 3s2p1d pattern {511/31/1}
 Group   5 Type N   : 7s4p1d contracted to 3s2p1d pattern {511/31/1}
 Group   6 Type H   : 4s1p contracted to 2s1p pattern {31/1}

Atom   0C    basis set group =>   1
Atom   1C    basis set group =>   1
Atom   2C    basis set group =>   1
Atom   3C    basis set group =>   1
Atom   4C    basis set group =>   1
Atom   5C    basis set group =>   1
Atom   6C    basis set group =>   1
Atom   7C    basis set group =>   1
Atom   8C    basis set group =>   1
Atom   9C    basis set group =>   1
Atom  10C    basis set group =>   1
Atom  11C    basis set group =>   1
Atom  12C    basis set group =>   1
Atom  13C    basis set group =>   1
Atom  14S    basis set group =>   2
Atom  15C    basis set group =>   1
Atom  16C    basis set group =>   1
Atom  17C    basis set group =>   1
Atom  18C    basis set group =>   1
Atom  19C    basis set group =>   1
Atom  20S    basis set group =>   2
Atom  21C    basis set group =>   1
Atom  22S    basis set group =>   2
Atom  23C    basis set group =>   1
Atom  24C    basis set group =>   1
Atom  25C    basis set group =>   1
Atom  26C    basis set group =>   1
Atom  27C    basis set group =>   1
Atom  28C    basis set group =>   1
Atom  29S    basis set group =>   2
Atom  30C    basis set group =>   1
Atom  31C    basis set group =>   1
Atom  32C    basis set group =>   1
Atom  33C    basis set group =>   1
Atom  34C    basis set group =>   1
Atom  35C    basis set group =>   1
Atom  36C    basis set group =>   1
Atom  37C    basis set group =>   1
Atom  38C    basis set group =>   1
Atom  39C    basis set group =>   1
Atom  40C    basis set group =>   1
Atom  41C    basis set group =>   1
Atom  42F    basis set group =>   3
[...]
      pz      :     0.013703  p :     0.070023
      px      :     0.010553
      py      :     0.045768
 68 H s       :     0.874139  s :     0.874139
      pz      :     0.013500  p :     0.077003
      px      :     0.018020
      py      :     0.045483
 69 H s       :     0.890256  s :     0.890256
      pz      :     0.014120  p :     0.069771
      px      :     0.014298
      py      :     0.041354
 70 H s       :     0.899249  s :     0.899249
      pz      :     0.020377  p :     0.069822
      px      :     0.037890
      py      :     0.011556
 71 H s       :     0.899106  s :     0.899106
      pz      :     0.023937  p :     0.070058
      px      :     0.034525
      py      :     0.011596
 72 H s       :     0.880128  s :     0.880128
      pz      :     0.013309  p :     0.083663
      px      :     0.015147
      py      :     0.055207
 73 H s       :     0.882128  s :     0.882128
      pz      :     0.023884  p :     0.078093
      px      :     0.031588
      py      :     0.022621
 74 H s       :     0.873349  s :     0.873349
      pz      :     0.030603  p :     0.076546
      px      :     0.033938
      py      :     0.012005
 75 H s       :     0.879912  s :     0.879912
      pz      :     0.027993  p :     0.070128
      px      :     0.031083
      py      :     0.011052
 76 H s       :     0.908428  s :     0.908428
      pz      :     0.012724  p :     0.065974
      px      :     0.013337
      py      :     0.039913
 77 H s       :     0.912965  s :     0.912965
      pz      :     0.020947  p :     0.064627
      px      :     0.028188
      py      :     0.015492
 78 H s       :     0.908052  s :     0.908052
      pz      :     0.031977  p :     0.064950
      px      :     0.012051
      py      :     0.020922
 79 H s       :     0.914172  s :     0.914172
      pz      :     0.021656  p :     0.064575
      px      :     0.027695
      py      :     0.015224
 80 H s       :     0.906166  s :     0.906166
      pz      :     0.024385  p :     0.065919
      px      :     0.025903
      py      :     0.015630
 81 H s       :     0.905537  s :     0.905537
      pz      :     0.017379  p :     0.064091
      px      :     0.033978
      py      :     0.012734
 82 H s       :     0.911703  s :     0.911703
      pz      :     0.030170  p :     0.065170
      px      :     0.012623
      py      :     0.022377
 83 H s       :     0.908423  s :     0.908423
      pz      :     0.020154  p :     0.065249
      px      :     0.029142
      py      :     0.015953
 84 H s       :     0.907636  s :     0.907636
      pz      :     0.034222  p :     0.064280
      px      :     0.012459
      py      :     0.017599
 85 H s       :     0.911075  s :     0.911075
      pz      :     0.012909  p :     0.064806
      px      :     0.013163
      py      :     0.038734
 86 H s       :     0.908820  s :     0.908820
      pz      :     0.012873  p :     0.066070
      px      :     0.012388
      py      :     0.040809
 87 H s       :     0.913450  s :     0.913450
      pz      :     0.018653  p :     0.064419
      px      :     0.031843
      py      :     0.013923
 88 H s       :     0.907533  s :     0.907533
      pz      :     0.019707  p :     0.065023
      px      :     0.027845
      py      :     0.017471
 89 H s       :     0.914371  s :     0.914371
      pz      :     0.016866  p :     0.064620
      px      :     0.031997
      py      :     0.015757
 90 H s       :     0.910503  s :     0.910503
      pz      :     0.014429  p :     0.065011
      px      :     0.034229
      py      :     0.016353
 91 H s       :     0.904172  s :     0.904172
      pz      :     0.037710  p :     0.064225
      px      :     0.012755
      py      :     0.013760
 92 H s       :     0.911617  s :     0.911617
      pz      :     0.020024  p :     0.065470
      px      :     0.026326
      py      :     0.019120
 93 H s       :     0.908913  s :     0.908913
      pz      :     0.019620  p :     0.064865
      px      :     0.031726
      py      :     0.013519
 94 H s       :     0.907381  s :     0.907381
      pz      :     0.018764  p :     0.064230
      px      :     0.028392
      py      :     0.017074
 95 H s       :     0.910443  s :     0.910443
      pz      :     0.012393  p :     0.064814
      px      :     0.012693
      py      :     0.039728


                      *****************************
                      * MAYER POPULATION ANALYSIS *
                      *****************************

  NA   - Mulliken gross atomic population
  ZA   - Total nuclear charge
  QA   - Mulliken gross atomic charge
  VA   - Mayer's total valence
  BVA  - Mayer's bonded valence
  FA   - Mayer's free valence

  ATOM       NA         ZA         QA         VA         BVA        FA
  0 C      6.1038     6.0000    -0.1038     3.7034     3.7034     0.0000
  1 C      5.7616     6.0000     0.2384     3.8570     3.8570    -0.0000
  2 C      5.7591     6.0000     0.2409     3.8071     3.8071     0.0000
  3 C      6.1121     6.0000    -0.1121     3.7333     3.7333    -0.0000
  4 C      6.0040     6.0000    -0.0040     3.6820     3.6820     0.0000
  5 C      5.9445     6.0000     0.0555     3.7169     3.7169     0.0000
  6 C      5.8565     6.0000     0.1435     4.1050     4.1050     0.0000
  7 C      6.0643     6.0000    -0.0643     3.6242     3.6242     0.0000
  8 C      5.7279     6.0000     0.2721     3.8744     3.8744     0.0000
  9 C      6.0381     6.0000    -0.0381     3.8485     3.8485     0.0000
 10 C      6.0546     6.0000    -0.0546     3.8055     3.8055    -0.0000
 11 C      6.0702     6.0000    -0.0702     3.8274     3.8274     0.0000
 12 C      5.9519     6.0000     0.0481     3.8392     3.8392     0.0000
 13 C      6.0631     6.0000    -0.0631     3.9328     3.9328    -0.0000
 14 S     15.7866    16.0000     0.2134     2.4934     2.4934     0.0000
 15 C      6.0909     6.0000    -0.0909     3.8641     3.8641     0.0000
 16 C      5.9793     6.0000     0.0207     3.9620     3.9620    -0.0000
 17 C      6.0782     6.0000    -0.0782     3.9633     3.9633     0.0000
 18 C      6.0416     6.0000    -0.0416     3.8572     3.8572     0.0000
 19 C      6.0607     6.0000    -0.0607     3.8959     3.8959    -0.0000
 20 S     15.8475    16.0000     0.1525     2.4486     2.4486    -0.0000
 21 C      6.0524     6.0000    -0.0524     3.8842     3.8842    -0.0000
 22 S     15.8443    16.0000     0.1557     2.4437     2.4437     0.0000
 23 C      6.0768     6.0000    -0.0768     3.9500     3.9500    -0.0000
 24 C      5.9714     6.0000     0.0286     3.9605     3.9605    -0.0000
 25 C      6.0559     6.0000    -0.0559     3.8558     3.8558     0.0000
 26 C      6.0556     6.0000    -0.0556     3.9610     3.9610    -0.0000
 27 C      5.9917     6.0000     0.0083     3.8751     3.8751     0.0000
 28 C      6.1017     6.0000    -0.1017     3.8857     3.8857    -0.0000
 29 S     15.8360    16.0000     0.1640     2.4571     2.4571    -0.0000
 30 C      6.1174     6.0000    -0.1174     3.8996     3.8996    -0.0000
 31 C      6.0207     6.0000    -0.0207     3.7814     3.7814    -0.0000
 32 C      5.9583     6.0000     0.0417     3.7866     3.7866    -0.0000
 33 C      6.0745     6.0000    -0.0745     3.7030     3.7030     0.0000
 34 C      5.7385     6.0000     0.2615     3.8849     3.8849     0.0000
 35 C      5.9499     6.0000     0.0501     3.7243     3.7243    -0.0000
 36 C      5.9990     6.0000     0.0010     3.6980     3.6980    -0.0000
 37 C      5.8468     6.0000     0.1532     4.0614     4.0614    -0.0000
 38 C      6.0938     6.0000    -0.0938     3.6976     3.6976    -0.0000
 39 C      5.7578     6.0000     0.2422     3.8507     3.8507    -0.0000
 40 C      5.7605     6.0000     0.2395     3.8011     3.8011     0.0000
 41 C      6.1118     6.0000    -0.1118     3.7343     3.7343    -0.0000
 42 F      9.1662     9.0000    -0.1662     1.2114     1.2114     0.0000
 43 F      9.1645     9.0000    -0.1645     1.2147     1.2147    -0.0000
 44 O      8.1857     8.0000    -0.1857     2.3443     2.3443    -0.0000
 45 C      6.3293     6.0000    -0.3293     4.0112     4.0112    -0.0000
 46 C      6.1353     6.0000    -0.1353     4.1759     4.1759     0.0000
 47 C      6.1366     6.0000    -0.1366     4.1652     4.1652     0.0000
 48 C      5.9545     6.0000     0.0455     4.0372     4.0372     0.0000
 49 C      5.9289     6.0000     0.0711     4.0490     4.0490     0.0000
 50 C      5.9789     6.0000     0.0211     4.0086     4.0086    -0.0000
 51 C      5.9745     6.0000     0.0255     4.0050     4.0050    -0.0000
 52 C      5.9544     6.0000     0.0456     4.0367     4.0367     0.0000
 53 C      5.9326     6.0000     0.0674     4.0466     4.0466    -0.0000
 54 C      5.9731     6.0000     0.0269     4.0103     4.0103     0.0000
 55 C      5.9813     6.0000     0.0187     4.0033     4.0033    -0.0000
 56 O      8.1870     8.0000    -0.1870     2.3456     2.3456     0.0000
 57 F      9.1633     9.0000    -0.1633     1.2167     1.2167    -0.0000
 58 F      9.1661     9.0000    -0.1661     1.2116     1.2116     0.0000
 59 C      6.3216     6.0000    -0.3216     4.0078     4.0078    -0.0000
 60 C      6.1417     6.0000    -0.1417     4.1761     4.1761     0.0000
 61 C      6.1377     6.0000    -0.1377     4.1727     4.1727    -0.0000
 62 N      6.9155     7.0000     0.0845     3.1229     3.1229    -0.0000
 63 N      6.8983     7.0000     0.1017     3.1248     3.1248     0.0000
 64 N      6.9005     7.0000     0.0995     3.1196     3.1196     0.0000
 65 N      6.9096     7.0000     0.0904     3.1169     3.1169    -0.0000
 66 H      0.9829     1.0000     0.0171     1.0461     1.0461    -0.0000
 67 H      0.9893     1.0000     0.0107     1.0057     1.0057     0.0000
 68 H      0.9980     1.0000     0.0020     1.0473     1.0473     0.0000
 69 H      0.9866     1.0000     0.0134     0.9993     0.9993    -0.0000
 70 H      1.0081     1.0000    -0.0081     0.9971     0.9971    -0.0000
 71 H      1.0030     1.0000    -0.0030     0.9980     0.9980    -0.0000
 72 H      0.9811     1.0000     0.0189     1.0676     1.0676    -0.0000
 73 H      1.0026     1.0000    -0.0026     1.0405     1.0405     0.0000
 74 H      0.9854     1.0000     0.0146     1.0483     1.0483    -0.0000
 75 H      0.9920     1.0000     0.0080     1.0075     1.0075    -0.0000
 76 H      0.9812     1.0000     0.0188     0.9897     0.9897    -0.0000
 77 H      0.9988     1.0000     0.0012     0.9849     0.9849    -0.0000
 78 H      0.9935     1.0000     0.0065     0.9801     0.9801    -0.0000
 79 H      1.0004     1.0000    -0.0004     0.9841     0.9841    -0.0000
 80 H      0.9717     1.0000     0.0283     1.0048     1.0048    -0.0000
 81 H      0.9851     1.0000     0.0149     0.9851     0.9851    -0.0000
 82 H      0.9856     1.0000     0.0144     0.9954     0.9954    -0.0000
 83 H      0.9770     1.0000     0.0230     0.9948     0.9948    -0.0000
 84 H      0.9857     1.0000     0.0143     0.9852     0.9852     0.0000
 85 H      0.9799     1.0000     0.0201     0.9912     0.9912    -0.0000
 86 H      0.9800     1.0000     0.0200     0.9867     0.9867    -0.0000
 87 H      1.0019     1.0000    -0.0019     0.9858     0.9858    -0.0000
 88 H      0.9907     1.0000     0.0093     0.9803     0.9803    -0.0000
 89 H      1.0016     1.0000    -0.0016     0.9841     0.9841    -0.0000
 90 H      0.9833     1.0000     0.0167     1.0005     1.0005    -0.0000
 91 H      0.9813     1.0000     0.0187     0.9854     0.9854    -0.0000
 92 H      0.9863     1.0000     0.0137     0.9960     0.9960    -0.0000
 93 H      0.9774     1.0000     0.0226     0.9944     0.9944     0.0000
 94 H      0.9839     1.0000     0.0161     0.9853     0.9853     0.0000
 95 H      0.9773     1.0000     0.0227     0.9922     0.9922    -0.0000

  Mayer bond orders larger than 0.100000
B(  0-C ,  1-C ) :   1.3321 B(  0-C ,  3-C ) :   0.1034 B(  0-C ,  5-C ) :   1.2921 
B(  0-C , 66-H ) :   0.9894 B(  1-C ,  2-C ) :   1.2689 B(  1-C , 57-F ) :   1.1348 
B(  2-C ,  3-C ) :   1.3054 B(  2-C , 58-F ) :   1.1222 B(  3-C ,  4-C ) :   1.3048 
B(  3-C , 67-H ) :   1.0146 B(  4-C ,  5-C ) :   1.3341 B(  4-C ,  6-C ) :   0.9627 
B(  5-C ,  8-C ) :   1.0087 B(  6-C ,  7-C ) :   0.9823 B(  6-C , 56-O ) :   2.1305 
B(  7-C ,  8-C ) :   1.1203 B(  7-C ,  9-C ) :   1.4230 B(  8-C , 59-C ) :   1.5603 
B(  9-C , 10-C ) :   1.3207 B(  9-C , 68-H ) :   0.9274 B( 10-C , 11-C ) :   1.2779 
B( 10-C , 14-S ) :   1.0634 B( 11-C , 12-C ) :   1.3659 B( 11-C , 69-H ) :   1.0072 
B( 12-C , 13-C ) :   1.3917 B( 12-C , 15-C ) :   0.9225 B( 13-C , 14-S ) :   1.0894 
B( 13-C , 17-C ) :   1.2253 B( 15-C , 16-C ) :   0.9319 B( 15-C , 52-C ) :   1.0178 
B( 15-C , 53-C ) :   1.0162 B( 16-C , 17-C ) :   1.4630 B( 16-C , 18-C ) :   1.3333 
B( 17-C , 20-S ) :   1.0727 B( 18-C , 19-C ) :   1.4040 B( 18-C , 70-H ) :   0.9867 
B( 19-C , 20-S ) :   1.1121 B( 19-C , 21-C ) :   1.1946 B( 21-C , 22-S ) :   1.1109 
B( 21-C , 25-C ) :   1.4008 B( 22-S , 23-C ) :   1.0699 B( 23-C , 24-C ) :   1.4661 
B( 23-C , 26-C ) :   1.2129 B( 24-C , 25-C ) :   1.3295 B( 24-C , 28-C ) :   0.9357 
B( 25-C , 71-H ) :   0.9893 B( 26-C , 27-C ) :   1.4031 B( 26-C , 29-S ) :   1.1299 
B( 27-C , 28-C ) :   0.9296 B( 27-C , 31-C ) :   1.3476 B( 28-C , 48-C ) :   1.0176 
B( 28-C , 49-C ) :   1.0173 B( 29-S , 30-C ) :   1.0685 B( 30-C , 31-C ) :   1.3332 
B( 30-C , 32-C ) :   1.2847 B( 31-C , 72-H ) :   0.9740 B( 32-C , 33-C ) :   1.4991 
B( 32-C , 73-H ) :   0.8971 B( 33-C , 34-C ) :   1.1182 B( 33-C , 37-C ) :   0.9625 
B( 34-C , 35-C ) :   1.0098 B( 34-C , 45-C ) :   1.5624 B( 35-C , 36-C ) :   1.3395 
B( 35-C , 38-C ) :   1.2881 B( 36-C , 37-C ) :   0.9697 B( 36-C , 41-C ) :   1.3017 
B( 37-C , 44-O ) :   2.1012 B( 38-C , 39-C ) :   1.3318 B( 38-C , 41-C ) :   0.1034 
B( 38-C , 74-H ) :   0.9887 B( 39-C , 40-C ) :   1.2663 B( 39-C , 43-F ) :   1.1333 
B( 40-C , 41-C ) :   1.3041 B( 40-C , 42-F ) :   1.1208 B( 41-C , 75-H ) :   1.0161 
B( 45-C , 46-C ) :   1.1452 B( 45-C , 47-C ) :   1.1504 B( 46-C , 64-N ) :   2.9270 
B( 47-C , 65-N ) :   2.9060 B( 48-C , 51-C ) :   1.1096 B( 48-C , 76-H ) :   0.9361 
B( 48-C , 77-H ) :   0.9372 B( 49-C , 50-C ) :   1.1168 B( 49-C , 78-H ) :   0.9353 
B( 49-C , 79-H ) :   0.9341 B( 50-C , 80-H ) :   0.9610 B( 50-C , 81-H ) :   0.9557 
B( 50-C , 82-H ) :   0.9607 B( 51-C , 83-H ) :   0.9608 B( 51-C , 84-H ) :   0.9602 
B( 51-C , 85-H ) :   0.9657 B( 52-C , 55-C ) :   1.1060 B( 52-C , 86-H ) :   0.9384 
B( 52-C , 87-H ) :   0.9368 B( 53-C , 54-C ) :   1.1159 B( 53-C , 88-H ) :   0.9372 
B( 53-C , 89-H ) :   0.9332 B( 54-C , 90-H ) :   0.9625 B( 54-C , 91-H ) :   0.9575 
B( 54-C , 92-H ) :   0.9616 B( 55-C , 93-H ) :   0.9645 B( 55-C , 94-H ) :   0.9615 
B( 55-C , 95-H ) :   0.9635 B( 59-C , 60-C ) :   1.1441 B( 59-C , 61-C ) :   1.1520 
B( 60-C , 63-N ) :   2.9329 B( 61-C , 62-N ) :   2.9131 

-------
TIMINGS
-------

Total SCF time: 0 days 0 hours 21 min 55 sec 

Total time                  ....    1315.198 sec
Sum of individual times     ....    1312.585 sec  ( 99.8%)

Fock matrix formation       ....    1261.340 sec  ( 95.9%)
  Split-RI-J                ....     134.599 sec  ( 10.7% of F)
  Chain of spheres X        ....    1096.419 sec  ( 86.9% of F)
  COS-X 1 center corr.      ....       0.000 sec  (  0.0% of F)
  XC integration            ....      29.715 sec  (  2.4% of F)
    Basis function eval.    ....      10.403 sec  ( 35.0% of XC)
    Density eval.           ....       8.145 sec  ( 27.4% of XC)
    XC-Functional eval.     ....       1.456 sec  (  4.9% of XC)
    XC-Potential eval.      ....       8.695 sec  ( 29.3% of XC)
Diagonalization             ....       0.444 sec  (  0.0%)
Density matrix formation    ....       1.107 sec  (  0.1%)
Population analysis         ....       0.250 sec  (  0.0%)
Initial guess               ....       0.654 sec  (  0.0%)
Orbital Transformation      ....       0.000 sec  (  0.0%)
Orbital Orthonormalization  ....       0.526 sec  (  0.0%)
DIIS solution               ....       0.121 sec  (  0.0%)
SOSCF solution              ....       2.221 sec  (  0.2%)
Grid generation             ....      46.447 sec  (  3.5%)


-------------------------------------------------------------------------------
                          DFT DISPERSION CORRECTION                            
                                                                               
                              DFTD3 V3.1  Rev 1                                
                          USING Becke-Johnson damping                          
-------------------------------------------------------------------------------
Gaussians B3LYP functional is recognized, using regular B3LYP params
Active option DFTDOPT                   ...         4   

molecular C6(AA) [au] = 147946.571235 


            DFT-D V3
 parameters
 s6 scaling factor         :     1.0000 
 a1 scaling factor         :     0.3981 
 s8 scaling factor         :     1.9889 
 a2 scaling factor         :     4.4211 
 ad hoc parameters k1-k3   :    16.0000     1.3333    -4.0000 

 Edisp/kcal,au: -173.087710530319  -0.275832794916 
 E6   /kcal   : -78.651975899 
 E8   /kcal   : -94.435734631 
 % E8         :  54.559468342 

-------------------------   ----------------
Dispersion correction           -0.275832795
-------------------------   ----------------


-------------------------   --------------------
FINAL SINGLE POINT ENERGY     -4358.862569098334
-------------------------   --------------------

                                *** OPTIMIZATION RUN DONE ***

                            ***************************************
                            *     ORCA property calculations      *
                            ***************************************

                                    ---------------------
                                    Active property flags
                                    ---------------------
   (+) Dipole Moment


------------------------------------------------------------------------------
                       ORCA ELECTRIC PROPERTIES CALCULATION
------------------------------------------------------------------------------

Dipole Moment Calculation                       ... on
Quadrupole Moment Calculation                   ... off
Polarizability Calculation                      ... off
GBWName                                         ... CPDT-4F.gbw
Electron density file                           ... CPDT-4F.scfp
The origin for moment calculation is the CENTER OF MASS  = (14.230272, -6.995273 -3.590048)

-------------
DIPOLE MOMENT
-------------
                                X             Y             Z
Electronic contribution:    -27.28973     -21.20317     -11.26847
Nuclear contribution   :     26.90996      20.13230      12.66124
                        -----------------------------------------
Total Dipole Moment    :     -0.37977      -1.07087       1.39277
                        -----------------------------------------
Magnitude (a.u.)       :      1.79744
Magnitude (Debye)      :      4.56872



--------------------
Rotational spectrum 
--------------------
 
Rotational constants in cm-1:     0.002686     0.000227     0.000214 
Rotational constants in MHz :    80.525227     6.810972     6.423055 

 Dipole components along the rotational axes: 
x,y,z [a.u.] :    -0.165312     1.241187     1.289538 
x,y,z [Debye]:    -0.420189     3.154846     3.277744 

 

Timings for individual modules:

Sum of individual times         ...    53648.335 sec (= 894.139 min)
GTO integral calculation        ...       46.959 sec (=   0.783 min)   0.1 %
SCF iterations                  ...    44267.676 sec (= 737.795 min)  82.5 %
SCF Gradient evaluation         ...     9301.486 sec (= 155.025 min)  17.3 %
Geometry relaxation             ...       32.214 sec (=   0.537 min)   0.1 %
                             ****ORCA TERMINATED NORMALLY****
TOTAL RUN TIME: 0 days 14 hours 54 minutes 35 seconds 596 msec
