
                                 *****************
                                 * O   R   C   A *
                                 *****************

           --- An Ab Initio, DFT and Semiempirical electronic structure package ---

                  #######################################################
                  #                        -***-                        #
                  #          Department of theory and spectroscopy      #
                  #               Directorship: Frank Neese             #
                  #        Max Planck Institute fuer Kohlenforschung    #
                  #                Kaiser Wilhelm Platz 1               #
                  #                 D-45470 Muelheim/Ruhr               #
                  #                      Germany                        #
                  #                                                     #
                  #                  All rights reserved                #
                  #                        -***-                        #
                  #######################################################


                         Program Version 4.2.0 -  RELEASE  -


 With contributions from (in alphabetic order):
   Daniel Aravena         : Magnetic Suceptibility
   Michael Atanasov       : Ab Initio Ligand Field Theory (pilot matlab implementation)
   Alexander A. Auer      : GIAO ZORA, VPT2
   Ute Becker             : Parallelization
   Giovanni Bistoni       : ED, misc. LED, open-shell LED, HFLED
   Martin Brehm           : Molecular dynamics
   Dmytro Bykov           : SCF Hessian
   Vijay G. Chilkuri      : MRCI spin determinant printing, contributions to CSF-ICE
   Dipayan Datta          : RHF DLPNO-CCSD density
   Achintya Kumar Dutta   : EOM-CC, STEOM-CC
   Dmitry Ganyushin       : Spin-Orbit,Spin-Spin,Magnetic field MRCI
   Miquel Garcia          : C-PCM Hessian, Gaussian charge scheme
   Yang Guo               : DLPNO-NEVPT2, CIM, IAO-localization
   Andreas Hansen         : Spin unrestricted coupled pair/coupled cluster methods
   Benjamin Helmich-Paris : CASSCF linear response (MC-RPA)
   Lee Huntington         : MR-EOM, pCC
   Robert Izsak           : Overlap fitted RIJCOSX, COSX-SCS-MP3, EOM
   Christian Kollmar      : KDIIS, OOCD, Brueckner-CCSD(T), CCSD density
   Simone Kossmann        : Meta GGA functionals, TD-DFT gradient, OOMP2, MP2 Hessian
   Martin Krupicka        : AUTO-CI
   Lucas Lang             : DCDCAS
   Dagmar Lenk            : GEPOL surface, SMD
   Dimitrios Liakos       : Extrapolation schemes; Compound Job, initial MDCI parallelization
   Dimitrios Manganas     : Further ROCIS development; embedding schemes
   Dimitrios Pantazis     : SARC Basis sets
   Taras Petrenko         : DFT Hessian,TD-DFT gradient, ASA, ECA, R-Raman, ABS, FL, XAS/XES, NRVS
   Peter Pinski           : DLPNO-MP2, DLPNO-MP2 Gradient
   Christoph Reimann      : Effective Core Potentials
   Marius Retegan         : Local ZFS, SOC
   Christoph Riplinger    : Optimizer, TS searches, QM/MM, DLPNO-CCSD(T), (RO)-DLPNO pert. Triples
   Tobias Risthaus        : Range-separated hybrids, TD-DFT gradient, RPA, STAB
   Michael Roemelt        : Original ROCIS implementation
   Masaaki Saitow         : Open-shell DLPNO-CCSD energy and density
   Barbara Sandhoefer     : DKH picture change effects
   Avijit Sen             : IP-ROCIS
   Kantharuban Sivalingam : CASSCF convergence, NEVPT2, FIC-MRCI
   Bernardo de Souza      : ESD, SOC TD-DFT
   Georgi Stoychev        : AutoAux, RI-MP2 NMR
   Willem Van den Heuvel  : Paramagnetic NMR
   Boris Wezisla          : Elementary symmetry handling
   Frank Wennmohs         : Technical directorship


 We gratefully acknowledge several colleagues who have allowed us to
 interface, adapt or use parts of their codes:
   Stefan Grimme, W. Hujo, H. Kruse,             : VdW corrections, initial TS optimization,
                  C. Bannwarth                     DFT functionals, gCP, sTDA/sTD-DF
   Ed Valeev, F. Pavosevic, A. Kumar             : LibInt (2-el integral package), F12 methods
   Garnet Chan, S. Sharma, J. Yang, R. Olivares  : DMRG
   Ulf Ekstrom                                   : XCFun DFT Library
   Mihaly Kallay                                 : mrcc  (arbitrary order and MRCC methods)
   Andreas Klamt, Michael Diedenhofen            : otool_cosmo (COSMO solvation model)
   Jiri Pittner, Ondrej Demel                    : Mk-CCSD
   Frank Weinhold                                : gennbo (NPA and NBO analysis)
   Christopher J. Cramer and Donald G. Truhlar   : smd solvation model
   Lars Goerigk                                  : TD-DFT with DH, B97 family of functionals
   V. Asgeirsson, H. Jonsson                     : NEB implementation
   FAccTs GmbH                                   : IRC, NEB, NEB-TS, Multilevel, MM, QM/MM, CI optimization
   S Lehtola, MJT Oliveira, MAL Marques          : LibXC Library


 Your calculation uses the libint2 library for the computation of 2-el integrals
 For citations please refer to: http://libint.valeyev.net

 Your ORCA version has been built with support for libXC version: 4.2.3
 For citations please refer to: https://tddft.org/programs/libxc/

 This ORCA versions uses:
   CBLAS   interface :  Fast vector & matrix operations
   LAPACKE interface :  Fast linear algebra routines
   SCALAPACK package :  Parallel linear algebra routines


Your calculation utilizes the atom-pairwise dispersion correction
with the Becke-Johnson damping scheme (D3BJ)
Cite in your paper:
S.Grimme, S.Ehrlich, L.Goerigk, J Comput Chem, (2011), 32, 1456–1465 
S.Grimme, J.Antony, S.Ehrlich and H.Krieg, J.Chem.Phys., 132, (2010), 154104 
   

----- Orbital basis set information -----
Your calculation utilizes the basis: def2-SVP
   F. Weigend and R. Ahlrichs, Phys. Chem. Chem. Phys. 7, 3297 (2005).

----- AuxJ basis set information -----
Your calculation utilizes the auxiliary basis: def2/J
   F. Weigend, Phys. Chem. Chem. Phys. 8, 1057 (2006).

================================================================================
                                        WARNINGS
                       Please study these warnings very carefully!
================================================================================


WARNING: Geometry Optimization
  ===> : Switching off AutoStart
         For restart on a previous wavefunction, please use MOREAD

INFO   : the flag for use of LIBINT has been found!

================================================================================
                                       INPUT FILE
================================================================================
NAME = IDIC.inp
|  1> # ORCA input file
|  2> # SCF done       -150.570571488674          0.000440374964
|  3> ! B3LYP/G D3BJ Opt RIJCOSX def2-SVP def2/J
|  4> * xyz 0 1
|  5>    C        2.88652         1.02659        -0.08700
|  6>    C        2.83118        -0.38114        -0.23083
|  7>    C        1.61277        -1.02068        -0.21882
|  8>    C        0.46945        -0.22943        -0.12969
|  9>    C        0.52501         1.18369        -0.03973
| 10>    C        1.74388         1.81817         0.01433
| 11>    C       -0.90866        -0.59764        -0.07326
| 12>    C       -1.71299         0.53344         0.04841
| 13>    C       -0.86804         1.78008         0.02930
| 14>    C        4.26573         1.38863        -0.05776
| 15>    C        5.07584         0.26095        -0.18322
| 16>    C        4.22668        -0.97767        -0.32318
| 17>    S       -1.81135        -2.04477        -0.10141
| 18>    C       -3.31494        -1.12372         0.04327
| 19>    C       -3.06386         0.24412         0.11096
| 20>    S        5.15732         2.83704         0.06519
| 21>    C        6.66755         1.92889        -0.06935
| 22>    C        6.42600         0.56437        -0.20584
| 23>    C       -1.07359         2.63495         1.28901
| 24>    C       -1.23448         2.55801        -1.25702
| 25>    C       -0.38346         3.78448        -1.55617
| 26>    C       -0.85488         1.84330         2.57332
| 27>    C        4.51144        -1.58692        -1.71319
| 28>    C        4.43366        -1.96230         0.84451
| 29>    C        3.70239        -2.82597        -2.07238
| 30>    C        5.80714        -2.61813         0.89981
| 31>    C        7.84450         2.69675        -0.04753
| 32>    C       -4.49522        -1.88667         0.06658
| 33>    C       -5.81797        -1.53133         0.12786
| 34>    C        9.16969         2.34844        -0.09703
| 35>    C        9.77421         0.99716        -0.09216
| 36>    C       11.23315         1.21074        -0.04539
| 37>    C       11.51369         2.58655        -0.04546
| 38>    C       10.25128         3.32172        -0.10333
| 39>    C       -6.41477        -0.17656         0.15125
| 40>    C       -7.87553        -0.38114         0.13369
| 41>    C       -8.16442        -1.75501         0.12284
| 42>    C       -6.90542        -2.49851         0.13882
| 43>    C       12.23602         0.26187        -0.00458
| 44>    C       13.55147         0.70058         0.03816
| 45>    C       13.83844         2.05806         0.04168
| 46>    C       12.83195         3.01402         0.00018
| 47>    C       -8.87259         0.57466         0.12623
| 48>    C      -10.19148         0.14498         0.10614
| 49>    C      -10.48713        -1.21065         0.09319
| 50>    C       -9.48631        -2.17340         0.10152
| 51>    O        9.22436        -0.08656        -0.11004
| 52>    O       -5.85965         0.90410         0.17539
| 53>    C       -6.81175        -3.86555         0.17815
| 54>    C       10.14898         4.68602        -0.18855
| 55>    C        8.96121         5.44015        -0.30184
| 56>    C       11.25408         5.56468        -0.19620
| 57>    C       -5.62882        -4.63393         0.22841
| 58>    C       -7.92326        -4.73621         0.18701
| 59>    N        8.05874         6.14357        -0.40815
| 60>    N       12.09718         6.34392        -0.20563
| 61>    N       -8.77025        -5.51116         0.19419
| 62>    N       -4.73134        -5.34981         0.27798
| 63>    H        1.51920        -2.09430        -0.26153
| 64>    H        1.83750         2.88468         0.14608
| 65>    H       -3.85495         0.96452         0.20418
| 66>    H        7.22959        -0.13852        -0.32027
| 67>    H       -2.09011         3.03236         1.27554
| 68>    H       -0.37878         3.47488         1.26659
| 69>    H       -2.28042         2.85886        -1.16749
| 70>    H       -1.16075         1.86619        -2.10041
| 71>    H       -0.41704         4.50100        -0.74021
| 72>    H       -0.76600         4.27462        -2.44868
| 73>    H        0.65020         3.50661        -1.74275
| 74>    H       -1.56771         1.02546         2.65019
| 75>    H       -0.98463         2.49102         3.43687
| 76>    H        0.15022         1.42736         2.60328
| 77>    H        5.57537        -1.82366        -1.75892
| 78>    H        4.31806        -0.81123        -2.45937
| 79>    H        3.66633        -2.73539         0.78279
| 80>    H        4.26415        -1.41059         1.77335
| 81>    H        3.83323        -3.61422        -1.33632
| 82>    H        4.03817        -3.20541        -3.03508
| 83>    H        2.64481        -2.59221        -2.15603
| 84>    H        5.85552        -3.27662         1.76444
| 85>    H        6.59380        -1.87597         0.99731
| 86>    H        5.99790        -3.21458         0.01217
| 87>    H        7.64416         3.75932         0.02440
| 88>    H       -4.30031        -2.95133         0.01483
| 89>    H       11.98680        -0.78820        -0.00659
| 90>    H       14.35774        -0.01668         0.06972
| 91>    H       14.86728         2.38362         0.07722
| 92>    H       13.08856         4.06028         0.00623
| 93>    H       -8.61608         1.62287         0.13628
| 94>    H      -10.99353         0.86762         0.10027
| 95>    H      -11.51859        -1.52928         0.07606
| 96>    H       -9.75026        -3.21772         0.08928
| 97> *
| 98> 
| 99>                          ****END OF INPUT****
================================================================================

                       *****************************
                       * Geometry Optimization Run *
                       *****************************

Geometry optimization settings:
Update method            Update   .... BFGS
Choice of coordinates    CoordSys .... Z-matrix Internals
Initial Hessian          InHess   .... Almoef's Model

Convergence Tolerances:
Energy Change            TolE     ....  5.0000e-06 Eh
Max. Gradient            TolMAXG  ....  3.0000e-04 Eh/bohr
RMS Gradient             TolRMSG  ....  1.0000e-04 Eh/bohr
Max. Displacement        TolMAXD  ....  4.0000e-03 bohr
RMS Displacement         TolRMSD  ....  2.0000e-03 bohr
Strict Convergence                ....  False
------------------------------------------------------------------------------
                        ORCA OPTIMIZATION COORDINATE SETUP
------------------------------------------------------------------------------

The optimization will be done in new redundant internal coordinates
Making redundant internal coordinates   ...  (new redundants) done
Evaluating the initial hessian          ...  (Almloef) done
Evaluating the coordinates              ...  done
Calculating the B-matrix                .... done
Calculating the G-matrix                .... done
Diagonalizing the G-matrix              .... done
Small eigenvalue found = 3.496e-04
Small eigenvalue found = 1.051e-03
Small eigenvalue found = 1.133e-03
Small eigenvalue found = 3.958e-03
Small eigenvalue found = 4.397e-03
Small eigenvalue found = 4.950e-03
Small eigenvalue found = 6.106e-03
Small eigenvalue found = 8.352e-03
Small eigenvalue found = 8.835e-03
Small eigenvalue found = 9.739e-03
Small eigenvalue found = 1.178e-02
Small eigenvalue found = 1.330e-02
Small eigenvalue found = 1.655e-02
Small eigenvalue found = 1.745e-02
Small eigenvalue found = 2.003e-02
Small eigenvalue found = 2.237e-02
Small eigenvalue found = 2.875e-02
The first mode is                       ....  274
The number of degrees of freedom        ....  270

    -----------------------------------------------------------------
                    Redundant Internal Coordinates


    -----------------------------------------------------------------
         Definition                    Initial Value    Approx d2E/dq
    -----------------------------------------------------------------
      1. B(C   1,C   0)                  1.4161         0.567588   
      2. B(C   2,C   1)                  1.3761         0.657505   
      3. B(C   3,C   2)                  1.3933         0.617336   
      4. B(C   4,C   3)                  1.4171         0.565653   
      5. B(C   5,C   4)                  1.3752         0.659745   
      6. B(C   5,C   0)                  1.3937         0.616286   
      7. B(C   6,C   3)                  1.4276         0.544254   
      8. B(C   7,C   6)                  1.3932         0.617425   
      9. B(C   8,C   7)                  1.5061         0.407818   
     10. B(C   8,C   4)                  1.5169         0.391969   
     11. B(C   9,C   0)                  1.4262         0.546924   
     12. B(C  10,C   9)                  1.3942         0.615322   
     13. B(C  11,C  10)                  1.5083         0.404637   
     14. B(C  11,C   1)                  1.5205         0.386900   
     15. B(S  12,C   6)                  1.7058         0.527999   
     16. B(C  13,S  12)                  1.7692         0.418337   
     17. B(C  14,C   7)                  1.3829         0.641260   
     18. B(C  14,C  13)                  1.3923         0.619450   
     19. B(S  15,C   9)                  1.7053         0.529073   
     20. B(C  16,S  15)                  1.7674         0.421134   
     21. B(C  17,C  16)                  1.3924         0.619220   
     22. B(C  17,C  10)                  1.3840         0.638677   
     23. B(C  18,C   8)                  1.5362         0.365157   
     24. B(C  19,C   8)                  1.5473         0.350598   
     25. B(C  20,C  19)                  1.5225         0.384035   
     26. B(C  21,C  18)                  1.5245         0.381247   
     27. B(C  22,C  11)                  1.5442         0.354651   
     28. B(C  23,C  11)                  1.5414         0.358286   
     29. B(C  24,C  22)                  1.5228         0.383632   
     30. B(C  25,C  23)                  1.5230         0.383265   
     31. B(C  26,C  16)                  1.4055         0.590317   
     32. B(C  27,C  13)                  1.4056         0.590008   
     33. B(C  28,C  27)                  1.3710         0.669921   
     34. B(C  29,C  26)                  1.3711         0.669733   
     35. B(C  30,C  29)                  1.4803         0.448329   
     36. B(C  31,C  30)                  1.4752         0.456832   
     37. B(C  32,C  31)                  1.4041         0.593211   
     38. B(C  33,C  32)                  1.4620         0.479551   
     39. B(C  33,C  29)                  1.4550         0.492001   
     40. B(C  34,C  28)                  1.4806         0.447943   
     41. B(C  35,C  34)                  1.4751         0.457019   
     42. B(C  36,C  35)                  1.4040         0.593570   
     43. B(C  37,C  36)                  1.4622         0.479174   
     44. B(C  37,C  28)                  1.4554         0.491409   
     45. B(C  38,C  31)                  1.3812         0.645278   
     46. B(C  39,C  38)                  1.3873         0.630940   
     47. B(C  40,C  39)                  1.3875         0.630595   
     48. B(C  41,C  40)                  1.3887         0.627691   
     49. B(C  41,C  32)                  1.3866         0.632680   
     50. B(C  42,C  35)                  1.3812         0.645304   
     51. B(C  43,C  42)                  1.3873         0.631110   
     52. B(C  44,C  43)                  1.3876         0.630433   
     53. B(C  45,C  44)                  1.3887         0.627696   
     54. B(C  45,C  36)                  1.3867         0.632450   
     55. B(O  46,C  30)                  1.2154         1.062918   
     56. B(O  47,C  34)                  1.2151         1.063781   
     57. B(C  48,C  37)                  1.3708         0.670433   
     58. B(C  49,C  33)                  1.3708         0.670502   
     59. B(C  50,C  49)                  1.4115         0.577338   
     60. B(C  51,C  49)                  1.4119         0.576584   
     61. B(C  52,C  48)                  1.4115         0.577403   
     62. B(C  53,C  48)                  1.4119         0.576409   
     63. B(N  54,C  50)                  1.1492         1.355598   
     64. B(N  55,C  51)                  1.1481         1.360880   
     65. B(N  56,C  53)                  1.1480         1.361164   
     66. B(N  57,C  52)                  1.1491         1.355905   
     67. B(H  58,C   2)                  1.0785         0.375590   
     68. B(H  59,C   5)                  1.0787         0.375381   
     69. B(H  60,C  14)                  1.0740         0.381892   
     70. B(H  61,C  17)                  1.0737         0.382273   
     71. B(H  62,C  18)                  1.0915         0.358087   
     72. B(H  63,C  18)                  1.0903         0.359708   
     73. B(H  64,C  19)                  1.0920         0.357432   
     74. B(H  65,C  19)                  1.0933         0.355729   
     75. B(H  66,C  20)                  1.0864         0.364860   
     76. B(H  67,C  20)                  1.0877         0.363121   
     77. B(H  68,C  20)                  1.0865         0.364763   
     78. B(H  69,C  21)                  1.0876         0.363274   
     79. B(H  70,C  21)                  1.0872         0.363767   
     80. B(H  71,C  21)                  1.0882         0.362519   
     81. B(H  72,C  22)                  1.0909         0.358899   
     82. B(H  73,C  22)                  1.0936         0.355420   
     83. B(H  74,C  23)                  1.0910         0.358784   
     84. B(H  75,C  23)                  1.0936         0.355428   
     85. B(H  76,C  24)                  1.0864         0.364908   
     86. B(H  77,C  24)                  1.0879         0.362896   
     87. B(H  78,C  24)                  1.0863         0.364986   
     88. B(H  79,C  25)                  1.0879         0.362884   
     89. B(H  80,C  25)                  1.0859         0.365588   
     90. B(H  81,C  25)                  1.0863         0.365029   
     91. B(H  82,C  26)                  1.0837         0.368557   
     92. B(H  83,C  27)                  1.0836         0.368679   
     93. B(H  84,C  38)                  1.0792         0.374617   
     94. B(H  85,C  39)                  1.0796         0.374128   
     95. B(H  86,C  40)                  1.0797         0.373979   
     96. B(H  87,C  41)                  1.0773         0.377318   
     97. B(H  88,C  42)                  1.0792         0.374693   
     98. B(H  89,C  43)                  1.0796         0.374130   
     99. B(H  90,C  44)                  1.0797         0.374002   
    100. B(H  91,C  45)                  1.0772         0.377396   
    101. A(C   5,C   0,C   9)          130.3268         0.423953   
    102. A(C   1,C   0,C   5)          122.6789         0.426777   
    103. A(C   1,C   0,C   9)          106.9902         0.417770   
    104. A(C   0,C   1,C  11)          111.1191         0.392996   
    105. A(C   2,C   1,C  11)          129.1113         0.403285   
    106. A(C   0,C   1,C   2)          119.7158         0.431763   
    107. A(C   3,C   2,H  58)          119.7793         0.355177   
    108. A(C   1,C   2,H  58)          122.6221         0.359002   
    109. A(C   1,C   2,C   3)          117.5930         0.438343   
    110. A(C   4,C   3,C   6)          107.0106         0.417153   
    111. A(C   2,C   3,C   4)          122.5621         0.426646   
    112. A(C   2,C   3,C   6)          130.4076         0.423711   
    113. A(C   3,C   4,C   5)          119.8241         0.431762   
    114. A(C   5,C   4,C   8)          129.1072         0.404455   
    115. A(C   3,C   4,C   8)          111.0355         0.393657   
    116. A(C   0,C   5,H  59)          119.9517         0.355041   
    117. A(C   0,C   5,C   4)          117.5001         0.438477   
    118. A(C   4,C   5,H  59)          122.5406         0.359176   
    119. A(C   7,C   6,S  12)          112.6226         0.444771   
    120. A(C   3,C   6,S  12)          136.8034         0.434757   
    121. A(C   3,C   6,C   7)          110.5710         0.423722   
    122. A(C   6,C   7,C   8)          110.3030         0.402557   
    123. A(C   8,C   7,C  14)          136.1988         0.405257   
    124. A(C   6,C   7,C  14)          113.4556         0.436382   
    125. A(C   7,C   8,C  18)          112.0328         0.367412   
    126. A(C   4,C   8,C   7)          100.9734         0.371913   
    127. A(C   4,C   8,C  19)          112.1683         0.362396   
    128. A(C   4,C   8,C  18)          112.2705         0.364925   
    129. A(C  18,C   8,C  19)          111.7305         0.358047   
    130. A(C   7,C   8,C  19)          107.0878         0.364860   
    131. A(C  10,C   9,S  15)          112.9359         0.444660   
    132. A(C   0,C   9,S  15)          136.2771         0.435299   
    133. A(C   0,C   9,C  10)          110.7779         0.423835   
    134. A(C   9,C  10,C  11)          110.2098         0.401760   
    135. A(C  11,C  10,C  17)          136.6986         0.404409   
    136. A(C   9,C  10,C  17)          113.0169         0.435797   
    137. A(C   1,C  11,C  23)          109.1388         0.362933   
    138. A(C   1,C  11,C  10)          100.8888         0.370581   
    139. A(C  10,C  11,C  23)          112.2531         0.365727   
    140. A(C  10,C  11,C  22)          107.6815         0.365089   
    141. A(C   1,C  11,C  22)          112.2549         0.362302   
    142. A(C  22,C  11,C  23)          113.8998         0.357590   
    143. A(C   6,S  12,C  13)           90.3859         0.437636   
    144. A(S  12,C  13,C  14)          111.2330         0.426760   
    145. A(C  14,C  13,C  27)          133.1461         0.430147   
    146. A(S  12,C  13,C  27)          115.6209         0.423058   
    147. A(C  13,C  14,H  60)          122.0291         0.356388   
    148. A(C   7,C  14,H  60)          125.6692         0.358491   
    149. A(C   7,C  14,C  13)          112.3015         0.436639   
    150. A(C   9,S  15,C  16)           90.2774         0.438323   
    151. A(C  17,C  16,C  26)          133.0142         0.430158   
    152. A(S  15,C  16,C  26)          115.7001         0.423602   
    153. A(S  15,C  16,C  17)          111.2701         0.427241   
    154. A(C  10,C  17,H  61)          126.0383         0.358305   
    155. A(C  16,C  17,H  61)          121.4742         0.356426   
    156. A(C  10,C  17,C  16)          112.4863         0.436293   
    157. A(C   8,C  18,H  63)          109.0604         0.323050   
    158. A(C  21,C  18,H  63)          109.0230         0.325346   
    159. A(C  21,C  18,H  62)          109.4554         0.325104   
    160. A(C   8,C  18,H  62)          108.4875         0.322811   
    161. A(H  62,C  18,H  63)          108.2245         0.290534   
    162. A(C   8,C  18,C  21)          112.4985         0.363199   
    163. A(C   8,C  19,H  65)          107.8899         0.320322   
    164. A(C   8,C  19,H  64)          107.2888         0.320572   
    165. A(C  20,C  19,H  64)          109.2418         0.325396   
    166. A(C  20,C  19,H  65)          108.6916         0.325141   
    167. A(C   8,C  19,C  20)          115.8483         0.361134   
    168. A(H  64,C  19,H  65)          107.5874         0.289944   
    169. A(C  19,C  20,H  68)          111.0697         0.326485   
    170. A(H  66,C  20,H  67)          107.9509         0.291823   
    171. A(C  19,C  20,H  67)          109.1256         0.326242   
    172. A(C  19,C  20,H  66)          111.4964         0.326499   
    173. A(H  66,C  20,H  68)          109.0899         0.292031   
    174. A(H  67,C  20,H  68)          107.9942         0.291811   
    175. A(H  69,C  21,H  70)          108.2778         0.291705   
    176. A(H  69,C  21,H  71)          108.4212         0.291547   
    177. A(H  70,C  21,H  71)          108.4257         0.291610   
    178. A(C  18,C  21,H  71)          110.7446         0.325763   
    179. A(C  18,C  21,H  70)          110.0381         0.325947   
    180. A(C  18,C  21,H  69)          110.8550         0.325874   
    181. A(C  11,C  22,C  24)          115.8105         0.361778   
    182. A(H  72,C  22,H  73)          107.3249         0.290091   
    183. A(C  24,C  22,H  73)          108.7998         0.325038   
    184. A(C  11,C  22,H  73)          107.5627         0.320879   
    185. A(C  24,C  22,H  72)          109.3717         0.325559   
    186. A(C  11,C  22,H  72)          107.6504         0.321390   
    187. A(C  11,C  23,C  25)          115.0669         0.362349   
    188. A(C  25,C  23,H  75)          109.0379         0.324988   
    189. A(C  25,C  23,H  74)          109.3410         0.325491   
    190. A(H  74,C  23,H  75)          107.2493         0.290077   
    191. A(C  11,C  23,H  75)          107.4793         0.321416   
    192. A(C  11,C  23,H  74)          108.3824         0.321911   
    193. A(H  76,C  24,H  78)          108.9989         0.292065   
    194. A(H  77,C  24,H  78)          107.9022         0.291811   
    195. A(H  76,C  24,H  77)          108.0182         0.291801   
    196. A(C  22,C  24,H  78)          111.1194         0.326461   
    197. A(C  22,C  24,H  77)          109.1806         0.326153   
    198. A(C  22,C  24,H  76)          111.5048         0.326450   
    199. A(H  80,C  25,H  81)          108.7487         0.292156   
    200. A(H  79,C  25,H  81)          108.0154         0.291815   
    201. A(C  23,C  25,H  81)          111.4153         0.326416   
    202. A(H  79,C  25,H  80)          108.0659         0.291885   
    203. A(C  23,C  25,H  80)          111.2393         0.326498   
    204. A(C  23,C  25,H  79)          109.2446         0.326100   
    205. A(C  16,C  26,C  29)          132.0692         0.436268   
    206. A(C  29,C  26,H  82)          115.4781         0.358973   
    207. A(C  16,C  26,H  82)          112.4525         0.351370   
    208. A(C  13,C  27,C  28)          132.0824         0.436249   
    209. A(C  28,C  27,H  83)          115.4884         0.359011   
    210. A(C  13,C  27,H  83)          112.4254         0.351358   
    211. A(C  27,C  28,C  34)          128.8112         0.415259   
    212. A(C  34,C  28,C  37)          107.8656         0.393160   
    213. A(C  27,C  28,C  37)          123.2976         0.422170   
    214. A(C  30,C  29,C  33)          107.8811         0.393302   
    215. A(C  26,C  29,C  33)          123.2766         0.422240   
    216. A(C  26,C  29,C  30)          128.7896         0.415302   
    217. A(C  29,C  30,C  31)          105.7716         0.388237   
    218. A(C  31,C  30,O  46)          125.2386         0.449812   
    219. A(C  29,C  30,O  46)          128.9869         0.448281   
    220. A(C  30,C  31,C  32)          109.8432         0.407816   
    221. A(C  32,C  31,C  38)          121.8746         0.433738   
    222. A(C  30,C  31,C  38)          128.2822         0.413945   
    223. A(C  31,C  32,C  33)          108.6744         0.411338   
    224. A(C  33,C  32,C  41)          131.8514         0.416072   
    225. A(C  31,C  32,C  41)          119.4737         0.432203   
    226. A(C  29,C  33,C  32)          107.7777         0.397975   
    227. A(C  32,C  33,C  49)          124.5669         0.420398   
    228. A(C  29,C  33,C  49)          127.6280         0.422326   
    229. A(C  28,C  34,C  35)          105.7875         0.388206   
    230. A(C  28,C  34,O  47)          129.0449         0.448277   
    231. A(C  35,C  34,O  47)          125.1671         0.449912   
    232. A(C  36,C  35,C  42)          121.9104         0.433788   
    233. A(C  34,C  35,C  42)          128.2388         0.413978   
    234. A(C  34,C  35,C  36)          109.8508         0.407889   
    235. A(C  37,C  36,C  45)          131.8769         0.415986   
    236. A(C  35,C  36,C  45)          119.4409         0.432221   
    237. A(C  35,C  36,C  37)          108.6822         0.411324   
    238. A(C  36,C  37,C  48)          124.4869         0.420332   
    239. A(C  28,C  37,C  48)          127.7263         0.422228   
    240. A(C  28,C  37,C  36)          107.7796         0.397835   
    241. A(C  39,C  38,H  84)          121.7821         0.356337   
    242. A(C  31,C  38,H  84)          120.0456         0.357700   
    243. A(C  31,C  38,C  39)          118.1722         0.438583   
    244. A(C  40,C  39,H  85)          119.7009         0.356224   
    245. A(C  38,C  39,H  85)          119.9296         0.356258   
    246. A(C  38,C  39,C  40)          120.3695         0.436766   
    247. A(C  41,C  40,H  86)          118.9489         0.355921   
    248. A(C  39,C  40,H  86)          119.4835         0.356200   
    249. A(C  39,C  40,C  41)          121.5676         0.436360   
    250. A(C  40,C  41,H  87)          119.7183         0.356459   
    251. A(C  32,C  41,H  87)          121.7395         0.356939   
    252. A(C  32,C  41,C  40)          118.5421         0.436619   
    253. A(C  43,C  42,H  88)          121.7996         0.356365   
    254. A(C  35,C  42,H  88)          120.0336         0.357715   
    255. A(C  35,C  42,C  43)          118.1667         0.438607   
    256. A(C  44,C  43,H  89)          119.7103         0.356209   
    257. A(C  42,C  43,H  89)          119.9376         0.356274   
    258. A(C  42,C  43,C  44)          120.3521         0.436767   
    259. A(C  45,C  44,H  90)          118.9459         0.355926   
    260. A(C  43,C  44,H  90)          119.4738         0.356189   
    261. A(C  43,C  44,C  45)          121.5803         0.436340   
    262. A(C  44,C  45,H  91)          119.6977         0.356472   
    263. A(C  36,C  45,H  91)          121.7527         0.356929   
    264. A(C  36,C  45,C  44)          118.5494         0.436591   
    265. A(C  52,C  48,C  53)          108.8956         0.422995   
    266. A(C  37,C  48,C  53)          124.1480         0.434480   
    267. A(C  37,C  48,C  52)          126.9540         0.434615   
    268. A(C  50,C  49,C  51)          109.0093         0.423009   
    269. A(C  33,C  49,C  51)          124.1473         0.434512   
    270. A(C  33,C  49,C  50)          126.8368         0.434614   
    271. A(C  49,C  50,N  54)          174.4535         0.490977   
    272. L(C  49,C  51,N  55,C  50, 2) 179.6737         0.491213   
    273. L(C  49,C  51,N  55,C  50, 1) 175.7439         0.491213   
    274. A(C  48,C  52,N  57)          174.4158         0.491008   
    275. L(C  48,C  53,N  56,C  52, 2) 180.2718         0.491204   
    276. L(C  48,C  53,N  56,C  52, 1) 175.6185         0.491204   
    277. D(C   2,C   1,C   0,C   5)     -2.6979         0.022091   
    278. D(C   2,C   1,C   0,C   9)    176.6322         0.022091   
    279. D(C  11,C   1,C   0,C   9)     -0.9382         0.022091   
    280. D(C  11,C   1,C   0,C   5)    179.7318         0.022091   
    281. D(H  58,C   2,C   1,C   0)   -176.0120         0.030150   
    282. D(C   3,C   2,C   1,C   0)      3.1260         0.030150   
    283. D(C   3,C   2,C   1,C  11)   -179.7954         0.030150   
    284. D(H  58,C   2,C   1,C  11)      1.0666         0.030150   
    285. D(C   4,C   3,C   2,H  58)    178.5383         0.026358   
    286. D(C   6,C   3,C   2,C   1)   -178.7919         0.026358   
    287. D(C   4,C   3,C   2,C   1)     -0.6252         0.026358   
    288. D(C   6,C   3,C   2,H  58)      0.3716         0.026358   
    289. D(C   5,C   4,C   3,C   6)    175.9975         0.021935   
    290. D(C   5,C   4,C   3,C   2)     -2.5428         0.021935   
    291. D(C   8,C   4,C   3,C   2)    179.3670         0.021935   
    292. D(C   8,C   4,C   3,C   6)     -2.0928         0.021935   
    293. D(H  59,C   5,C   0,C   1)    178.5558         0.026263   
    294. D(H  59,C   5,C   4,C   8)      1.6838         0.030371   
    295. D(C   0,C   5,C   4,C   8)   -179.3185         0.030371   
    296. D(C   0,C   5,C   4,C   3)      2.9788         0.030371   
    297. D(H  59,C   5,C   0,C   9)     -0.6038         0.026263   
    298. D(H  59,C   5,C   4,C   3)   -176.0189         0.030371   
    299. D(C   4,C   5,C   0,C   9)   -179.6286         0.026263   
    300. D(C   4,C   5,C   0,C   1)     -0.4690         0.026263   
    301. D(S  12,C   6,C   3,C   2)     -0.9101         0.020250   
    302. D(C   7,C   6,C   3,C   4)      0.0022         0.020250   
    303. D(S  12,C   6,C   3,C   4)   -179.2944         0.020250   
    304. D(C   7,C   6,C   3,C   2)    178.3865         0.020250   
    305. D(C  14,C   7,C   6,C   3)   -179.8869         0.026366   
    306. D(C   8,C   7,C   6,C   3)      2.0940         0.026366   
    307. D(C   8,C   7,C   6,S  12)   -178.4276         0.026366   
    308. D(C  14,C   7,C   6,S  12)     -0.4085         0.026366   
    309. D(C  19,C   8,C   7,C  14)    -62.9740         0.012323   
    310. D(C  18,C   8,C   7,C  14)     59.8637         0.012323   
    311. D(C  18,C   8,C   7,C   6)   -122.7621         0.012323   
    312. D(C   4,C   8,C   7,C  14)    179.5283         0.012323   
    313. D(C   4,C   8,C   7,C   6)     -3.0975         0.012323   
    314. D(C  19,C   8,C   4,C   3)   -110.5823         0.011424   
    315. D(C  19,C   8,C   4,C   5)     71.5530         0.011424   
    316. D(C  18,C   8,C   4,C   5)    -55.2369         0.011424   
    317. D(C  18,C   8,C   4,C   3)    122.6278         0.011424   
    318. D(C  19,C   8,C   7,C   6)    114.4002         0.012323   
    319. D(C   7,C   8,C   4,C   5)   -174.7310         0.011424   
    320. D(C   7,C   8,C   4,C   3)      3.1337         0.011424   
    321. D(S  15,C   9,C   0,C   5)     -1.7213         0.020455   
    322. D(S  15,C   9,C   0,C   1)    179.0184         0.020455   
    323. D(C  10,C   9,C   0,C   1)      0.2358         0.020455   
    324. D(C  10,C   9,C   0,C   5)    179.4961         0.020455   
    325. D(C  17,C  10,C   9,C   0)    177.9504         0.026176   
    326. D(C  11,C  10,C   9,S  15)   -178.5282         0.026176   
    327. D(C  17,C  10,C   9,S  15)     -1.1360         0.026176   
    328. D(C  11,C  10,C   9,C   0)      0.5582         0.026176   
    329. D(C  22,C  11,C  10,C  17)    -59.7533         0.012139   
    330. D(C  22,C  11,C  10,C   9)    116.7460         0.012139   
    331. D(C   1,C  11,C  10,C  17)   -177.5360         0.012139   
    332. D(C   1,C  11,C  10,C   9)     -1.0367         0.012139   
    333. D(C  23,C  11,C   1,C   2)    -57.7259         0.011146   
    334. D(C  22,C  11,C   1,C   2)     69.5296         0.011146   
    335. D(C  22,C  11,C   1,C   0)   -113.1902         0.011146   
    336. D(C  10,C  11,C   1,C   0)      1.1974         0.011146   
    337. D(C  10,C  11,C   1,C   2)   -176.0829         0.011146   
    338. D(C  23,C  11,C  10,C   9)   -117.1053         0.012139   
    339. D(C  23,C  11,C   1,C   0)    119.5544         0.011146   
    340. D(C  23,C  11,C  10,C  17)     66.3954         0.012139   
    341. D(C  13,S  12,C   6,C   3)    179.6225         0.005655   
    342. D(C  13,S  12,C   6,C   7)      0.3360         0.005655   
    343. D(C  27,C  13,S  12,C   6)    179.7831         0.004053   
    344. D(C  14,C  13,S  12,C   6)     -0.1914         0.004053   
    345. D(H  60,C  14,C  13,C  27)      0.2111         0.026549   
    346. D(H  60,C  14,C  13,S  12)   -179.8203         0.026549   
    347. D(C   7,C  14,C  13,C  27)   -179.9695         0.026549   
    348. D(C   7,C  14,C  13,S  12)     -0.0009         0.026549   
    349. D(H  60,C  14,C   7,C   8)     -2.6158         0.028578   
    350. D(C  13,C  14,C   7,C   8)    177.5727         0.028578   
    351. D(C  13,C  14,C   7,C   6)      0.2572         0.028578   
    352. D(H  60,C  14,C   7,C   6)   -179.9313         0.028578   
    353. D(C  16,S  15,C   9,C  10)      0.5338         0.005673   
    354. D(C  16,S  15,C   9,C   0)   -178.2303         0.005673   
    355. D(C  26,C  16,S  15,C   9)    178.9288         0.004088   
    356. D(C  17,C  16,S  15,C   9)      0.1777         0.004088   
    357. D(H  61,C  17,C  16,C  26)      0.3042         0.026528   
    358. D(H  61,C  17,C  16,S  15)    178.7650         0.026528   
    359. D(C  10,C  17,C  16,C  26)   -179.3102         0.026528   
    360. D(C  10,C  17,C  16,S  15)     -0.8493         0.026528   
    361. D(H  61,C  17,C  10,C  11)     -1.8940         0.028333   
    362. D(H  61,C  17,C  10,C   9)   -178.3246         0.028333   
    363. D(C  16,C  17,C  10,C  11)    177.6992         0.028333   
    364. D(C  16,C  17,C  10,C   9)      1.2686         0.028333   
    365. D(H  63,C  18,C   8,C  19)    -64.7594         0.010677   
    366. D(H  63,C  18,C   8,C   7)    175.0729         0.010677   
    367. D(H  63,C  18,C   8,C   4)     62.2654         0.010677   
    368. D(H  62,C  18,C   8,C  19)     52.9126         0.010677   
    369. D(H  62,C  18,C   8,C   7)    -67.2551         0.010677   
    370. D(H  62,C  18,C   8,C   4)    179.9374         0.010677   
    371. D(C  21,C  18,C   8,C  19)    174.1518         0.010677   
    372. D(C  21,C  18,C   8,C   7)     53.9841         0.010677   
    373. D(C  21,C  18,C   8,C   4)    -58.8234         0.010677   
    374. D(H  65,C  19,C   8,C  18)   -174.5148         0.009901   
    375. D(H  65,C  19,C   8,C   7)    -51.4896         0.009901   
    376. D(H  65,C  19,C   8,C   4)     58.4051         0.009901   
    377. D(H  64,C  19,C   8,C  18)    -58.8562         0.009901   
    378. D(H  64,C  19,C   8,C   7)     64.1690         0.009901   
    379. D(H  64,C  19,C   8,C   4)    174.0637         0.009901   
    380. D(C  20,C  19,C   8,C  18)     63.4409         0.009901   
    381. D(C  20,C  19,C   8,C   7)   -173.5339         0.009901   
    382. D(C  20,C  19,C   8,C   4)    -63.6393         0.009901   
    383. D(H  68,C  20,C  19,H  65)    -57.5973         0.011742   
    384. D(H  68,C  20,C  19,H  64)   -174.7233         0.011742   
    385. D(H  68,C  20,C  19,C   8)     64.0202         0.011742   
    386. D(H  67,C  20,C  19,H  65)     61.3495         0.011742   
    387. D(H  67,C  20,C  19,H  64)    -55.7766         0.011742   
    388. D(H  67,C  20,C  19,C   8)   -177.0330         0.011742   
    389. D(H  66,C  20,C  19,H  65)   -179.4958         0.011742   
    390. D(H  66,C  20,C  19,H  64)     63.3782         0.011742   
    391. D(H  66,C  20,C  19,C   8)    -57.8783         0.011742   
    392. D(H  71,C  21,C  18,H  63)    -62.4410         0.011580   
    393. D(H  71,C  21,C  18,C   8)     58.6692         0.011580   
    394. D(H  70,C  21,C  18,H  63)     57.4206         0.011580   
    395. D(H  70,C  21,C  18,H  62)    -60.7845         0.011580   
    396. D(H  70,C  21,C  18,C   8)    178.5309         0.011580   
    397. D(H  69,C  21,C  18,H  63)    177.1685         0.011580   
    398. D(H  71,C  21,C  18,H  62)    179.3538         0.011580   
    399. D(H  69,C  21,C  18,H  62)     58.9634         0.011580   
    400. D(H  69,C  21,C  18,C   8)    -61.7212         0.011580   
    401. D(C  24,C  22,C  11,C  23)     57.1764         0.010113   
    402. D(C  24,C  22,C  11,C  10)   -177.6528         0.010113   
    403. D(C  24,C  22,C  11,C   1)    -67.4905         0.010113   
    404. D(H  73,C  22,C  11,C  23)    179.0840         0.010113   
    405. D(H  73,C  22,C  11,C  10)    -55.7451         0.010113   
    406. D(H  73,C  22,C  11,C   1)     54.4171         0.010113   
    407. D(H  72,C  22,C  11,C  23)    -65.5444         0.010113   
    408. D(H  72,C  22,C  11,C  10)     59.6265         0.010113   
    409. D(H  72,C  22,C  11,C   1)    169.7887         0.010113   
    410. D(H  75,C  23,C  11,C  22)    176.6435         0.010306   
    411. D(H  75,C  23,C  11,C  10)     53.9420         0.010306   
    412. D(H  75,C  23,C  11,C   1)    -57.0383         0.010306   
    413. D(H  74,C  23,C  11,C  22)    -67.7462         0.010306   
    414. D(H  74,C  23,C  11,C  10)    169.5523         0.010306   
    415. D(H  74,C  23,C  11,C   1)     58.5720         0.010306   
    416. D(C  25,C  23,C  11,C  22)     54.9864         0.010306   
    417. D(C  25,C  23,C  11,C  10)    -67.7151         0.010306   
    418. D(C  25,C  23,C  11,C   1)   -178.6954         0.010306   
    419. D(H  78,C  24,C  22,H  72)   -172.9735         0.011718   
    420. D(H  78,C  24,C  22,C  11)     65.2187         0.011718   
    421. D(H  77,C  24,C  22,H  73)     62.8704         0.011718   
    422. D(H  77,C  24,C  22,H  72)    -54.0751         0.011718   
    423. D(H  77,C  24,C  22,C  11)   -175.8829         0.011718   
    424. D(H  76,C  24,C  22,H  73)   -177.8506         0.011718   
    425. D(H  76,C  24,C  22,H  72)     65.2039         0.011718   
    426. D(H  78,C  24,C  22,H  73)    -56.0280         0.011718   
    427. D(H  76,C  24,C  22,C  11)    -56.6039         0.011718   
    428. D(H  81,C  25,C  23,H  75)    177.4607         0.011697   
    429. D(H  81,C  25,C  23,H  74)     60.4878         0.011697   
    430. D(H  81,C  25,C  23,C  11)    -61.7303         0.011697   
    431. D(H  80,C  25,C  23,H  75)    -61.0157         0.011697   
    432. D(H  80,C  25,C  23,H  74)   -177.9885         0.011697   
    433. D(H  80,C  25,C  23,C  11)     59.7934         0.011697   
    434. D(H  79,C  25,C  23,H  75)     58.1993         0.011697   
    435. D(H  79,C  25,C  23,H  74)    -58.7735         0.011697   
    436. D(H  79,C  25,C  23,C  11)    179.0084         0.011697   
    437. D(H  82,C  26,C  16,C  17)    176.8821         0.023982   
    438. D(H  82,C  26,C  16,S  15)     -1.5261         0.023982   
    439. D(C  29,C  26,C  16,C  17)     -3.2762         0.023982   
    440. D(C  29,C  26,C  16,S  15)    178.3156         0.023982   
    441. D(H  83,C  27,C  13,C  14)   -178.6404         0.023956   
    442. D(H  83,C  27,C  13,S  12)      1.3922         0.023956   
    443. D(C  28,C  27,C  13,C  14)      2.1206         0.023956   
    444. D(C  28,C  27,C  13,S  12)   -177.8469         0.023956   
    445. D(C  37,C  28,C  27,H  83)      0.6455         0.031387   
    446. D(C  37,C  28,C  27,C  13)    179.8663         0.031387   
    447. D(C  34,C  28,C  27,H  83)   -177.2882         0.031387   
    448. D(C  34,C  28,C  27,C  13)      1.9326         0.031387   
    449. D(C  33,C  29,C  26,H  82)     -2.1693         0.031368   
    450. D(C  33,C  29,C  26,C  16)    177.9928         0.031368   
    451. D(C  30,C  29,C  26,H  82)    174.8632         0.031368   
    452. D(C  30,C  29,C  26,C  16)     -4.9747         0.031368   
    453. D(O  46,C  30,C  29,C  33)   -178.5630         0.013703   
    454. D(O  46,C  30,C  29,C  26)      4.0435         0.013703   
    455. D(C  31,C  30,C  29,C  33)      2.0345         0.013703   
    456. D(C  31,C  30,C  29,C  26)   -175.3589         0.013703   
    457. D(C  38,C  31,C  30,O  46)     -0.4720         0.014219   
    458. D(C  38,C  31,C  30,C  29)    178.9593         0.014219   
    459. D(C  32,C  31,C  30,O  46)    179.5924         0.014219   
    460. D(C  32,C  31,C  30,C  29)     -0.9762         0.014219   
    461. D(C  41,C  32,C  31,C  38)     -0.1763         0.024230   
    462. D(C  41,C  32,C  31,C  30)    179.7641         0.024230   
    463. D(C  33,C  32,C  31,C  38)    179.5985         0.024230   
    464. D(C  33,C  32,C  31,C  30)     -0.4611         0.024230   
    465. D(C  49,C  33,C  32,C  41)      3.2671         0.015657   
    466. D(C  49,C  33,C  32,C  31)   -176.4696         0.015657   
    467. D(C  29,C  33,C  32,C  41)   -178.5106         0.015657   
    468. D(C  29,C  33,C  32,C  31)      1.7526         0.015657   
    469. D(C  49,C  33,C  29,C  30)    175.8076         0.016483   
    470. D(C  49,C  33,C  29,C  26)     -6.6225         0.016483   
    471. D(C  32,C  33,C  29,C  30)     -2.3439         0.016483   
    472. D(C  32,C  33,C  29,C  26)    175.2260         0.016483   
    473. D(O  47,C  34,C  28,C  37)    178.5233         0.013680   
    474. D(O  47,C  34,C  28,C  27)     -3.2912         0.013680   
    475. D(C  35,C  34,C  28,C  37)     -1.7101         0.013680   
    476. D(C  35,C  34,C  28,C  27)    176.4754         0.013680   
    477. D(C  42,C  35,C  34,O  47)      0.7684         0.014230   
    478. D(C  42,C  35,C  34,C  28)   -179.0099         0.014230   
    479. D(C  36,C  35,C  34,O  47)   -179.3126         0.014230   
    480. D(C  36,C  35,C  34,C  28)      0.9091         0.014230   
    481. D(C  45,C  36,C  35,C  42)      0.1214         0.024261   
    482. D(C  45,C  36,C  35,C  34)   -179.8036         0.024261   
    483. D(C  37,C  36,C  35,C  42)   -179.8295         0.024261   
    484. D(C  37,C  36,C  35,C  34)      0.2454         0.024261   
    485. D(C  48,C  37,C  36,C  45)     -2.1863         0.015633   
    486. D(C  48,C  37,C  36,C  35)    177.7563         0.015633   
    487. D(C  28,C  37,C  36,C  45)    178.7243         0.015633   
    488. D(C  28,C  37,C  36,C  35)     -1.3332         0.015633   
    489. D(C  48,C  37,C  28,C  34)   -177.1649         0.016443   
    490. D(C  48,C  37,C  28,C  27)      4.5266         0.016443   
    491. D(C  36,C  37,C  28,C  34)      1.8862         0.016443   
    492. D(C  36,C  37,C  28,C  27)   -176.4223         0.016443   
    493. D(H  84,C  38,C  31,C  32)   -179.9468         0.028962   
    494. D(H  84,C  38,C  31,C  30)      0.1246         0.028962   
    495. D(C  39,C  38,C  31,C  32)      0.0464         0.028962   
    496. D(C  39,C  38,C  31,C  30)   -179.8822         0.028962   
    497. D(H  85,C  39,C  38,H  84)      0.0517         0.027607   
    498. D(H  85,C  39,C  38,C  31)   -179.9414         0.027607   
    499. D(C  40,C  39,C  38,H  84)   -179.8977         0.027607   
    500. D(C  40,C  39,C  38,C  31)      0.1092         0.027607   
    501. D(H  86,C  40,C  39,H  85)     -0.0732         0.027575   
    502. D(H  86,C  40,C  39,C  38)    179.8762         0.027575   
    503. D(C  41,C  40,C  39,H  85)    179.9123         0.027575   
    504. D(C  41,C  40,C  39,C  38)     -0.1383         0.027575   
    505. D(H  87,C  41,C  40,H  86)     -0.1397         0.027305   
    506. D(H  87,C  41,C  40,C  39)    179.8747         0.027305   
    507. D(C  32,C  41,C  40,H  86)    179.9926         0.027305   
    508. D(C  32,C  41,C  40,C  39)      0.0071         0.027305   
    509. D(H  87,C  41,C  32,C  33)      0.5676         0.027769   
    510. D(H  87,C  41,C  32,C  31)   -179.7189         0.027769   
    511. D(C  40,C  41,C  32,C  33)   -179.5676         0.027769   
    512. D(C  40,C  41,C  32,C  31)      0.1459         0.027769   
    513. D(H  88,C  42,C  35,C  36)    179.9191         0.028965   
    514. D(H  88,C  42,C  35,C  34)     -0.1707         0.028965   
    515. D(C  43,C  42,C  35,C  36)     -0.0612         0.028965   
    516. D(C  43,C  42,C  35,C  34)    179.8490         0.028965   
    517. D(H  89,C  43,C  42,H  88)     -0.0050         0.027622   
    518. D(H  89,C  43,C  42,C  35)    179.9749         0.027622   
    519. D(C  44,C  43,C  42,H  88)    179.9796         0.027622   
    520. D(C  44,C  43,C  42,C  35)     -0.0405         0.027622   
    521. D(H  90,C  44,C  43,H  89)      0.0781         0.027559   
    522. D(H  90,C  44,C  43,C  42)   -179.9064         0.027559   
    523. D(C  45,C  44,C  43,H  89)   -179.9317         0.027559   
    524. D(C  45,C  44,C  43,C  42)      0.0837         0.027559   
    525. D(H  91,C  45,C  44,C  43)   -179.8935         0.027306   
    526. D(C  36,C  45,C  44,H  90)    179.9671         0.027306   
    527. D(C  36,C  45,C  44,C  43)     -0.0231         0.027306   
    528. D(H  91,C  45,C  36,C  37)     -0.2717         0.027747   
    529. D(H  91,C  45,C  36,C  35)    179.7908         0.027747   
    530. D(C  44,C  45,C  36,C  37)    179.8608         0.027747   
    531. D(C  44,C  45,C  36,C  35)     -0.0768         0.027747   
    532. D(H  91,C  45,C  44,H  90)      0.0968         0.027306   
    533. D(C  53,C  48,C  37,C  36)      1.0506         0.031438   
    534. D(C  53,C  48,C  37,C  28)    179.9543         0.031438   
    535. D(C  52,C  48,C  37,C  36)   -178.3132         0.031438   
    536. D(C  52,C  48,C  37,C  28)      0.5905         0.031438   
    537. D(C  51,C  49,C  33,C  32)     -1.7448         0.031445   
    538. D(C  51,C  49,C  33,C  29)   -179.6071         0.031445   
    539. D(C  50,C  49,C  33,C  32)    177.2154         0.031445   
    540. D(C  50,C  49,C  33,C  29)     -0.6469         0.031445   
    541. D(N  54,C  50,C  49,C  51)      5.6110         0.020779   
    542. D(N  54,C  50,C  49,C  33)   -173.4788         0.020779   
    543. D(N  57,C  52,C  48,C  53)     -3.4619         0.020784   
    544. D(N  57,C  52,C  48,C  37)    175.9816         0.020784   
    -----------------------------------------------------------------

Number of atoms                         .... 92
Number of degrees of freedom            .... 544

         *************************************************************
         *                GEOMETRY OPTIMIZATION CYCLE   1            *
         *************************************************************
---------------------------------
CARTESIAN COORDINATES (ANGSTROEM)
---------------------------------
  C      2.886520    1.026590   -0.087000
  C      2.831180   -0.381140   -0.230830
  C      1.612770   -1.020680   -0.218820
  C      0.469450   -0.229430   -0.129690
  C      0.525010    1.183690   -0.039730
  C      1.743880    1.818170    0.014330
  C     -0.908660   -0.597640   -0.073260
  C     -1.712990    0.533440    0.048410
  C     -0.868040    1.780080    0.029300
  C      4.265730    1.388630   -0.057760
  C      5.075840    0.260950   -0.183220
  C      4.226680   -0.977670   -0.323180
  S     -1.811350   -2.044770   -0.101410
  C     -3.314940   -1.123720    0.043270
  C     -3.063860    0.244120    0.110960
  S      5.157320    2.837040    0.065190
  C      6.667550    1.928890   -0.069350
  C      6.426000    0.564370   -0.205840
  C     -1.073590    2.634950    1.289010
  C     -1.234480    2.558010   -1.257020
  C     -0.383460    3.784480   -1.556170
  C     -0.854880    1.843300    2.573320
  C      4.511440   -1.586920   -1.713190
  C      4.433660   -1.962300    0.844510
  C      3.702390   -2.825970   -2.072380
  C      5.807140   -2.618130    0.899810
  C      7.844500    2.696750   -0.047530
  C     -4.495220   -1.886670    0.066580
  C     -5.817970   -1.531330    0.127860
  C      9.169690    2.348440   -0.097030
  C      9.774210    0.997160   -0.092160
  C     11.233150    1.210740   -0.045390
  C     11.513690    2.586550   -0.045460
  C     10.251280    3.321720   -0.103330
  C     -6.414770   -0.176560    0.151250
  C     -7.875530   -0.381140    0.133690
  C     -8.164420   -1.755010    0.122840
  C     -6.905420   -2.498510    0.138820
  C     12.236020    0.261870   -0.004580
  C     13.551470    0.700580    0.038160
  C     13.838440    2.058060    0.041680
  C     12.831950    3.014020    0.000180
  C     -8.872590    0.574660    0.126230
  C    -10.191480    0.144980    0.106140
  C    -10.487130   -1.210650    0.093190
  C     -9.486310   -2.173400    0.101520
  O      9.224360   -0.086560   -0.110040
  O     -5.859650    0.904100    0.175390
  C     -6.811750   -3.865550    0.178150
  C     10.148980    4.686020   -0.188550
  C      8.961210    5.440150   -0.301840
  C     11.254080    5.564680   -0.196200
  C     -5.628820   -4.633930    0.228410
  C     -7.923260   -4.736210    0.187010
  N      8.058740    6.143570   -0.408150
  N     12.097180    6.343920   -0.205630
  N     -8.770250   -5.511160    0.194190
  N     -4.731340   -5.349810    0.277980
  H      1.519200   -2.094300   -0.261530
  H      1.837500    2.884680    0.146080
  H     -3.854950    0.964520    0.204180
  H      7.229590   -0.138520   -0.320270
  H     -2.090110    3.032360    1.275540
  H     -0.378780    3.474880    1.266590
  H     -2.280420    2.858860   -1.167490
  H     -1.160750    1.866190   -2.100410
  H     -0.417040    4.501000   -0.740210
  H     -0.766000    4.274620   -2.448680
  H      0.650200    3.506610   -1.742750
  H     -1.567710    1.025460    2.650190
  H     -0.984630    2.491020    3.436870
  H      0.150220    1.427360    2.603280
  H      5.575370   -1.823660   -1.758920
  H      4.318060   -0.811230   -2.459370
  H      3.666330   -2.735390    0.782790
  H      4.264150   -1.410590    1.773350
  H      3.833230   -3.614220   -1.336320
  H      4.038170   -3.205410   -3.035080
  H      2.644810   -2.592210   -2.156030
  H      5.855520   -3.276620    1.764440
  H      6.593800   -1.875970    0.997310
  H      5.997900   -3.214580    0.012170
  H      7.644160    3.759320    0.024400
  H     -4.300310   -2.951330    0.014830
  H     11.986800   -0.788200   -0.006590
  H     14.357740   -0.016680    0.069720
  H     14.867280    2.383620    0.077220
  H     13.088560    4.060280    0.006230
  H     -8.616080    1.622870    0.136280
  H    -10.993530    0.867620    0.100270
  H    -11.518590   -1.529280    0.076060
  H     -9.750260   -3.217720    0.089280

----------------------------
CARTESIAN COORDINATES (A.U.)
----------------------------
  NO LB      ZA    FRAG     MASS         X           Y           Z
   0 C     6.0000    0    12.011    5.454732    1.939974   -0.164406
   1 C     6.0000    0    12.011    5.350155   -0.720250   -0.436205
   2 C     6.0000    0    12.011    3.047694   -1.928806   -0.413510
   3 C     6.0000    0    12.011    0.887132   -0.433560   -0.245079
   4 C     6.0000    0    12.011    0.992125    2.236850   -0.075079
   5 C     6.0000    0    12.011    3.295456    3.435843    0.027080
   6 C     6.0000    0    12.011   -1.717119   -1.129376   -0.138441
   7 C     6.0000    0    12.011   -3.237082    1.008056    0.091482
   8 C     6.0000    0    12.011   -1.640358    3.363864    0.055369
   9 C     6.0000    0    12.011    8.061061    2.624130   -0.109151
  10 C     6.0000    0    12.011    9.591947    0.493124   -0.346236
  11 C     6.0000    0    12.011    7.987268   -1.847529   -0.610722
  12 S    16.0000    0    32.060   -3.422955   -3.864055   -0.191637
  13 C     6.0000    0    12.011   -6.264329   -2.123523    0.081768
  14 C     6.0000    0    12.011   -5.789856    0.461320    0.209684
  15 S    16.0000    0    32.060    9.745922    5.361229    0.123191
  16 C     6.0000    0    12.011   12.599843    3.645074   -0.131053
  17 C     6.0000    0    12.011   12.143380    1.066505   -0.388981
  18 C     6.0000    0    12.011   -2.028791    4.979334    2.435876
  19 C     6.0000    0    12.011   -2.332829    4.833938   -2.375424
  20 C     6.0000    0    12.011   -0.724634    7.151631   -2.940735
  21 C     6.0000    0    12.011   -1.615489    3.483332    4.862870
  22 C     6.0000    0    12.011    8.525386   -2.998844   -3.237460
  23 C     6.0000    0    12.011    8.378403   -3.708210    1.595893
  24 C     6.0000    0    12.011    6.996503   -5.340309   -3.916231
  25 C     6.0000    0    12.011   10.973904   -4.947549    1.700394
  26 C     6.0000    0    12.011   14.823957    5.096119   -0.089819
  27 C     6.0000    0    12.011   -8.494735   -3.565290    0.125818
  28 C     6.0000    0    12.011  -10.994370   -2.893794    0.241620
  29 C     6.0000    0    12.011   17.328203    4.437908   -0.183360
  30 C     6.0000    0    12.011   18.470580    1.884359   -0.174157
  31 C     6.0000    0    12.011   21.227577    2.287967   -0.085775
  32 C     6.0000    0    12.011   21.757721    4.887871   -0.085907
  33 C     6.0000    0    12.011   19.372112    6.277141   -0.195265
  34 C     6.0000    0    12.011  -12.122159   -0.333650    0.285821
  35 C     6.0000    0    12.011  -14.882595   -0.720250    0.252637
  36 C     6.0000    0    12.011  -15.428518   -3.316488    0.232134
  37 C     6.0000    0    12.011  -13.049353   -4.721500    0.262332
  38 C     6.0000    0    12.011   23.122727    0.494863   -0.008655
  39 C     6.0000    0    12.011   25.608567    1.323904    0.072112
  40 C     6.0000    0    12.011   26.150862    3.889170    0.078764
  41 C     6.0000    0    12.011   24.248871    5.695672    0.000340
  42 C     6.0000    0    12.011  -16.766765    1.085950    0.238540
  43 C     6.0000    0    12.011  -19.259106    0.273972    0.200576
  44 C     6.0000    0    12.011  -19.817804   -2.287797    0.176104
  45 C     6.0000    0    12.011  -17.926528   -4.107131    0.191845
  46 O     8.0000    0    15.999   17.431514   -0.163575   -0.207945
  47 O     8.0000    0    15.999  -11.073134    1.708501    0.331439
  48 C     6.0000    0    12.011  -12.872342   -7.304831    0.336655
  49 C     6.0000    0    12.011   19.178793    8.855294   -0.356308
  50 C     6.0000    0    12.011   16.934233   10.280394   -0.570395
  51 C     6.0000    0    12.011   21.267129   10.515721   -0.370764
  52 C     6.0000    0    12.011  -10.636928   -8.756859    0.431632
  53 C     6.0000    0    12.011  -14.972791   -8.950140    0.353398
  54 N     7.0000    0    14.007   15.228812   11.609665   -0.771292
  55 N     7.0000    0    14.007   22.860357   11.988271   -0.388584
  56 N     7.0000    0    14.007  -16.573371  -10.414583    0.366966
  57 N     7.0000    0    14.007   -8.940937  -10.109676    0.525306
  58 H     1.0000    0     1.008    2.870872   -3.957653   -0.494220
  59 H     1.0000    0     1.008    3.472372    5.451255    0.276051
  60 H     1.0000    0     1.008   -7.284800    1.822679    0.385844
  61 H     1.0000    0     1.008   13.661945   -0.261765   -0.605223
  62 H     1.0000    0     1.008   -3.949735    5.730330    2.410421
  63 H     1.0000    0     1.008   -0.715790    6.566572    2.393508
  64 H     1.0000    0     1.008   -4.309369    5.402462   -2.206236
  65 H     1.0000    0     1.008   -2.193500    3.526588   -3.969200
  66 H     1.0000    0     1.008   -0.788091    8.505657   -1.398794
  67 H     1.0000    0     1.008   -1.447530    8.077861   -4.627335
  68 H     1.0000    0     1.008    1.228700    6.626533   -3.293320
  69 H     1.0000    0     1.008   -2.962543    1.937839    5.008133
  70 H     1.0000    0     1.008   -1.860681    4.707346    6.494743
  71 H     1.0000    0     1.008    0.283875    2.697319    4.919486
  72 H     1.0000    0     1.008   10.535922   -3.446218   -3.323877
  73 H     1.0000    0     1.008    8.159951   -1.533003   -4.647536
  74 H     1.0000    0     1.008    6.928360   -5.169138    1.479259
  75 H     1.0000    0     1.008    8.058076   -2.665629    3.351146
  76 H     1.0000    0     1.008    7.243755   -6.829886   -2.525279
  77 H     1.0000    0     1.008    7.631035   -6.057347   -5.735470
  78 H     1.0000    0     1.008    4.997967   -4.898567   -4.074306
  79 H     1.0000    0     1.008   11.065329   -6.191914    3.334308
  80 H     1.0000    0     1.008   12.460476   -3.545070    1.884643
  81 H     1.0000    0     1.008   11.334388   -6.074676    0.022998
  82 H     1.0000    0     1.008   14.445369    7.104085    0.046109
  83 H     1.0000    0     1.008   -8.126408   -5.577205    0.028025
  84 H     1.0000    0     1.008   22.651769   -1.489482   -0.012453
  85 H     1.0000    0     1.008   27.132197   -0.031521    0.131752
  86 H     1.0000    0     1.008   28.095088    4.504389    0.145925
  87 H     1.0000    0     1.008   24.733794    7.672817    0.011773
  88 H     1.0000    0     1.008  -16.282032    3.066780    0.257532
  89 H     1.0000    0     1.008  -20.774761    1.639564    0.189483
  90 H     1.0000    0     1.008  -21.766981   -2.889920    0.143733
  91 H     1.0000    0     1.008  -18.425321   -6.080610    0.168715

--------------------------------
INTERNAL COORDINATES (ANGSTROEM)
--------------------------------
 C      0   0   0     0.000000000000     0.00000000     0.00000000
 C      1   0   0     1.416140295804     0.00000000     0.00000000
 C      2   1   0     1.376109944663   119.71579690     0.00000000
 C      3   2   1     1.393270017549   117.59301421     3.12599030
 C      4   3   2     1.417070163965   122.56205609   359.37478439
 C      5   4   3     1.375184144360   119.82408489   357.45720828
 C      4   3   2     1.427567904199   130.40763193   181.20807753
 C      7   4   3     1.393230886896   110.57098434   178.38648575
 C      8   7   4     1.506126483467   110.30297886     2.09400535
 C      1   2   3     1.426235661909   106.99015035   176.63219308
 C     10   1   2     1.394159462221   110.77791415     0.23576171
 C     11  10   1     1.508257607838   110.20978556     0.55819670
 S      7   4   3     1.705821472341   136.80338404   359.08987660
 C     13   7   4     1.769194249652    90.38585341   179.62251657
 C      8   7   4     1.382920215269   113.45561512   180.11311658
 S     10   1   2     1.705268588434   136.27709437   179.01840713
 C     16  10   1     1.767380006394    90.27738224   181.76971439
 C     11  10   1     1.384018564326   113.01687245   177.95036171
 C      9   8   7     1.536204024048   112.03282167   237.23790322
 C      9   8   7     1.547279063679   107.08780168   114.40016068
 C     20   9   8     1.522482979806   115.84826235   186.46607391
 C     19   9   8     1.524465795845   112.49845835    53.98412736
 C     12  11  10     1.544150776382   107.68146416   116.74598122
 C     12  11  10     1.541375000900   112.25305286   242.89469129
 C     23  12  11     1.522768617059   115.81050789   182.34724196
 C     24  12  11     1.523029346172   115.06692717   292.28489498
 C     17  16  10     1.405452380730   115.70005114   178.92881641
 C     14  13   7     1.405594869441   115.62086363   179.78310269
 C     28  14  13     1.371017620784   132.08241709   182.15307174
 C     27  17  16     1.371093958195   132.06923143   178.31557220
 C     30  27  17     1.480346508659   128.78960656   355.02527195
 C     31  30  27     1.475232108144   105.77162597   184.64107421
 C     32  31  30     1.404121024912   109.84322230   359.02376080
 C     30  27  17     1.455043152797   123.27663527   177.99278772
 C     29  28  14     1.480580658053   128.81123107     1.93258102
 C     35  29  28     1.475120709501   105.78752306   176.47544778
 C     36  35  29     1.403956527639   109.85081129     0.90908813
 C     29  28  14     1.455371009915   123.29764907   179.86630577
 C     32  31  30     1.381219739904   128.28216634   178.95930784
 C     39  32  31     1.387336251310   118.17222930   180.11777770
 C     40  39  32     1.387485539276   120.36950616     0.10924480
 C     33  32  31     1.386586830350   119.47369569   179.76413707
 C     36  35  29     1.381208867333   128.23875521   180.99014180
 C     43  36  35     1.387263256415   118.16673798   179.84899921
 C     44  43  36     1.387555159949   120.35206084   359.95945306
 C     37  36  35     1.386685943752   119.44092319   180.19635466
 O     31  30  27     1.215361573895   128.98693090     4.04354933
 O     35  29  28     1.215140728311   129.04491616   356.70879619
 C     38  29  28     1.370809716700   127.72630054     4.52660480
 C     34  30  27     1.370781612220   127.62804276   353.37753048
 C     50  34  30     1.411504252172   126.83675975   359.35311443
 C     50  34  30     1.411859740945   124.14729865   180.39289399
 C     49  38  29     1.411473441798   126.95400856     0.59050460
 C     49  38  29     1.411942567989   124.14795401   179.95432635
 N     51  50  34     1.149153433359   174.45351821   186.52117452
 N     52  50  34     1.148094731501   175.73930401   181.92926812
 N     54  49  38     1.148037941446   175.61531314   178.25532292
 N     53  49  38     1.149091688987   174.41581206   175.98163064
 H      3   2   1     1.078535763617   122.62207807   183.98800544
 H      6   5   4     1.078687325873   122.54055878   183.98110191
 H     15   8   7     1.074006292579   125.66918557   180.06872676
 H     18  11  10     1.073734354997   126.03830538   181.67536437
 H     19   9   8     1.091526023235   108.48748724   292.74491163
 H     19   9   8     1.090296288813   109.06043936   175.07293774
 H     20   9   8     1.092024187919   107.28884831    64.16901003
 H     20   9   8     1.093324159342   107.88989111   308.51042618
 H     21  20   9     1.086424985169   111.49636190   302.12170214
 H     21  20   9     1.087726147199   109.12562288   182.96697135
 H     21  20   9     1.086497505243   111.06971457    64.02019536
 H     22  19   9     1.087611084625   110.85502840   298.27877431
 H     22  19   9     1.087241860581   110.03807894   178.53086967
 H     22  19   9     1.088177235197   110.74456161    58.66921749
 H     23  12  11     1.090909760429   107.65042079    59.62649319
 H     23  12  11     1.093560877546   107.56273140   304.25487051
 H     24  12  11     1.090996258197   108.38239024   169.55226123
 H     24  12  11     1.093554438425   107.47928858    53.94195965
 H     25  23  12     1.086389198998   111.50482388   303.39605853
 H     25  23  12     1.087894393772   109.18060131   184.11705924
 H     25  23  12     1.086331678862   111.11941210    65.21865677
 H     26  24  12     1.087903829114   109.24461397   179.00838572
 H     26  24  12     1.085882899396   111.23926825    59.79338707
 H     26  24  12     1.086299567201   111.41532823   298.26971635
 H     27  17  16     1.083681247139   112.45251462   358.47390206
 H     28  14  13     1.083590737410   112.42536571     1.39215451
 H     39  32  31     1.079241239668   120.04563467     0.12456114
 H     40  39  32     1.079596801635   119.92960222   180.05859632
 H     41  40  39     1.079705585241   119.48350695   179.87623774
 H     42  33  32     1.077286072592   121.73949857   180.28112030
 H     43  36  35     1.079186076031   120.03363159   359.82926884
 H     44  43  36     1.079595863738   119.93763900   179.97490270
 H     45  44  43     1.079688957710   119.47380770   180.09355966
 H     46  37  36     1.077229633133   121.75268198   179.79079628

---------------------------
INTERNAL COORDINATES (A.U.)
---------------------------
 C      0   0   0     0.000000000000     0.00000000     0.00000000
 C      1   0   0     2.676117326280     0.00000000     0.00000000
 C      2   1   0     2.600470925578   119.71579690     0.00000000
 C      3   2   1     2.632898763771   117.59301421     3.12599030
 C      4   3   2     2.677874522445   122.56205609   359.37478439
 C      5   4   3     2.598721416552   119.82408489   357.45720828
 C      4   3   2     2.697712376513   130.40763193   181.20807753
 C      7   4   3     2.632824817553   110.57098434   178.38648575
 C      8   7   4     2.846166576798   110.30297886     2.09400535
 C      1   2   3     2.695194803439   106.99015035   176.63219308
 C     10   1   2     2.634579570612   110.77791415     0.23576171
 C     11  10   1     2.850193818216   110.20978556     0.55819670
 S      7   4   3     3.223535416087   136.80338404   359.08987660
 C     13   7   4     3.343292609550    90.38585341   179.62251657
 C      8   7   4     2.613340471922   113.45561512   180.11311658
 S     10   1   2     3.222490616919   136.27709437   179.01840713
 C     16  10   1     3.339864186652    90.27738224   181.76971439
 C     11  10   1     2.615416050840   113.01687245   177.95036171
 C      9   8   7     2.903004891278   112.03282167   237.23790322
 C      9   8   7     2.923933683104   107.08780168   114.40016068
 C     20   9   8     2.877075875390   115.84826235   186.46607391
 C     19   9   8     2.880822854677   112.49845835    53.98412736
 C     12  11  10     2.918022076843   107.68146416   116.74598122
 C     12  11  10     2.912776621374   112.25305286   242.89469129
 C     23  12  11     2.877615651572   115.81050789   182.34724196
 C     24  12  11     2.878108358190   115.06692717   292.28489498
 C     17  16  10     2.655920093848   115.70005114   178.92881641
 C     14  13   7     2.656189358489   115.62086363   179.78310269
 C     28  14  13     2.590847828062   132.08241709   182.15307174
 C     27  17  16     2.590992084863   132.06923143   178.31557220
 C     30  27  17     2.797449484673   128.78960656   355.02527195
 C     31  30  27     2.787784668360   105.77162597   184.64107421
 C     32  31  30     2.653404195965   109.84322230   359.02376080
 C     30  27  17     2.749633071823   123.27663527   177.99278772
 C     29  28  14     2.797891962901   128.81123107     1.93258102
 C     35  29  28     2.787574155433   105.78752306   176.47544778
 C     36  35  29     2.653093341169   109.85081129     0.90908813
 C     29  28  14     2.750252631987   123.29764907   179.86630577
 C     32  31  30     2.610127039184   128.28216634   178.95930784
 C     39  32  31     2.621685570638   118.17222930   180.11777770
 C     40  39  32     2.621967684008   120.36950616     0.10924480
 C     33  32  31     2.620269370263   119.47369569   179.76413707
 C     36  35  29     2.610106493003   128.23875521   180.99014180
 C     43  36  35     2.621547630277   118.16673798   179.84899921
 C     44  43  36     2.622099248012   120.35206084   359.95945306
 C     37  36  35     2.620456667450   119.44092319   180.19635466
 O     31  30  27     2.296700528353   128.98693090     4.04354933
 O     35  29  28     2.296283190681   129.04491616   356.70879619
 C     38  29  28     2.590454946282   127.72630054     4.52660480
 C     34  30  27     2.590401836511   127.62804276   353.37753048
 C     50  34  30     2.667356473471   126.83675975   359.35311443
 C     50  34  30     2.668028249894   124.14729865   180.39289399
 C     49  38  29     2.667298250301   126.95400856     0.59050460
 C     49  38  29     2.668184770325   124.14795401   179.95432635
 N     51  50  34     2.171585274903   174.45351821   186.52117452
 N     52  50  34     2.169584618334   175.73930401   181.92926812
 N     54  49  38     2.169477300684   175.61531314   178.25532292
 N     53  49  38     2.171468594951   174.41581206   175.98163064
 H      3   2   1     2.038137218875   122.62207807   183.98800544
 H      6   5   4     2.038423630033   122.54055878   183.98110191
 H     15   8   7     2.029577759083   125.66918557   180.06872676
 H     18  11  10     2.029063871526   126.03830538   181.67536437
 H     19   9   8     2.062685251963   108.48748724   292.74491163
 H     19   9   8     2.060361390688   109.06043936   175.07293774
 H     20   9   8     2.063626646785   107.28884831    64.16901003
 H     20   9   8     2.066083236755   107.88989111   308.51042618
 H     21  20   9     2.053045687019   111.49636190   302.12170214
 H     21  20   9     2.055504526911   109.12562288   182.96697135
 H     21  20   9     2.053182730099   111.06971457    64.02019536
 H     22  19   9     2.055287090159   110.85502840   298.27877431
 H     22  19   9     2.054589357833   110.03807894   178.53086967
 H     22  19   9     2.056356959689   110.74456161    58.66921749
 H     23  12  11     2.061520684033   107.65042079    59.62649319
 H     23  12  11     2.066530569333   107.56273140   304.25487051
 H     24  12  11     2.061684141125   108.38239024   169.55226123
 H     24  12  11     2.066518401158   107.47928858    53.94195965
 H     25  23  12     2.052978060957   111.50482388   303.39605853
 H     25  23  12     2.055822466857   109.18060131   184.11705924
 H     25  23  12     2.052869363653   111.11941210    65.21865677
 H     26  24  12     2.055840297069   109.24461397   179.00838572
 H     26  24  12     2.052021293366   111.23926825    59.79338707
 H     26  24  12     2.052808681406   111.41532823   298.26971635
 H     27  17  16     2.047860773558   112.45251462   358.47390206
 H     28  14  13     2.047689734958   112.42536571     1.39215451
 H     39  32  31     2.039470375406   120.04563467     0.12456114
 H     40  39  32     2.040142290147   119.92960222   180.05859632
 H     41  40  39     2.040347861370   119.48350695   179.87623774
 H     42  33  32     2.035775645086   121.73949857   180.28112030
 H     43  36  35     2.039366131240   120.03363159   359.82926884
 H     44  43  36     2.040140517779   119.93763900   179.97490270
 H     45  44  43     2.040316439890   119.47380770   180.09355966
 H     46  37  36     2.035668989966   121.75268198   179.79079628

---------------------
BASIS SET INFORMATION
---------------------
There are 5 groups of distinct atoms

 Group   1 Type C   : 7s4p1d contracted to 3s2p1d pattern {511/31/1}
 Group   2 Type S   : 10s7p1d contracted to 4s3p1d pattern {5311/511/1}
 Group   3 Type O   : 7s4p1d contracted to 3s2p1d pattern {511/31/1}
 Group   4 Type N   : 7s4p1d contracted to 3s2p1d pattern {511/31/1}
 Group   5 Type H   : 4s1p contracted to 2s1p pattern {31/1}

Atom   0C    basis set group =>   1
Atom   1C    basis set group =>   1
Atom   2C    basis set group =>   1
Atom   3C    basis set group =>   1
Atom   4C    basis set group =>   1
Atom   5C    basis set group =>   1
Atom   6C    basis set group =>   1
Atom   7C    basis set group =>   1
Atom   8C    basis set group =>   1
Atom   9C    basis set group =>   1
Atom  10C    basis set group =>   1
Atom  11C    basis set group =>   1
Atom  12S    basis set group =>   2
Atom  13C    basis set group =>   1
Atom  14C    basis set group =>   1
Atom  15S    basis set group =>   2
Atom  16C    basis set group =>   1
Atom  17C    basis set group =>   1
Atom  18C    basis set group =>   1
Atom  19C    basis set group =>   1
Atom  20C    basis set group =>   1
Atom  21C    basis set group =>   1
Atom  22C    basis set group =>   1
Atom  23C    basis set group =>   1
Atom  24C    basis set group =>   1
Atom  25C    basis set group =>   1
Atom  26C    basis set group =>   1
Atom  27C    basis set group =>   1
Atom  28C    basis set group =>   1
Atom  29C    basis set group =>   1
Atom  30C    basis set group =>   1
Atom  31C    basis set group =>   1
Atom  32C    basis set group =>   1
Atom  33C    basis set group =>   1
Atom  34C    basis set group =>   1
Atom  35C    basis set group =>   1
Atom  36C    basis set group =>   1
Atom  37C    basis set group =>   1
Atom  38C    basis set group =>   1
Atom  39C    basis set group =>   1
Atom  40C    basis set group =>   1
Atom  41C    basis set group =>   1
Atom  42C    basis set group =>   1
Atom  43C    basis set group =>   1
Atom  44C    basis set group =>   1
Atom  45C    basis set group =>   1
Atom  46O    basis set group =>   3
Atom  47O    basis set group =>   3
Atom  48C    basis set group =>   1
Atom  49C    basis set group =>   1
Atom  50C    basis set group =>   1
Atom  51C    basis set group =>   1
Atom  52C    basis set group =>   1
Atom  53C    basis set group =>   1
Atom  54N    basis set group =>   4
Atom  55N    basis set group =>   4
Atom  56N    basis set group =>   4
Atom  57N    basis set group =>   4
Atom  58H    basis set group =>   5
Atom  59H    basis set group =>   5
Atom  60H    basis set group =>   5
Atom  61H    basis set group =>   5
Atom  62H    basis set group =>   5
Atom  63H    basis set group =>   5
Atom  64H    basis set group =>   5
Atom  65H    basis set group =>   5
Atom  66H    basis set group =>   5
Atom  67H    basis set group =>   5
Atom  68H    basis set group =>   5
Atom  69H    basis set group =>   5
Atom  70H    basis set group =>   5
Atom  71H    basis set group =>   5
Atom  72H    basis set group =>   5
Atom  73H    basis set group =>   5
Atom  74H    basis set group =>   5
Atom  75H    basis set group =>   5
Atom  76H    basis set group =>   5
Atom  77H    basis set group =>   5
Atom  78H    basis set group =>   5
Atom  79H    basis set group =>   5
Atom  80H    basis set group =>   5
Atom  81H    basis set group =>   5
Atom  82H    basis set group =>   5
Atom  83H    basis set group =>   5
Atom  84H    basis set group =>   5
Atom  85H    basis set group =>   5
Atom  86H    basis set group =>   5
Atom  87H    basis set group =>   5
Atom  88H    basis set group =>   5
Atom  89H    basis set group =>   5
Atom  90H    basis set group =>   5
Atom  91H    basis set group =>   5
---------------------------------
AUXILIARY/J BASIS SET INFORMATION
---------------------------------
There are 5 groups of distinct atoms

 Group   1 Type C   : 12s5p4d2f1g contracted to 6s4p3d1f1g pattern {711111/2111/211/2/1}
 Group   2 Type S   : 14s5p5d2f1g contracted to 8s4p3d1f1g pattern {71111111/2111/311/2/1}
 Group   3 Type O   : 12s5p4d2f1g contracted to 6s4p3d1f1g pattern {711111/2111/211/2/1}
 Group   4 Type N   : 12s5p4d2f1g contracted to 6s4p3d1f1g pattern {711111/2111/211/2/1}
 Group   5 Type H   : 5s2p1d contracted to 3s1p1d pattern {311/2/1}

Atom   0C    basis set group =>   1
Atom   1C    basis set group =>   1
Atom   2C    basis set group =>   1
Atom   3C    basis set group =>   1
Atom   4C    basis set group =>   1
Atom   5C    basis set group =>   1
Atom   6C    basis set group =>   1
Atom   7C    basis set group =>   1
Atom   8C    basis set group =>   1
Atom   9C    basis set group =>   1
Atom  10C    basis set group =>   1
Atom  11C    basis set group =>   1
Atom  12S    basis set group =>   2
Atom  13C    basis set group =>   1
Atom  14C    basis set group =>   1
Atom  15S    basis set group =>   2
Atom  16C    basis set group =>   1
[...]
      pz      :     0.013965  p :     0.083423
      px      :     0.043195
      py      :     0.026264
 61 H s       :     0.878688  s :     0.878688
      pz      :     0.013790  p :     0.086947
      px      :     0.046052
      py      :     0.027106
 62 H s       :     0.909989  s :     0.909989
      pz      :     0.012187  p :     0.064711
      px      :     0.035020
      py      :     0.017504
 63 H s       :     0.912443  s :     0.912443
      pz      :     0.012831  p :     0.065781
      px      :     0.023937
      py      :     0.029013
 64 H s       :     0.909011  s :     0.909011
      pz      :     0.012133  p :     0.064867
      px      :     0.039818
      py      :     0.012917
 65 H s       :     0.909436  s :     0.909436
      pz      :     0.029424  p :     0.064811
      px      :     0.013031
      py      :     0.022356
 66 H s       :     0.911117  s :     0.911117
      pz      :     0.027406  p :     0.064973
      px      :     0.013139
      py      :     0.024428
 67 H s       :     0.905423  s :     0.905423
      pz      :     0.031820  p :     0.064136
      px      :     0.014973
      py      :     0.017343
 68 H s       :     0.911963  s :     0.911963
      pz      :     0.012624  p :     0.065146
      px      :     0.039670
      py      :     0.012853
 69 H s       :     0.908839  s :     0.908839
      pz      :     0.012794  p :     0.065410
      px      :     0.025782
      py      :     0.026834
 70 H s       :     0.907697  s :     0.907697
      pz      :     0.028370  p :     0.064116
      px      :     0.012605
      py      :     0.023141
 71 H s       :     0.911678  s :     0.911678
      pz      :     0.012562  p :     0.064655
      px      :     0.034376
      py      :     0.017717
 72 H s       :     0.908658  s :     0.908658
      pz      :     0.012681  p :     0.065671
      px      :     0.040085
      py      :     0.012905
 73 H s       :     0.907571  s :     0.907571
      pz      :     0.026325  p :     0.065050
      px      :     0.013429
      py      :     0.025296
 74 H s       :     0.913954  s :     0.913954
      pz      :     0.013296  p :     0.065808
      px      :     0.024598
      py      :     0.027913
 75 H s       :     0.908173  s :     0.908173
      pz      :     0.032246  p :     0.064901
      px      :     0.014629
      py      :     0.018026
 76 H s       :     0.911882  s :     0.911882
      pz      :     0.024236  p :     0.064908
      px      :     0.013463
      py      :     0.027210
 77 H s       :     0.905339  s :     0.905339
      pz      :     0.034065  p :     0.064090
      px      :     0.014732
      py      :     0.015293
 78 H s       :     0.912543  s :     0.912543
      pz      :     0.012549  p :     0.065162
      px      :     0.039805
      py      :     0.012807
 79 H s       :     0.905030  s :     0.905030
      pz      :     0.026672  p :     0.064215
      px      :     0.012469
      py      :     0.025074
 80 H s       :     0.905681  s :     0.905681
      pz      :     0.014392  p :     0.065916
      px      :     0.025403
      py      :     0.026121
 81 H s       :     0.912261  s :     0.912261
      pz      :     0.030753  p :     0.064824
      px      :     0.015859
      py      :     0.018212
 82 H s       :     0.882984  s :     0.882984
      pz      :     0.014155  p :     0.077353
      px      :     0.012898
      py      :     0.050299
 83 H s       :     0.883857  s :     0.883857
      pz      :     0.013369  p :     0.076536
      px      :     0.013216
      py      :     0.049950
 84 H s       :     0.893434  s :     0.893434
      pz      :     0.014275  p :     0.068480
      px      :     0.013577
      py      :     0.040628
 85 H s       :     0.898328  s :     0.898328
      pz      :     0.013639  p :     0.067090
      px      :     0.028287
      py      :     0.025165
 86 H s       :     0.897578  s :     0.897578
      pz      :     0.013614  p :     0.066801
      px      :     0.039904
      py      :     0.013284
 87 H s       :     0.886973  s :     0.886973
      pz      :     0.015198  p :     0.073939
      px      :     0.013527
      py      :     0.045213
 88 H s       :     0.893056  s :     0.893056
      pz      :     0.013833  p :     0.068464
      px      :     0.012799
      py      :     0.041832
 89 H s       :     0.898423  s :     0.898423
      pz      :     0.013390  p :     0.067089
      px      :     0.029634
      py      :     0.024064
 90 H s       :     0.897780  s :     0.897780
      pz      :     0.013887  p :     0.066808
      px      :     0.038843
      py      :     0.014078
 91 H s       :     0.886761  s :     0.886761
      pz      :     0.014652  p :     0.073857
      px      :     0.012855
      py      :     0.046350


                      *****************************
                      * MAYER POPULATION ANALYSIS *
                      *****************************

  NA   - Mulliken gross atomic population
  ZA   - Total nuclear charge
  QA   - Mulliken gross atomic charge
  VA   - Mayer's total valence
  BVA  - Mayer's bonded valence
  FA   - Mayer's free valence

  ATOM       NA         ZA         QA         VA         BVA        FA
  0 C      5.9396     6.0000     0.0604     3.8803     3.8803    -0.0000
  1 C      5.9751     6.0000     0.0249     3.8459     3.8459     0.0000
  2 C      6.1094     6.0000    -0.1094     3.7497     3.7497    -0.0000
  3 C      5.9296     6.0000     0.0704     3.8719     3.8719     0.0000
  4 C      5.9838     6.0000     0.0162     3.8199     3.8199     0.0000
  5 C      6.1044     6.0000    -0.1044     3.7461     3.7461     0.0000
  6 C      6.0402     6.0000    -0.0402     3.7888     3.7888     0.0000
  7 C      5.9685     6.0000     0.0315     3.8683     3.8683     0.0000
  8 C      6.1203     6.0000    -0.1203     3.8586     3.8586     0.0000
  9 C      6.0477     6.0000    -0.0477     3.8011     3.8011     0.0000
 10 C      5.9602     6.0000     0.0398     3.8736     3.8736     0.0000
 11 C      6.1079     6.0000    -0.1079     3.8528     3.8528    -0.0000
 12 S     15.8451    16.0000     0.1549     2.4644     2.4644     0.0000
 13 C      6.1122     6.0000    -0.1122     3.8886     3.8886    -0.0000
 14 C      6.0206     6.0000    -0.0206     3.7676     3.7676    -0.0000
 15 S     15.8418    16.0000     0.1582     2.4596     2.4596    -0.0000
 16 C      6.1100     6.0000    -0.1100     3.8928     3.8928    -0.0000
 17 C      6.0359     6.0000    -0.0359     3.7651     3.7651     0.0000
 18 C      5.9613     6.0000     0.0387     4.0533     4.0533    -0.0000
 19 C      5.9278     6.0000     0.0722     4.0449     4.0449     0.0000
 20 C      5.9835     6.0000     0.0165     4.0084     4.0084    -0.0000
 21 C      5.9748     6.0000     0.0252     4.0026     4.0026     0.0000
 22 C      5.9491     6.0000     0.0509     4.0410     4.0410    -0.0000
 23 C      5.9498     6.0000     0.0502     4.0493     4.0493    -0.0000
 24 C      5.9740     6.0000     0.0260     4.0129     4.0129     0.0000
 25 C      5.9873     6.0000     0.0127     4.0116     4.0116     0.0000
 26 C      5.9537     6.0000     0.0463     3.7860     3.7860     0.0000
 27 C      5.9645     6.0000     0.0355     3.7892     3.7892     0.0000
 28 C      6.0771     6.0000    -0.0771     3.6994     3.6994     0.0000
 29 C      6.0811     6.0000    -0.0811     3.7025     3.7025     0.0000
 30 C      5.8452     6.0000     0.1548     4.0338     4.0338     0.0000
 31 C      6.0082     6.0000    -0.0082     3.7630     3.7630     0.0000
 32 C      5.9674     6.0000     0.0326     3.7719     3.7719    -0.0000
 33 C      5.7340     6.0000     0.2660     3.8401     3.8401     0.0000
 34 C      5.8453     6.0000     0.1547     4.0420     4.0420     0.0000
 35 C      6.0109     6.0000    -0.0109     3.7607     3.7607     0.0000
 36 C      5.9669     6.0000     0.0331     3.7765     3.7765     0.0000
 37 C      5.7371     6.0000     0.2629     3.8420     3.8420     0.0000
 38 C      6.0237     6.0000    -0.0237     3.7926     3.7926     0.0000
 39 C      5.9566     6.0000     0.0434     3.7830     3.7830    -0.0000
 40 C      5.9634     6.0000     0.0366     3.8202     3.8202     0.0000
 41 C      6.0215     6.0000    -0.0215     3.7900     3.7900    -0.0000
 42 C      6.0250     6.0000    -0.0250     3.7921     3.7921    -0.0000
 43 C      5.9556     6.0000     0.0444     3.7839     3.7839    -0.0000
 44 C      5.9630     6.0000     0.0370     3.8201     3.8201     0.0000
 45 C      6.0242     6.0000    -0.0242     3.7921     3.7921     0.0000
 46 O      8.1837     8.0000    -0.1837     2.3457     2.3457    -0.0000
 47 O      8.1809     8.0000    -0.1809     2.3496     2.3496     0.0000
 48 C      6.3193     6.0000    -0.3193     4.0126     4.0126    -0.0000
 49 C      6.3228     6.0000    -0.3228     4.0143     4.0143     0.0000
 50 C      6.1372     6.0000    -0.1372     4.1549     4.1549    -0.0000
 51 C      6.1358     6.0000    -0.1358     4.1705     4.1705    -0.0000
 52 C      6.1437     6.0000    -0.1437     4.1632     4.1632    -0.0000
 53 C      6.1354     6.0000    -0.1354     4.1682     4.1682     0.0000
 54 N      6.9138     7.0000     0.0862     3.1175     3.1175    -0.0000
 55 N      6.9039     7.0000     0.0961     3.1164     3.1164     0.0000
 56 N      6.9032     7.0000     0.0968     3.1185     3.1185    -0.0000
 57 N      6.9102     7.0000     0.0898     3.1223     3.1223    -0.0000
 58 H      1.0217     1.0000    -0.0217     0.9958     0.9958    -0.0000
 59 H      1.0236     1.0000    -0.0236     0.9959     0.9959    -0.0000
 60 H      0.9845     1.0000     0.0155     1.0641     1.0641     0.0000
 61 H      0.9741     1.0000     0.0259     1.0728     1.0728    -0.0000
 62 H      0.9935     1.0000     0.0065     0.9854     0.9854     0.0000
 63 H      0.9865     1.0000     0.0135     0.9870     0.9870     0.0000
 64 H      0.9894     1.0000     0.0106     0.9842     0.9842     0.0000
 65 H      0.9967     1.0000     0.0033     0.9825     0.9825     0.0000
 66 H      0.9812     1.0000     0.0188     0.9943     0.9943     0.0000
 67 H      0.9847     1.0000     0.0153     0.9855     0.9855     0.0000
 68 H      0.9820     1.0000     0.0180     0.9999     0.9999     0.0000
 69 H      0.9751     1.0000     0.0249     0.9944     0.9944     0.0000
 70 H      0.9831     1.0000     0.0169     0.9850     0.9850     0.0000
 71 H      0.9868     1.0000     0.0132     0.9947     0.9947    -0.0000
 72 H      0.9833     1.0000     0.0167     0.9883     0.9883     0.0000
 73 H      0.9933     1.0000     0.0067     0.9815     0.9815    -0.0000
 74 H      0.9925     1.0000     0.0075     0.9890     0.9890    -0.0000
 75 H      0.9944     1.0000     0.0056     0.9809     0.9809    -0.0000
 76 H      0.9838     1.0000     0.0162     0.9940     0.9940     0.0000
 77 H      0.9860     1.0000     0.0140     0.9855     0.9855    -0.0000
 78 H      0.9855     1.0000     0.0145     1.0001     1.0001    -0.0000
 79 H      0.9794     1.0000     0.0206     0.9841     0.9841    -0.0000
 80 H      0.9725     1.0000     0.0275     1.0057     1.0057    -0.0000
 81 H      0.9884     1.0000     0.0116     0.9960     0.9960    -0.0000
 82 H      1.0037     1.0000    -0.0037     1.0368     1.0368    -0.0000
 83 H      0.9960     1.0000     0.0040     1.0318     1.0318     0.0000
 84 H      1.0070     1.0000    -0.0070     0.9956     0.9956     0.0000
 85 H      0.9976     1.0000     0.0024     0.9797     0.9797     0.0000
 86 H      1.0001     1.0000    -0.0001     0.9803     0.9803    -0.0000
 87 H      0.9984     1.0000     0.0016     1.0270     1.0270    -0.0000
 88 H      1.0049     1.0000    -0.0049     0.9953     0.9953    -0.0000
 89 H      0.9980     1.0000     0.0020     0.9799     0.9799    -0.0000
 90 H      1.0014     1.0000    -0.0014     0.9804     0.9804    -0.0000
 91 H      0.9964     1.0000     0.0036     1.0267     1.0267    -0.0000

  Mayer bond orders larger than 0.100000
B(  0-C ,  1-C ) :   1.3496 B(  0-C ,  5-C ) :   1.2641 B(  0-C ,  9-C ) :   1.0841 
B(  1-C ,  2-C ) :   1.4111 B(  1-C , 11-C ) :   0.9217 B(  2-C ,  3-C ) :   1.2673 
B(  2-C , 58-H ) :   0.9922 B(  3-C ,  4-C ) :   1.3444 B(  3-C ,  6-C ) :   1.0811 
B(  4-C ,  5-C ) :   1.4141 B(  4-C ,  8-C ) :   0.9088 B(  5-C , 59-H ) :   0.9942 
B(  6-C ,  7-C ) :   1.4242 B(  6-C , 12-S ) :   1.1334 B(  7-C ,  8-C ) :   0.9412 
B(  7-C , 14-C ) :   1.3054 B(  8-C , 18-C ) :   1.0290 B(  8-C , 19-C ) :   1.0055 
B(  9-C , 10-C ) :   1.4334 B(  9-C , 15-S ) :   1.1313 B( 10-C , 11-C ) :   0.9406 
B( 10-C , 17-C ) :   1.3074 B( 11-C , 22-C ) :   0.9947 B( 11-C , 23-C ) :   1.0137 
B( 12-S , 13-C ) :   1.0799 B( 13-C , 14-C ) :   1.3567 B( 13-C , 27-C ) :   1.2527 
B( 14-C , 60-H ) :   0.9820 B( 15-S , 16-C ) :   1.0772 B( 16-C , 17-C ) :   1.3551 
B( 16-C , 26-C ) :   1.2605 B( 17-C , 61-H ) :   0.9710 B( 18-C , 21-C ) :   1.1110 
B( 18-C , 62-H ) :   0.9343 B( 18-C , 63-H ) :   0.9322 B( 19-C , 20-C ) :   1.1162 
B( 19-C , 64-H ) :   0.9342 B( 19-C , 65-H ) :   0.9366 B( 20-C , 66-H ) :   0.9607 
B( 20-C , 67-H ) :   0.9565 B( 20-C , 68-H ) :   0.9599 B( 21-C , 69-H ) :   0.9610 
B( 21-C , 70-H ) :   0.9618 B( 21-C , 71-H ) :   0.9631 B( 22-C , 24-C ) :   1.1204 
B( 22-C , 72-H ) :   0.9356 B( 22-C , 73-H ) :   0.9347 B( 23-C , 25-C ) :   1.1168 
B( 23-C , 74-H ) :   0.9315 B( 23-C , 75-H ) :   0.9348 B( 24-C , 76-H ) :   0.9583 
B( 24-C , 77-H ) :   0.9556 B( 24-C , 78-H ) :   0.9589 B( 25-C , 79-H ) :   0.9581 
B( 25-C , 80-H ) :   0.9589 B( 25-C , 81-H ) :   0.9607 B( 26-C , 29-C ) :   1.5244 
B( 26-C , 82-H ) :   0.8989 B( 27-C , 28-C ) :   1.5270 B( 27-C , 83-H ) :   0.9039 
B( 28-C , 34-C ) :   0.9522 B( 28-C , 37-C ) :   1.1047 B( 29-C , 30-C ) :   0.9521 
B( 29-C , 33-C ) :   1.1064 B( 30-C , 31-C ) :   0.9681 B( 30-C , 46-O ) :   2.0934 
B( 31-C , 32-C ) :   1.3201 B( 31-C , 38-C ) :   1.3789 B( 32-C , 33-C ) :   0.9934 
B( 32-C , 41-C ) :   1.3604 B( 33-C , 49-C ) :   1.5652 B( 34-C , 35-C ) :   0.9651 
B( 34-C , 47-O ) :   2.1071 B( 35-C , 36-C ) :   1.3209 B( 35-C , 42-C ) :   1.3775 
B( 36-C , 37-C ) :   0.9946 B( 36-C , 45-C ) :   1.3616 B( 37-C , 48-C ) :   1.5683 
B( 38-C , 39-C ) :   1.3342 B( 38-C , 84-H ) :   0.9964 B( 39-C , 40-C ) :   1.3629 
B( 39-C , 85-H ) :   0.9844 B( 40-C , 41-C ) :   1.3679 B( 40-C , 86-H ) :   0.9816 
B( 41-C , 87-H ) :   0.9780 B( 42-C , 43-C ) :   1.3343 B( 42-C , 88-H ) :   0.9971 
B( 43-C , 44-C ) :   1.3627 B( 43-C , 89-H ) :   0.9851 B( 44-C , 45-C ) :   1.3675 
B( 44-C , 90-H ) :   0.9814 B( 45-C , 91-H ) :   0.9783 B( 46-O , 61-H ) :   0.1011 
B( 48-C , 52-C ) :   1.1428 B( 48-C , 53-C ) :   1.1469 B( 49-C , 50-C ) :   1.1434 
B( 49-C , 51-C ) :   1.1491 B( 50-C , 54-N ) :   2.9081 B( 51-C , 55-N ) :   2.9260 
B( 52-C , 57-N ) :   2.9183 B( 53-C , 56-N ) :   2.9282 

-------
TIMINGS
-------

Total SCF time: 0 days 0 hours 19 min 37 sec 

Total time                  ....    1177.037 sec
Sum of individual times     ....    1174.932 sec  ( 99.8%)

Fock matrix formation       ....    1133.753 sec  ( 96.3%)
  Split-RI-J                ....     123.114 sec  ( 10.9% of F)
  Chain of spheres X        ....     980.921 sec  ( 86.5% of F)
  COS-X 1 center corr.      ....       0.000 sec  (  0.0% of F)
  XC integration            ....      29.180 sec  (  2.6% of F)
    Basis function eval.    ....      10.324 sec  ( 35.4% of XC)
    Density eval.           ....       8.411 sec  ( 28.8% of XC)
    XC-Functional eval.     ....       1.350 sec  (  4.6% of XC)
    XC-Potential eval.      ....       8.076 sec  ( 27.7% of XC)
Diagonalization             ....       0.352 sec  (  0.0%)
Density matrix formation    ....       0.817 sec  (  0.1%)
Population analysis         ....       0.203 sec  (  0.0%)
Initial guess               ....       0.504 sec  (  0.0%)
Orbital Transformation      ....       0.000 sec  (  0.0%)
Orbital Orthonormalization  ....       0.409 sec  (  0.0%)
DIIS solution               ....       0.098 sec  (  0.0%)
SOSCF solution              ....       1.813 sec  (  0.2%)
Grid generation             ....      37.391 sec  (  3.2%)


-------------------------------------------------------------------------------
                          DFT DISPERSION CORRECTION                            
                                                                               
                              DFTD3 V3.1  Rev 1                                
                          USING Becke-Johnson damping                          
-------------------------------------------------------------------------------
Gaussians B3LYP functional is recognized, using regular B3LYP params
Active option DFTDOPT                   ...         4   

molecular C6(AA) [au] = 122700.138987 


            DFT-D V3
 parameters
 s6 scaling factor         :     1.0000 
 a1 scaling factor         :     0.3981 
 s8 scaling factor         :     1.9889 
 a2 scaling factor         :     4.4211 
 ad hoc parameters k1-k3   :    16.0000     1.3333    -4.0000 

 Edisp/kcal,au: -160.677470835180  -0.256055821206 
 E6   /kcal   : -74.166191246 
 E8   /kcal   : -86.511279589 
 % E8         :  53.841574142 

-------------------------   ----------------
Dispersion correction           -0.256055821
-------------------------   ----------------


-------------------------   --------------------
FINAL SINGLE POINT ENERGY     -3089.930974587684
-------------------------   --------------------

                                *** OPTIMIZATION RUN DONE ***

                            ***************************************
                            *     ORCA property calculations      *
                            ***************************************

                                    ---------------------
                                    Active property flags
                                    ---------------------
   (+) Dipole Moment


------------------------------------------------------------------------------
                       ORCA ELECTRIC PROPERTIES CALCULATION
------------------------------------------------------------------------------

Dipole Moment Calculation                       ... on
Quadrupole Moment Calculation                   ... off
Polarizability Calculation                      ... off
GBWName                                         ... IDIC.gbw
Electron density file                           ... IDIC.scfp
The origin for moment calculation is the CENTER OF MASS  = ( 3.240455,  0.703511  0.135271)

-------------
DIPOLE MOMENT
-------------
                                X             Y             Z
Electronic contribution:     -2.34159       2.15611       9.65261
Nuclear contribution   :      2.25678      -2.16732     -11.09935
                        -----------------------------------------
Total Dipole Moment    :     -0.08481      -0.01121      -1.44673
                        -----------------------------------------
Magnitude (a.u.)       :      1.44926
Magnitude (Debye)      :      3.68373



--------------------
Rotational spectrum 
--------------------
 
Rotational constants in cm-1:     0.003992     0.000404     0.000378 
Rotational constants in MHz :   119.676598    12.121100    11.343178 

 Dipole components along the rotational axes: 
x,y,z [a.u.] :    -0.067821     0.041134    -1.447087 
x,y,z [Debye]:    -0.172388     0.104553    -3.678204 

 

Timings for individual modules:

Sum of individual times         ...    35065.609 sec (= 584.427 min)
GTO integral calculation        ...       31.710 sec (=   0.529 min)   0.1 %
SCF iterations                  ...    28402.506 sec (= 473.375 min)  81.0 %
SCF Gradient evaluation         ...     6607.194 sec (= 110.120 min)  18.8 %
Geometry relaxation             ...       24.199 sec (=   0.403 min)   0.1 %
                             ****ORCA TERMINATED NORMALLY****
TOTAL RUN TIME: 0 days 9 hours 44 minutes 48 seconds 238 msec
