
                                 *****************
                                 * O   R   C   A *
                                 *****************

           --- An Ab Initio, DFT and Semiempirical electronic structure package ---

                  #######################################################
                  #                        -***-                        #
                  #          Department of theory and spectroscopy      #
                  #               Directorship: Frank Neese             #
                  #        Max Planck Institute fuer Kohlenforschung    #
                  #                Kaiser Wilhelm Platz 1               #
                  #                 D-45470 Muelheim/Ruhr               #
                  #                      Germany                        #
                  #                                                     #
                  #                  All rights reserved                #
                  #                        -***-                        #
                  #######################################################


                         Program Version 4.2.0 -  RELEASE  -


 With contributions from (in alphabetic order):
   Daniel Aravena         : Magnetic Suceptibility
   Michael Atanasov       : Ab Initio Ligand Field Theory (pilot matlab implementation)
   Alexander A. Auer      : GIAO ZORA, VPT2
   Ute Becker             : Parallelization
   Giovanni Bistoni       : ED, misc. LED, open-shell LED, HFLED
   Martin Brehm           : Molecular dynamics
   Dmytro Bykov           : SCF Hessian
   Vijay G. Chilkuri      : MRCI spin determinant printing, contributions to CSF-ICE
   Dipayan Datta          : RHF DLPNO-CCSD density
   Achintya Kumar Dutta   : EOM-CC, STEOM-CC
   Dmitry Ganyushin       : Spin-Orbit,Spin-Spin,Magnetic field MRCI
   Miquel Garcia          : C-PCM Hessian, Gaussian charge scheme
   Yang Guo               : DLPNO-NEVPT2, CIM, IAO-localization
   Andreas Hansen         : Spin unrestricted coupled pair/coupled cluster methods
   Benjamin Helmich-Paris : CASSCF linear response (MC-RPA)
   Lee Huntington         : MR-EOM, pCC
   Robert Izsak           : Overlap fitted RIJCOSX, COSX-SCS-MP3, EOM
   Christian Kollmar      : KDIIS, OOCD, Brueckner-CCSD(T), CCSD density
   Simone Kossmann        : Meta GGA functionals, TD-DFT gradient, OOMP2, MP2 Hessian
   Martin Krupicka        : AUTO-CI
   Lucas Lang             : DCDCAS
   Dagmar Lenk            : GEPOL surface, SMD
   Dimitrios Liakos       : Extrapolation schemes; Compound Job, initial MDCI parallelization
   Dimitrios Manganas     : Further ROCIS development; embedding schemes
   Dimitrios Pantazis     : SARC Basis sets
   Taras Petrenko         : DFT Hessian,TD-DFT gradient, ASA, ECA, R-Raman, ABS, FL, XAS/XES, NRVS
   Peter Pinski           : DLPNO-MP2, DLPNO-MP2 Gradient
   Christoph Reimann      : Effective Core Potentials
   Marius Retegan         : Local ZFS, SOC
   Christoph Riplinger    : Optimizer, TS searches, QM/MM, DLPNO-CCSD(T), (RO)-DLPNO pert. Triples
   Tobias Risthaus        : Range-separated hybrids, TD-DFT gradient, RPA, STAB
   Michael Roemelt        : Original ROCIS implementation
   Masaaki Saitow         : Open-shell DLPNO-CCSD energy and density
   Barbara Sandhoefer     : DKH picture change effects
   Avijit Sen             : IP-ROCIS
   Kantharuban Sivalingam : CASSCF convergence, NEVPT2, FIC-MRCI
   Bernardo de Souza      : ESD, SOC TD-DFT
   Georgi Stoychev        : AutoAux, RI-MP2 NMR
   Willem Van den Heuvel  : Paramagnetic NMR
   Boris Wezisla          : Elementary symmetry handling
   Frank Wennmohs         : Technical directorship


 We gratefully acknowledge several colleagues who have allowed us to
 interface, adapt or use parts of their codes:
   Stefan Grimme, W. Hujo, H. Kruse,             : VdW corrections, initial TS optimization,
                  C. Bannwarth                     DFT functionals, gCP, sTDA/sTD-DF
   Ed Valeev, F. Pavosevic, A. Kumar             : LibInt (2-el integral package), F12 methods
   Garnet Chan, S. Sharma, J. Yang, R. Olivares  : DMRG
   Ulf Ekstrom                                   : XCFun DFT Library
   Mihaly Kallay                                 : mrcc  (arbitrary order and MRCC methods)
   Andreas Klamt, Michael Diedenhofen            : otool_cosmo (COSMO solvation model)
   Jiri Pittner, Ondrej Demel                    : Mk-CCSD
   Frank Weinhold                                : gennbo (NPA and NBO analysis)
   Christopher J. Cramer and Donald G. Truhlar   : smd solvation model
   Lars Goerigk                                  : TD-DFT with DH, B97 family of functionals
   V. Asgeirsson, H. Jonsson                     : NEB implementation
   FAccTs GmbH                                   : IRC, NEB, NEB-TS, Multilevel, MM, QM/MM, CI optimization
   S Lehtola, MJT Oliveira, MAL Marques          : LibXC Library


 Your calculation uses the libint2 library for the computation of 2-el integrals
 For citations please refer to: http://libint.valeyev.net

 Your ORCA version has been built with support for libXC version: 4.2.3
 For citations please refer to: https://tddft.org/programs/libxc/

 This ORCA versions uses:
   CBLAS   interface :  Fast vector & matrix operations
   LAPACKE interface :  Fast linear algebra routines
   SCALAPACK package :  Parallel linear algebra routines


Your calculation utilizes the atom-pairwise dispersion correction
with the Becke-Johnson damping scheme (D3BJ)
Cite in your paper:
S.Grimme, S.Ehrlich, L.Goerigk, J Comput Chem, (2011), 32, 1456–1465 
S.Grimme, J.Antony, S.Ehrlich and H.Krieg, J.Chem.Phys., 132, (2010), 154104 
   

----- Orbital basis set information -----
Your calculation utilizes the basis: def2-SVP
   F. Weigend and R. Ahlrichs, Phys. Chem. Chem. Phys. 7, 3297 (2005).

----- AuxJ basis set information -----
Your calculation utilizes the auxiliary basis: def2/J
   F. Weigend, Phys. Chem. Chem. Phys. 8, 1057 (2006).

================================================================================
                                        WARNINGS
                       Please study these warnings very carefully!
================================================================================


WARNING: Geometry Optimization
  ===> : Switching off AutoStart
         For restart on a previous wavefunction, please use MOREAD

INFO   : the flag for use of LIBINT has been found!

================================================================================
                                       INPUT FILE
================================================================================
NAME = IDTCF.inp
|  1> # ORCA input file
|  2> # SCF done       -155.150310582096          0.000661512639
|  3> ! B3LYP/G D3BJ Opt RIJCOSX def2-SVP def2/J
|  4> * xyz 0 1
|  5>    C        2.71923         1.14877        -0.08754
|  6>    C        2.83688        -0.25690        -0.20035
|  7>    C        1.70485        -1.03952        -0.19162
|  8>    C        0.47277        -0.39111        -0.13449
|  9>    C        0.35719         1.01954        -0.07735
| 10>    C        1.48848         1.79859        -0.02208
| 11>    C       -0.85233        -0.91999        -0.07908
| 12>    C       -1.78665         0.10687         0.01016
| 13>    C       -1.09804         1.44606        -0.03681
| 14>    C        4.04276         1.67603        -0.03931
| 15>    C        4.98741         0.65686        -0.11920
| 16>    C        4.29767        -0.68000        -0.25107
| 17>    S       -1.57474        -2.46992        -0.07184
| 18>    C       -3.16751        -1.74028         0.04754
| 19>    C       -3.09228        -0.35039         0.07676
| 20>    S        4.74171         3.23096         0.06699
| 21>    C        6.34518         2.52323        -0.01367
| 22>    C        6.28915         1.13603        -0.11892
| 23>    C       -1.41522         2.30570         1.19612
| 24>    C       -1.53504         2.14093        -1.34845
| 25>    C       -0.81825         3.44253        -1.68000
| 26>    C       -1.11921         1.58162         2.50456
| 27>    C        4.68473        -1.27455        -1.62265
| 28>    C        4.58583        -1.61459         0.93990
| 29>    C        4.02301        -2.59789        -1.98245
| 30>    C        6.02741        -2.09110         1.05688
| 31>    C        7.45338         3.39482         0.02678
| 32>    C       -4.29443        -2.58748         0.09642
| 33>    C        8.76270         3.01923        -0.01009
| 34>    C        9.85236         3.91385         0.02444
| 35>    C       11.28537         3.42528         0.00727
| 36>    O       12.07344         4.62101         0.05169
| 37>    C       11.27334         5.69659         0.09145
| 38>    C        9.88866         5.29105         0.07600
| 39>    C       11.62554         2.67681        -1.28407
| 40>    C       11.62017         2.58592         1.24308
| 41>    C        8.80711         6.18142         0.10460
| 42>    C       11.78891         6.96475         0.13815
| 43>    C       10.99236         8.12291         0.18081
| 44>    C       13.18323         7.17152         0.14549
| 45>    N       10.39537         9.10194         0.21674
| 46>    N       14.31703         7.34436         0.15227
| 47>    N        7.89854         6.88269         0.12330
| 48>    C       -5.58700        -2.16234         0.17381
| 49>    C       -6.71573        -3.00547         0.22155
| 50>    C       -8.12098        -2.44549         0.28963
| 51>    O       -8.96670        -3.60126         0.32471
| 52>    C       -8.22226        -4.71610         0.28347
| 53>    C       -6.82047        -4.37993         0.21883
| 54>    C       -5.78270        -5.31978         0.16684
| 55>    C       -8.80090        -5.95743         0.30486
| 56>    C       -8.06425        -7.15459         0.26369
| 57>    C      -10.20245        -6.09273         0.37126
| 58>    C       -8.47556        -1.63075        -0.95720
| 59>    C       -8.35981        -1.63888         1.56865
| 60>    N      -11.34248        -6.20614         0.42579
| 61>    N       -7.51660        -8.16225         0.23188
| 62>    N       -4.90615        -6.05978         0.12327
| 63>    H        1.74185        -2.11723        -0.21130
| 64>    H        1.45137         2.87104         0.08662
| 65>    H       -3.95883         0.28077         0.15078
| 66>    H        7.17228         0.52974        -0.20243
| 67>    H       -2.47018         2.58589         1.16461
| 68>    H       -0.82179         3.21913         1.15426
| 69>    H       -2.60829         2.33153        -1.27609
| 70>    H       -1.37928         1.43608        -2.16941
| 71>    H       -0.93375         4.17456        -0.88553
| 72>    H       -1.24387         3.86310        -2.58833
| 73>    H        0.24023         3.27065        -1.85341
| 74>    H       -1.72479         0.68280         2.59711
| 75>    H       -1.33931         2.23109         3.34821
| 76>    H       -0.07105         1.29501         2.55553
| 77>    H        5.76890        -1.39760        -1.63950
| 78>    H        4.43012        -0.53422        -2.38594
| 79>    H        3.92652        -2.47995         0.86435
| 80>    H        4.31396        -1.07762         1.85262
| 81>    H        4.21715        -3.35831        -1.23119
| 82>    H        4.42261        -2.95155        -2.93041
| 83>    H        2.94948        -2.47876        -2.09618
| 84>    H        6.33130        -2.65618         0.18001
| 85>    H        6.12248        -2.73978         1.92485
| 86>    H        6.70499        -1.25235         1.18925
| 87>    H        7.21563         4.44692         0.09331
| 88>    H       -4.09057        -3.64821         0.06554
| 89>    H        9.00971         1.96848        -0.06800
| 90>    H       11.38004         3.29052        -2.14839
| 91>    H       11.06964         1.74579        -1.34140
| 92>    H       12.69029         2.46055        -1.30181
| 93>    H       11.37624         3.13858         2.14811
| 94>    H       12.68374         2.36337         1.24717
| 95>    H       11.05893         1.65634         1.23409
| 96>    H       -5.78857        -1.10072         0.19991
| 97>    H       -8.30707        -2.22499        -1.85300
| 98>    H       -7.86776        -0.73237        -1.00937
| 99>    H       -9.52511        -1.35231        -0.91642
|100>    H       -8.09987        -2.23454         2.44132
|101>    H       -9.41090        -1.37033         1.63086
|102>    H       -7.75851        -0.73466         1.56540
|103> *
|104> 
|105>                          ****END OF INPUT****
================================================================================

                       *****************************
                       * Geometry Optimization Run *
                       *****************************

Geometry optimization settings:
Update method            Update   .... BFGS
Choice of coordinates    CoordSys .... Z-matrix Internals
Initial Hessian          InHess   .... Almoef's Model

Convergence Tolerances:
Energy Change            TolE     ....  5.0000e-06 Eh
Max. Gradient            TolMAXG  ....  3.0000e-04 Eh/bohr
RMS Gradient             TolRMSG  ....  1.0000e-04 Eh/bohr
Max. Displacement        TolMAXD  ....  4.0000e-03 bohr
RMS Displacement         TolRMSD  ....  2.0000e-03 bohr
Strict Convergence                ....  False
------------------------------------------------------------------------------
                        ORCA OPTIMIZATION COORDINATE SETUP
------------------------------------------------------------------------------

The optimization will be done in new redundant internal coordinates
Making redundant internal coordinates   ...  (new redundants) done
Evaluating the initial hessian          ...  (Almloef) done
Evaluating the coordinates              ...  done
Calculating the B-matrix                .... done
Calculating the G-matrix                .... done
Diagonalizing the G-matrix              .... done
Small eigenvalue found = 2.793e-04
Small eigenvalue found = 8.263e-04
Small eigenvalue found = 9.059e-04
Small eigenvalue found = 2.767e-03
Small eigenvalue found = 3.700e-03
Small eigenvalue found = 4.390e-03
Small eigenvalue found = 5.539e-03
Small eigenvalue found = 5.782e-03
Small eigenvalue found = 7.230e-03
Small eigenvalue found = 8.090e-03
Small eigenvalue found = 1.142e-02
Small eigenvalue found = 1.249e-02
Small eigenvalue found = 1.487e-02
Small eigenvalue found = 1.601e-02
Small eigenvalue found = 1.979e-02
Small eigenvalue found = 2.020e-02
Small eigenvalue found = 2.210e-02
Small eigenvalue found = 2.740e-02
Small eigenvalue found = 2.994e-02
The first mode is                       ....  272
The number of degrees of freedom        ....  288

    -----------------------------------------------------------------
                    Redundant Internal Coordinates


    -----------------------------------------------------------------
         Definition                    Initial Value    Approx d2E/dq
    -----------------------------------------------------------------
      1. B(C   1,C   0)                  1.4151         0.569785   
      2. B(C   2,C   1)                  1.3762         0.657169   
      3. B(C   3,C   2)                  1.3935         0.616913   
      4. B(C   4,C   3)                  1.4165         0.566776   
      5. B(C   5,C   4)                  1.3747         0.660928   
      6. B(C   5,C   0)                  1.3933         0.617258   
      7. B(C   6,C   3)                  1.4278         0.543747   
      8. B(C   7,C   6)                  1.3912         0.622113   
      9. B(C   8,C   7)                  1.5066         0.407121   
     10. B(C   8,C   4)                  1.5170         0.391864   
     11. B(C   9,C   0)                  1.4255         0.548396   
     12. B(C  10,C   9)                  1.3919         0.620395   
     13. B(C  11,C   1)                  1.5217         0.385177   
     14. B(C  11,C  10)                  1.5101         0.401945   
     15. B(S  12,C   6)                  1.7100         0.519894   
     16. B(C  13,S  12)                  1.7560         0.439110   
     17. B(C  14,C   7)                  1.3850         0.636407   
     18. B(C  14,C  13)                  1.3922         0.619696   
     19. B(S  15,C   9)                  1.7081         0.523580   
     20. B(C  16,S  15)                  1.7546         0.441432   
     21. B(C  17,C  16)                  1.3923         0.619506   
     22. B(C  17,C  10)                  1.3871         0.631418   
     23. B(C  18,C   8)                  1.5361         0.365254   
     24. B(C  19,C   8)                  1.5473         0.350540   
     25. B(C  20,C  19)                  1.5225         0.384071   
     26. B(C  21,C  18)                  1.5244         0.381278   
     27. B(C  22,C  11)                  1.5442         0.354594   
     28. B(C  23,C  11)                  1.5411         0.358684   
     29. B(C  24,C  22)                  1.5227         0.383755   
     30. B(C  25,C  23)                  1.5228         0.383597   
     31. B(C  26,C  16)                  1.4105         0.579545   
     32. B(C  27,C  13)                  1.4107         0.579037   
     33. B(C  28,C  26)                  1.3626         0.690898   
     34. B(C  29,C  28)                  1.4103         0.579935   
     35. B(C  30,C  29)                  1.5141         0.396038   
     36. B(O  31,C  30)                  1.4328         0.478252   
     37. B(C  32,O  31)                  1.3411         0.669660   
     38. B(C  33,C  32)                  1.4429         0.514394   
     39. B(C  33,C  29)                  1.3786         0.651416   
     40. B(C  34,C  30)                  1.5308         0.372419   
     41. B(C  35,C  30)                  1.5310         0.372258   
     42. B(C  36,C  33)                  1.4012         0.599638   
     43. B(C  37,C  32)                  1.3698         0.673041   
     44. B(C  38,C  37)                  1.4063         0.588507   
     45. B(C  39,C  37)                  1.4096         0.581418   
     46. B(N  40,C  38)                  1.1473         1.365098   
     47. B(N  41,C  39)                  1.1469         1.366773   
     48. B(N  42,C  36)                  1.1479         1.361954   
     49. B(C  43,C  27)                  1.3629         0.690224   
     50. B(C  44,C  43)                  1.4097         0.581234   
     51. B(C  45,C  44)                  1.5142         0.395833   
     52. B(O  46,C  45)                  1.4326         0.478571   
     53. B(C  47,O  46)                  1.3412         0.669525   
     54. B(C  48,C  47)                  1.4430         0.514287   
     55. B(C  48,C  44)                  1.3784         0.651883   
     56. B(C  49,C  48)                  1.4011         0.599905   
     57. B(C  50,C  47)                  1.3697         0.673078   
     58. B(C  51,C  50)                  1.4063         0.588589   
     59. B(C  52,C  50)                  1.4096         0.581326   
     60. B(C  53,C  45)                  1.5310         0.372137   
     61. B(C  54,C  45)                  1.5309         0.372388   
     62. B(N  55,C  52)                  1.1470         1.366594   
     63. B(N  56,C  51)                  1.1473         1.364829   
     64. B(N  57,C  49)                  1.1480         1.361497   
     65. B(H  58,C   2)                  1.0785         0.375605   
     66. B(H  59,C   5)                  1.0786         0.375524   
     67. B(H  60,C  14)                  1.0746         0.381069   
     68. B(H  61,C  17)                  1.0745         0.381245   
     69. B(H  62,C  18)                  1.0920         0.357478   
     70. B(H  63,C  18)                  1.0901         0.359999   
     71. B(H  64,C  19)                  1.0924         0.356884   
     72. B(H  65,C  19)                  1.0932         0.355913   
     73. B(H  66,C  20)                  1.0865         0.364816   
     74. B(H  67,C  20)                  1.0877         0.363153   
     75. B(H  68,C  20)                  1.0863         0.365061   
     76. B(H  69,C  21)                  1.0877         0.363107   
     77. B(H  70,C  21)                  1.0872         0.363825   
     78. B(H  71,C  21)                  1.0878         0.362977   
     79. B(H  72,C  22)                  1.0913         0.358436   
     80. B(H  73,C  22)                  1.0934         0.355629   
     81. B(H  74,C  23)                  1.0905         0.359406   
     82. B(H  75,C  23)                  1.0933         0.355759   
     83. B(H  76,C  24)                  1.0864         0.364860   
     84. B(H  77,C  24)                  1.0878         0.362976   
     85. B(H  78,C  24)                  1.0861         0.365309   
     86. B(H  79,C  25)                  1.0865         0.364709   
     87. B(H  80,C  25)                  1.0877         0.363091   
     88. B(H  81,C  25)                  1.0863         0.364972   
     89. B(H  82,C  26)                  1.0807         0.372645   
     90. B(H  83,C  27)                  1.0806         0.372775   
     91. B(H  84,C  28)                  1.0809         0.372279   
     92. B(H  85,C  34)                  1.0881         0.362624   
     93. B(H  86,C  34)                  1.0859         0.365608   
     94. B(H  87,C  34)                  1.0866         0.364579   
     95. B(H  88,C  35)                  1.0881         0.362590   
     96. B(H  89,C  35)                  1.0866         0.364609   
     97. B(H  90,C  35)                  1.0859         0.365558   
     98. B(H  91,C  43)                  1.0809         0.372339   
     99. B(H  92,C  53)                  1.0881         0.362619   
    100. B(H  93,C  53)                  1.0859         0.365534   
    101. B(H  94,C  53)                  1.0866         0.364597   
    102. B(H  95,C  54)                  1.0881         0.362640   
    103. B(H  96,C  54)                  1.0866         0.364577   
    104. B(H  97,C  54)                  1.0859         0.365560   
    105. A(C   1,C   0,C   9)          107.0328         0.418258   
    106. A(C   5,C   0,C   9)          130.2442         0.424277   
    107. A(C   1,C   0,C   5)          122.7156         0.427193   
    108. A(C   0,C   1,C   2)          119.7347         0.432023   
    109. A(C   0,C   1,C  11)          111.0185         0.392955   
    110. A(C   2,C   1,C  11)          129.1780         0.402931   
    111. A(C   1,C   2,H  58)          122.6767         0.358973   
    112. A(C   3,C   2,H  58)          119.7393         0.355138   
    113. A(C   1,C   2,C   3)          117.5767         0.438249   
    114. A(C   2,C   3,C   6)          130.5272         0.423589   
    115. A(C   2,C   3,C   4)          122.4927         0.426745   
    116. A(C   4,C   3,C   6)          106.9528         0.417231   
    117. A(C   3,C   4,C   5)          119.9226         0.432055   
    118. A(C   5,C   4,C   8)          128.9781         0.404563   
    119. A(C   3,C   4,C   8)          111.0600         0.393776   
    120. A(C   0,C   5,H  59)          119.9248         0.355159   
    121. A(C   4,C   5,H  59)          122.6307         0.359309   
    122. A(C   0,C   5,C   4)          117.4344         0.438744   
    123. A(C   3,C   6,C   7)          110.6323         0.424225   
    124. A(C   7,C   6,S  12)          112.6452         0.444135   
    125. A(C   3,C   6,S  12)          136.7153         0.433476   
    126. A(C   6,C   7,C  14)          113.1110         0.436379   
    127. A(C   8,C   7,C  14)          136.5392         0.404591   
    128. A(C   6,C   7,C   8)          110.3127         0.402973   
    129. A(C  18,C   8,C  19)          111.7614         0.358053   
    130. A(C   7,C   8,C  18)          112.2121         0.367321   
    131. A(C   4,C   8,C  19)          111.9956         0.362369   
    132. A(C   4,C   8,C   7)          100.9159         0.371786   
    133. A(C   7,C   8,C  19)          107.2488         0.364743   
    134. A(C   4,C   8,C  18)          112.1396         0.364925   
    135. A(C  10,C   9,S  15)          113.1043         0.444481   
    136. A(C   0,C   9,S  15)          135.9502         0.434693   
    137. A(C   0,C   9,C  10)          110.9376         0.424662   
    138. A(C  11,C  10,C  17)          137.2628         0.403119   
    139. A(C   9,C  10,C  11)          110.0744         0.401869   
    140. A(C   9,C  10,C  17)          112.5782         0.435544   
    141. A(C  22,C  11,C  23)          113.9578         0.357648   
    142. A(C   1,C  11,C  10)          100.9188         0.369872   
    143. A(C   1,C  11,C  22)          112.1657         0.362016   
    144. A(C  10,C  11,C  23)          112.5813         0.365378   
    145. A(C   1,C  11,C  23)          108.8063         0.362726   
    146. A(C  10,C  11,C  22)          107.6941         0.364662   
    147. A(C   6,S  12,C  13)           90.3932         0.440250   
    148. A(C  14,C  13,C  27)          129.9396         0.428731   
    149. A(S  12,C  13,C  14)          111.5447         0.430516   
    150. A(S  12,C  13,C  27)          118.5156         0.425310   
    151. A(C   7,C  14,C  13)          112.3045         0.436073   
    152. A(C  13,C  14,H  60)          122.9722         0.356282   
    153. A(C   7,C  14,H  60)          124.7216         0.357896   
    154. A(C   9,S  15,C  16)           90.2237         0.441232   
    155. A(C  17,C  16,C  26)          130.5010         0.428775   
    156. A(S  15,C  16,C  26)          117.8696         0.425779   
    157. A(S  15,C  16,C  17)          111.6281         0.430900   
    158. A(C  16,C  17,H  61)          122.3437         0.356291   
    159. A(C  10,C  17,H  61)          125.1970         0.357446   
    160. A(C  10,C  17,C  16)          112.4546         0.435432   
    161. A(C  21,C  18,H  63)          108.9814         0.325394   
    162. A(C  21,C  18,H  62)          109.5258         0.325018   
    163. A(H  62,C  18,H  63)          108.0483         0.290493   
    164. A(C   8,C  18,H  62)          108.6573         0.322735   
    165. A(C   8,C  18,H  63)          109.0080         0.323107   
    166. A(C   8,C  18,C  21)          112.5194         0.363220   
    167. A(H  64,C  19,H  65)          107.5908         0.289898   
    168. A(C   8,C  19,H  65)          107.8666         0.320340   
    169. A(C  20,C  19,H  64)          109.1355         0.325319   
    170. A(C   8,C  19,H  64)          107.4375         0.320483   
    171. A(C   8,C  19,C  20)          115.8214         0.361129   
    172. A(C  20,C  19,H  65)          108.6997         0.325173   
    173. A(C  19,C  20,H  67)          109.1595         0.326252   
    174. A(C  19,C  20,H  66)          111.5145         0.326498   
    175. A(H  67,C  20,H  68)          108.0085         0.291853   
    176. A(H  66,C  20,H  67)          107.9711         0.291822   
    177. A(H  66,C  20,H  68)          109.0828         0.292063   
    178. A(C  19,C  20,H  68)          110.9930         0.326534   
    179. A(H  69,C  21,H  70)          108.3544         0.291691   
    180. A(H  69,C  21,H  71)          108.3447         0.291584   
    181. A(H  70,C  21,H  71)          108.4270         0.291675   
    182. A(C  18,C  21,H  71)          110.6374         0.325835   
    183. A(C  18,C  21,H  70)          110.0585         0.325960   
    184. A(C  18,C  21,H  69)          110.9413         0.325854   
    185. A(C  11,C  22,C  24)          115.8215         0.361787   
    186. A(H  72,C  22,H  73)          107.2725         0.290059   
    187. A(C  11,C  22,H  73)          107.5171         0.320901   
    188. A(C  24,C  22,H  73)          108.8020         0.325087   
    189. A(C  24,C  22,H  72)          109.2752         0.325507   
    190. A(C  11,C  22,H  72)          107.8277         0.321314   
    191. A(C  11,C  23,C  25)          115.2236         0.362471   
    192. A(C  25,C  23,H  74)          109.2293         0.325630   
    193. A(C  25,C  23,H  75)          108.9634         0.325084   
    194. A(H  74,C  23,H  75)          107.2914         0.290198   
    195. A(C  11,C  23,H  75)          107.5067         0.321523   
    196. A(C  11,C  23,H  74)          108.3396         0.322060   
    197. A(H  77,C  24,H  78)          107.9084         0.291862   
    198. A(C  22,C  24,H  78)          111.0367         0.326526   
    199. A(H  76,C  24,H  77)          108.0226         0.291805   
    200. A(C  22,C  24,H  77)          109.1971         0.326182   
    201. A(C  22,C  24,H  76)          111.5458         0.326460   
    202. A(H  76,C  24,H  78)          109.0148         0.292099   
    203. A(H  80,C  25,H  81)          107.9804         0.291834   
    204. A(H  79,C  25,H  80)          108.0219         0.291801   
    205. A(H  79,C  25,H  81)          108.9917         0.292038   
    206. A(C  23,C  25,H  81)          110.9911         0.326454   
    207. A(C  23,C  25,H  80)          109.3080         0.326177   
    208. A(C  23,C  25,H  79)          111.4393         0.326416   
    209. A(C  16,C  26,C  28)          125.7223         0.437267   
    210. A(C  28,C  26,H  82)          118.7774         0.361561   
    211. A(C  16,C  26,H  82)          115.5002         0.350931   
    212. A(C  13,C  27,H  83)          115.9649         0.350900   
    213. A(C  43,C  27,H  83)          119.1275         0.361522   
    214. A(C  13,C  27,C  43)          124.9072         0.437121   
    215. A(C  26,C  28,C  29)          124.5353         0.437320   
    216. A(C  29,C  28,H  84)          116.1923         0.350913   
    217. A(C  26,C  28,H  84)          119.2723         0.361500   
    218. A(C  30,C  29,C  33)          107.3282         0.404285   
    219. A(C  28,C  29,C  33)          130.9160         0.432712   
    220. A(C  28,C  29,C  30)          121.7558         0.396099   
    221. A(O  31,C  30,C  34)          108.1780         0.376538   
    222. A(C  29,C  30,C  34)          112.1877         0.366807   
    223. A(C  29,C  30,O  31)          104.5325         0.380568   
    224. A(C  34,C  30,C  35)          111.3627         0.362940   
    225. A(O  31,C  30,C  35)          108.1945         0.376510   
    226. A(C  29,C  30,C  35)          112.0077         0.366779   
    227. A(C  30,O  31,C  32)          110.0045         0.414674   
    228. A(O  31,C  32,C  33)          110.2907         0.422836   
    229. A(C  33,C  32,C  37)          128.4459         0.425989   
    230. A(O  31,C  32,C  37)          121.2634         0.443778   
    231. A(C  29,C  33,C  32)          107.8441         0.423508   
    232. A(C  32,C  33,C  36)          124.1880         0.417295   
    233. A(C  29,C  33,C  36)          127.9675         0.435321   
    234. A(H  86,C  34,H  87)          109.2767         0.292101   
    235. A(H  85,C  34,H  86)          109.0350         0.291854   
    236. A(H  85,C  34,H  87)          108.6848         0.291725   
    237. A(C  30,C  34,H  87)          109.1967         0.324813   
    238. A(C  30,C  34,H  86)          110.4862         0.324963   
    239. A(C  30,C  34,H  85)          110.1307         0.324526   
    240. A(H  89,C  35,H  90)          109.3043         0.292099   
    241. A(H  88,C  35,H  89)          108.6819         0.291725   
    242. A(H  88,C  35,H  90)          109.0145         0.291844   
    243. A(C  30,C  35,H  90)          110.4642         0.324933   
    244. A(C  30,C  35,H  89)          109.2309         0.324794   
    245. A(C  30,C  35,H  88)          110.1147         0.324498   
    246. L(C  33,C  36,N  42,C  32, 2) 179.5811         0.494870   
    247. L(C  33,C  36,N  42,C  32, 1) 181.8049         0.494870   
    248. A(C  38,C  37,C  39)          116.0606         0.425095   
    249. A(C  32,C  37,C  39)          120.5510         0.435462   
    250. A(C  32,C  37,C  38)          123.3884         0.436414   
    251. L(C  37,C  38,N  40,C  39, 2) 179.9898         0.493363   
    252. L(C  37,C  38,N  40,C  39, 1) 176.8558         0.493363   
    253. L(C  37,C  39,N  41,C  38, 2) 179.9401         0.492368   
    254. L(C  37,C  39,N  41,C  38, 1) 179.7662         0.492368   
    255. A(C  44,C  43,H  91)          115.9316         0.351055   
    256. A(C  27,C  43,H  91)          118.9868         0.361450   
    257. A(C  27,C  43,C  44)          125.0815         0.437420   
    258. A(C  45,C  44,C  48)          107.3563         0.404299   
    259. A(C  43,C  44,C  48)          131.0826         0.432942   
    260. A(C  43,C  44,C  45)          121.5611         0.396218   
    261. A(C  53,C  45,C  54)          111.3383         0.362915   
    262. A(O  46,C  45,C  54)          108.2118         0.376576   
    263. A(C  44,C  45,C  54)          112.1600         0.366769   
    264. A(O  46,C  45,C  53)          108.2126         0.376532   
    265. A(C  44,C  45,C  53)          112.0305         0.366726   
    266. A(C  44,C  45,O  46)          104.5132         0.380578   
    267. A(C  45,O  46,C  47)          110.0104         0.414708   
    268. A(C  48,C  47,C  50)          128.4780         0.425978   
    269. A(O  46,C  47,C  50)          121.2216         0.443766   
    270. A(O  46,C  47,C  48)          110.3004         0.422805   
    271. A(C  47,C  48,C  49)          124.3981         0.417313   
    272. A(C  44,C  48,C  49)          127.7822         0.435412   
    273. A(C  44,C  48,C  47)          107.8196         0.423546   
    274. L(C  48,C  49,N  57,C  47, 2) 180.0176         0.494880   
    275. L(C  48,C  49,N  57,C  47, 1) 181.9929         0.494880   
    276. A(C  51,C  50,C  52)          116.1361         0.425094   
    277. A(C  47,C  50,C  52)          120.5137         0.435454   
    278. A(C  47,C  50,C  51)          123.3502         0.436429   
    279. L(C  50,C  51,N  56,C  52, 2) 179.9461         0.493358   
    280. L(C  50,C  51,N  56,C  52, 1) 176.9183         0.493358   
    281. L(C  50,C  52,N  55,C  51, 2) 179.9496         0.492341   
    282. L(C  50,C  52,N  55,C  51, 1) 179.8334         0.492341   
    283. A(H  93,C  53,H  94)          109.2947         0.292094   
    284. A(H  92,C  53,H  94)          108.6873         0.291727   
    285. A(C  45,C  53,H  94)          109.2377         0.324775   
    286. A(H  92,C  53,H  93)          109.0011         0.291845   
    287. A(C  45,C  53,H  93)          110.4714         0.324912   
    288. A(C  45,C  53,H  92)          110.1183         0.324485   
    289. A(H  96,C  54,H  97)          109.2688         0.292095   
    290. A(H  95,C  54,H  97)          109.0238         0.291851   
    291. A(C  45,C  54,H  97)          110.4784         0.324952   
    292. A(H  95,C  54,H  96)          108.6907         0.291727   
    293. A(C  45,C  54,H  96)          109.2053         0.324808   
    294. A(C  45,C  54,H  95)          110.1431         0.324524   
    295. D(C   2,C   1,C   0,C   9)    176.3312         0.022270   
    296. D(C  11,C   1,C   0,C   9)     -0.9220         0.022270   
    297. D(C  11,C   1,C   0,C   5)    179.9744         0.022270   
    298. D(C   2,C   1,C   0,C   5)     -2.7725         0.022270   
    299. D(H  58,C   2,C   1,C   0)   -175.9991         0.030117   
    300. D(C   3,C   2,C   1,C   0)      3.0151         0.030117   
    301. D(C   3,C   2,C   1,C  11)    179.7069         0.030117   
    302. D(H  58,C   2,C   1,C  11)      0.6926         0.030117   
    303. D(C   6,C   3,C   2,C   1)   -178.2646         0.026319   
    304. D(C   4,C   3,C   2,C   1)     -0.4277         0.026319   
    305. D(C   6,C   3,C   2,H  58)      0.7798         0.026319   
    306. D(C   4,C   3,C   2,H  58)    178.6167         0.026319   
    307. D(C   8,C   4,C   3,C   6)     -2.2815         0.022025   
    308. D(C   5,C   4,C   3,C   6)    175.6382         0.022025   
    309. D(C   5,C   4,C   3,C   2)     -2.6431         0.022025   
    310. D(C   8,C   4,C   3,C   2)    179.4372         0.022025   
    311. D(H  59,C   5,C   4,C   3)   -175.9482         0.030488   
    312. D(C   0,C   5,C   4,C   8)   -179.6035         0.030488   
    313. D(C   4,C   5,C   0,C   9)   -179.1714         0.026351   
    314. D(H  59,C   5,C   4,C   8)      1.5543         0.030488   
    315. D(H  59,C   5,C   0,C   1)    178.5807         0.026351   
    316. D(H  59,C   5,C   0,C   9)     -0.2965         0.026351   
    317. D(C   4,C   5,C   0,C   1)     -0.2942         0.026351   
    318. D(C   0,C   5,C   4,C   3)      2.8940         0.030488   
    319. D(S  12,C   6,C   3,C   2)     -0.8183         0.020211   
    320. D(C   7,C   6,C   3,C   2)    178.0967         0.020211   
    321. D(S  12,C   6,C   3,C   4)   -178.9111         0.020211   
    322. D(C   7,C   6,C   3,C   4)      0.0039         0.020211   
    323. D(C  14,C   7,C   6,C   3)   -179.5640         0.026792   
    324. D(C   8,C   7,C   6,C   3)      2.2796         0.026792   
    325. D(C   8,C   7,C   6,S  12)   -178.5264         0.026792   
    326. D(C  14,C   7,C   6,S  12)     -0.3700         0.026792   
    327. D(C  19,C   8,C   7,C  14)    -63.5659         0.012282   
    328. D(C  18,C   8,C   7,C  14)     59.5341         0.012282   
    329. D(C  18,C   8,C   7,C   6)   -122.9313         0.012282   
    330. D(C   4,C   8,C   7,C  14)    179.0935         0.012282   
    331. D(C   4,C   8,C   7,C   6)     -3.3719         0.012282   
    332. D(C  19,C   8,C   4,C   3)   -110.3905         0.011419   
    333. D(C  19,C   8,C   4,C   5)     71.9290         0.011419   
    334. D(C  18,C   8,C   4,C   5)    -54.6565         0.011419   
    335. D(C  18,C   8,C   4,C   3)    123.0241         0.011419   
    336. D(C  19,C   8,C   7,C   6)    113.9688         0.012282   
    337. D(C   7,C   8,C   4,C   3)      3.4127         0.011419   
    338. D(C   7,C   8,C   4,C   5)   -174.2679         0.011419   
    339. D(S  15,C   9,C   0,C   5)     -2.0496         0.020569   
    340. D(S  15,C   9,C   0,C   1)    178.9384         0.020569   
    341. D(C  10,C   9,C   0,C   5)    179.0917         0.020569   
    342. D(C  10,C   9,C   0,C   1)      0.0797         0.020569   
    343. D(C  17,C  10,C   9,C   0)    178.0411         0.026635   
    344. D(C  17,C  10,C   9,S  15)     -1.0962         0.026635   
    345. D(C  11,C  10,C   9,S  15)   -178.3428         0.026635   
    346. D(C  11,C  10,C   9,C   0)      0.7945         0.026635   
    347. D(C  22,C  11,C  10,C  17)    -59.7941         0.011985   
    348. D(C  22,C  11,C  10,C   9)    116.4584         0.011985   
    349. D(C   1,C  11,C  10,C  17)   -177.4957         0.011985   
    350. D(C   1,C  11,C  10,C   9)     -1.2432         0.011985   
    351. D(C  23,C  11,C   1,C   2)    -57.0040         0.011053   
    352. D(C  22,C  11,C   1,C   2)     70.0046         0.011053   
    353. D(C  22,C  11,C   1,C   0)   -113.0726         0.011053   
    354. D(C  10,C  11,C   1,C   2)   -175.6127         0.011053   
    355. D(C  10,C  11,C   1,C   0)      1.3102         0.011053   
    356. D(C  23,C  11,C  10,C   9)   -117.0794         0.011985   
    357. D(C  23,C  11,C   1,C   0)    119.9189         0.011053   
    358. D(C  23,C  11,C  10,C  17)     66.6681         0.011985   
    359. D(C  13,S  12,C   6,C   7)      0.1904         0.005522   
    360. D(C  13,S  12,C   6,C   3)    179.0902         0.005522   
    361. D(C  27,C  13,S  12,C   6)    179.9270         0.004324   
    362. D(C  14,C  13,S  12,C   6)      0.0292         0.004324   
    363. D(H  60,C  14,C  13,C  27)      0.3289         0.026572   
    364. D(H  60,C  14,C  13,S  12)   -179.7883         0.026572   
    365. D(C   7,C  14,C  13,C  27)    179.8749         0.026572   
    366. D(C   7,C  14,C  13,S  12)     -0.2423         0.026572   
    367. D(H  60,C  14,C   7,C   8)     -2.5861         0.028119   
    368. D(C  13,C  14,C   7,C   8)    177.8773         0.028119   
    369. D(C  13,C  14,C   7,C   6)      0.3911         0.028119   
    370. D(H  60,C  14,C   7,C   6)    179.9277         0.028119   
    371. D(C  16,S  15,C   9,C  10)      0.5955         0.005582   
    372. D(C  16,S  15,C   9,C   0)   -178.2456         0.005582   
    373. D(C  26,C  16,S  15,C   9)    179.6747         0.004355   
    374. D(C  17,C  16,S  15,C   9)      0.0390         0.004355   
    375. D(H  61,C  17,C  16,C  26)     -0.9933         0.026554   
    376. D(H  61,C  17,C  16,S  15)    178.5831         0.026554   
    377. D(C  10,C  17,C  16,C  26)    179.7601         0.026554   
    378. D(C  10,C  17,C  16,S  15)     -0.6635         0.026554   
    379. D(H  61,C  17,C  10,C  11)     -1.9148         0.027651   
    380. D(H  61,C  17,C  10,C   9)   -178.1027         0.027651   
    381. D(C  16,C  17,C  10,C  11)    177.3063         0.027651   
    382. D(C  16,C  17,C  10,C   9)      1.1184         0.027651   
    383. D(H  63,C  18,C   8,C  19)    -64.6568         0.010682   
    384. D(H  63,C  18,C   8,C   7)    174.8211         0.010682   
    385. D(H  63,C  18,C   8,C   4)     62.0551         0.010682   
    386. D(H  62,C  18,C   8,C  19)     52.8709         0.010682   
    387. D(H  62,C  18,C   8,C   7)    -67.6513         0.010682   
    388. D(H  62,C  18,C   8,C   4)    179.5828         0.010682   
    389. D(C  21,C  18,C   8,C  19)    174.3295         0.010682   
    390. D(C  21,C  18,C   8,C   7)     53.8073         0.010682   
    391. D(C  21,C  18,C   8,C   4)    -58.9586         0.010682   
    392. D(H  65,C  19,C   8,C   7)    -50.7131         0.009898   
    393. D(H  65,C  19,C   8,C   4)     59.1192         0.009898   
    394. D(H  65,C  19,C   8,C  18)   -174.0907         0.009898   
    395. D(H  64,C  19,C   8,C  18)    -58.3643         0.009898   
    396. D(H  64,C  19,C   8,C   7)     65.0133         0.009898   
    397. D(H  64,C  19,C   8,C   4)    174.8456         0.009898   
    398. D(C  20,C  19,C   8,C  18)     63.8908         0.009898   
    399. D(C  20,C  19,C   8,C   7)   -172.7316         0.009898   
    400. D(C  20,C  19,C   8,C   4)    -62.8993         0.009898   
    401. D(H  68,C  20,C  19,H  65)    -57.4657         0.011744   
    402. D(H  68,C  20,C  19,H  64)   -174.5410         0.011744   
    403. D(H  68,C  20,C  19,C   8)     64.1088         0.011744   
    404. D(H  67,C  20,C  19,H  65)     61.4733         0.011744   
    405. D(H  67,C  20,C  19,H  64)    -55.6020         0.011744   
    406. D(H  67,C  20,C  19,C   8)   -176.9522         0.011744   
    407. D(H  66,C  20,C  19,H  65)   -179.3138         0.011744   
    408. D(H  66,C  20,C  19,H  64)     63.6109         0.011744   
    409. D(H  66,C  20,C  19,C   8)    -57.7392         0.011744   
    410. D(H  71,C  21,C  18,H  63)    -61.9157         0.011582   
    411. D(H  71,C  21,C  18,C   8)     59.1133         0.011582   
    412. D(H  70,C  21,C  18,H  63)     57.8924         0.011582   
    413. D(H  70,C  21,C  18,H  62)    -60.1162         0.011582   
    414. D(H  70,C  21,C  18,C   8)    178.9213         0.011582   
    415. D(H  69,C  21,C  18,H  63)    177.8042         0.011582   
    416. D(H  71,C  21,C  18,H  62)   -179.9243         0.011582   
    417. D(H  69,C  21,C  18,H  62)     59.7956         0.011582   
    418. D(H  69,C  21,C  18,C   8)    -61.1669         0.011582   
    419. D(C  24,C  22,C  11,C  23)     57.6590         0.010110   
    420. D(C  24,C  22,C  11,C  10)   -176.6919         0.010110   
    421. D(C  24,C  22,C  11,C   1)    -66.5309         0.010110   
    422. D(H  73,C  22,C  11,C  10)    -54.8089         0.010110   
    423. D(H  73,C  22,C  11,C   1)     55.3521         0.010110   
    424. D(H  72,C  22,C  11,C  23)    -65.0815         0.010110   
    425. D(H  72,C  22,C  11,C  10)     60.5677         0.010110   
    426. D(H  72,C  22,C  11,C   1)    170.7287         0.010110   
    427. D(H  73,C  22,C  11,C  23)    179.5420         0.010110   
    428. D(H  75,C  23,C  11,C  22)    177.6608         0.010327   
    429. D(H  75,C  23,C  11,C  10)     54.6363         0.010327   
    430. D(H  75,C  23,C  11,C   1)    -56.3621         0.010327   
    431. D(H  74,C  23,C  11,C  22)    -66.6872         0.010327   
    432. D(H  74,C  23,C  11,C  10)    170.2884         0.010327   
    433. D(H  74,C  23,C  11,C   1)     59.2900         0.010327   
    434. D(C  25,C  23,C  11,C  22)     55.9758         0.010327   
    435. D(C  25,C  23,C  11,C  10)    -67.0487         0.010327   
    436. D(C  25,C  23,C  11,C   1)   -178.0471         0.010327   
    437. D(H  78,C  24,C  22,H  72)   -172.8958         0.011726   
    438. D(H  78,C  24,C  22,C  11)     65.1304         0.011726   
    439. D(H  77,C  24,C  22,H  73)     62.8001         0.011726   
    440. D(H  77,C  24,C  22,H  72)    -54.0298         0.011726   
    441. D(H  77,C  24,C  22,C  11)   -176.0036         0.011726   
    442. D(H  76,C  24,C  22,H  73)   -177.8793         0.011726   
    443. D(H  76,C  24,C  22,H  72)     65.2907         0.011726   
    444. D(H  78,C  24,C  22,H  73)    -56.0659         0.011726   
    445. D(H  76,C  24,C  22,C  11)    -56.6830         0.011726   
    446. D(H  81,C  25,C  23,H  75)    -59.9433         0.011716   
    447. D(H  81,C  25,C  23,H  74)   -176.8615         0.011716   
    448. D(H  81,C  25,C  23,C  11)     60.9520         0.011716   
    449. D(H  80,C  25,C  23,H  75)     59.0536         0.011716   
    450. D(H  80,C  25,C  23,H  74)    -57.8645         0.011716   
    451. D(H  80,C  25,C  23,C  11)    179.9489         0.011716   
    452. D(H  79,C  25,C  23,H  75)    178.3789         0.011716   
    453. D(H  79,C  25,C  23,H  74)     61.4607         0.011716   
    454. D(H  79,C  25,C  23,C  11)    -60.7258         0.011716   
    455. D(H  82,C  26,C  16,C  17)    178.8288         0.023074   
    456. D(H  82,C  26,C  16,S  15)     -0.7258         0.023074   
    457. D(C  28,C  26,C  16,C  17)     -1.2043         0.023074   
    458. D(C  28,C  26,C  16,S  15)    179.2411         0.023074   
    459. D(H  83,C  27,C  13,C  14)   -179.5564         0.023032   
    460. D(H  83,C  27,C  13,S  12)      0.5676         0.023032   
    461. D(C  43,C  27,C  13,C  14)      0.6499         0.023032   
    462. D(C  43,C  27,C  13,S  12)   -179.2261         0.023032   
    463. D(H  84,C  28,C  26,H  82)    179.4762         0.033546   
    464. D(H  84,C  28,C  26,C  16)     -0.4898         0.033546   
    465. D(C  29,C  28,C  26,H  82)     -0.4037         0.033546   
    466. D(C  29,C  28,C  26,C  16)    179.6304         0.033546   
    467. D(C  33,C  29,C  28,H  84)    178.8879         0.023106   
    468. D(C  33,C  29,C  28,C  26)     -1.2290         0.023106   
    469. D(C  30,C  29,C  28,H  84)     -1.0994         0.023106   
    470. D(C  30,C  29,C  28,C  26)    178.7837         0.023106   
    471. D(C  35,C  30,C  29,C  33)    116.8778         0.011651   
    472. D(C  35,C  30,C  29,C  28)    -63.1322         0.011651   
    473. D(C  34,C  30,C  29,C  33)   -117.0246         0.011651   
    474. D(C  34,C  30,C  29,C  28)     62.9653         0.011651   
    475. D(O  31,C  30,C  29,C  33)     -0.0385         0.011651   
    476. D(O  31,C  30,C  29,C  28)    179.9515         0.011651   
    477. D(C  32,O  31,C  30,C  35)   -119.4882         0.018041   
    478. D(C  32,O  31,C  30,C  34)    119.7475         0.018041   
    479. D(C  32,O  31,C  30,C  29)      0.0293         0.018041   
    480. D(C  37,C  32,O  31,C  30)   -179.9820         0.033310   
    481. D(C  33,C  32,O  31,C  30)     -0.0101         0.033310   
    482. D(C  36,C  33,C  32,C  37)      0.1767         0.018038   
    483. D(C  36,C  33,C  32,O  31)   -179.7926         0.018038   
    484. D(C  29,C  33,C  32,C  37)    179.9535         0.018038   
    485. D(C  29,C  33,C  32,O  31)     -0.0158         0.018038   
    486. D(C  36,C  33,C  29,C  30)    179.7990         0.029555   
    487. D(C  36,C  33,C  29,C  28)     -0.1897         0.029555   
    488. D(C  32,C  33,C  29,C  30)      0.0333         0.029555   
    489. D(C  32,C  33,C  29,C  28)   -179.9554         0.029555   
    490. D(H  87,C  34,C  30,C  35)    -60.7316         0.011079   
    491. D(H  87,C  34,C  30,O  31)     58.0405         0.011079   
    492. D(H  87,C  34,C  30,C  29)    172.8213         0.011079   
    493. D(H  86,C  34,C  30,C  35)     59.4836         0.011079   
    494. D(H  86,C  34,C  30,O  31)    178.2557         0.011079   
    495. D(H  86,C  34,C  30,C  29)    -66.9634         0.011079   
    496. D(H  85,C  34,C  30,C  35)    179.9988         0.011079   
    497. D(H  85,C  34,C  30,O  31)    -61.2291         0.011079   
    498. D(H  85,C  34,C  30,C  29)     53.5518         0.011079   
    499. D(H  90,C  35,C  30,C  34)    -59.8654         0.011070   
    500. D(H  90,C  35,C  30,O  31)   -178.6276         0.011070   
    501. D(H  90,C  35,C  30,C  29)     66.6804         0.011070   
    502. D(H  89,C  35,C  30,C  34)     60.3920         0.011070   
    503. D(H  89,C  35,C  30,O  31)    -58.3702         0.011070   
    504. D(H  89,C  35,C  30,C  29)   -173.0622         0.011070   
    505. D(H  88,C  35,C  30,C  34)    179.6695         0.011070   
    506. D(H  88,C  35,C  30,O  31)     60.9073         0.011070   
    507. D(H  88,C  35,C  30,C  29)    -53.7847         0.011070   
    508. D(C  39,C  37,C  32,C  33)   -179.9609         0.031702   
    509. D(C  39,C  37,C  32,O  31)      0.0054         0.031702   
    510. D(C  38,C  37,C  32,C  33)      0.0267         0.031702   
    511. D(C  38,C  37,C  32,O  31)    179.9929         0.031702   
    512. D(H  91,C  43,C  27,H  83)   -179.7172         0.033475   
    513. D(H  91,C  43,C  27,C  13)      0.0704         0.033475   
    514. D(C  44,C  43,C  27,H  83)      0.1478         0.033475   
    515. D(C  44,C  43,C  27,C  13)    179.9355         0.033475   
    516. D(C  48,C  44,C  43,H  91)   -179.3589         0.023215   
    517. D(C  48,C  44,C  43,C  27)      0.7723         0.023215   
    518. D(C  45,C  44,C  43,H  91)      0.6515         0.023215   
    519. D(C  45,C  44,C  43,C  27)   -179.2173         0.023215   
    520. D(C  54,C  45,C  44,C  48)    117.0971         0.011639   
    521. D(C  54,C  45,C  44,C  43)    -62.9111         0.011639   
    522. D(C  53,C  45,C  44,C  48)   -116.8419         0.011639   
    523. D(C  53,C  45,C  44,C  43)     63.1499         0.011639   
    524. D(O  46,C  45,C  44,C  48)      0.0959         0.011639   
    525. D(O  46,C  45,C  44,C  43)   -179.9123         0.011639   
    526. D(C  47,O  46,C  45,C  54)   -119.7807         0.018065   
    527. D(C  47,O  46,C  45,C  53)    119.4544         0.018065   
    528. D(C  47,O  46,C  45,C  44)     -0.0883         0.018065   
    529. D(C  50,C  47,O  46,C  45)   -179.9794         0.033296   
    530. D(C  48,C  47,O  46,C  45)      0.0499         0.033296   
    531. D(C  49,C  48,C  47,C  50)     -0.0777         0.018030   
    532. D(C  49,C  48,C  47,O  46)    179.8903         0.018030   
    533. D(C  44,C  48,C  47,C  50)   -179.9532         0.018030   
    534. D(C  44,C  48,C  47,O  46)      0.0148         0.018030   
    535. D(C  49,C  48,C  44,C  45)   -179.9388         0.029600   
    536. D(C  49,C  48,C  44,C  43)      0.0704         0.029600   
    537. D(C  47,C  48,C  44,C  45)     -0.0688         0.029600   
    538. D(C  47,C  48,C  44,C  43)    179.9405         0.029600   
    539. D(C  52,C  50,C  47,C  48)    179.9620         0.031706   
    540. D(C  52,C  50,C  47,O  46)     -0.0029         0.031706   
    541. D(C  51,C  50,C  47,C  48)     -0.0296         0.031706   
    542. D(C  51,C  50,C  47,O  46)   -179.9944         0.031706   
    543. D(H  94,C  53,C  45,C  44)    173.2844         0.011063   
    544. D(H  93,C  53,C  45,C  54)     60.0461         0.011063   
    545. D(H  93,C  53,C  45,O  46)    178.8467         0.011063   
    546. D(H  93,C  53,C  45,C  44)    -66.4614         0.011063   
    547. D(H  92,C  53,C  45,C  54)   -179.4985         0.011063   
    548. D(H  92,C  53,C  45,O  46)    -60.6980         0.011063   
    549. D(H  92,C  53,C  45,C  44)     53.9940         0.011063   
    550. D(H  94,C  53,C  45,C  54)    -60.2081         0.011063   
    551. D(H  94,C  53,C  45,O  46)     58.5924         0.011063   
    552. D(H  97,C  54,C  45,C  53)    -59.3673         0.011077   
    553. D(H  97,C  54,C  45,O  46)   -178.1683         0.011077   
    554. D(H  97,C  54,C  45,C  44)     67.0691         0.011077   
    555. D(H  96,C  54,C  45,C  53)     60.8388         0.011077   
    556. D(H  96,C  54,C  45,O  46)    -57.9622         0.011077   
    557. D(H  96,C  54,C  45,C  44)   -172.7248         0.011077   
    558. D(H  95,C  54,C  45,C  53)   -179.8716         0.011077   
    559. D(H  95,C  54,C  45,O  46)     61.3274         0.011077   
    560. D(H  95,C  54,C  45,C  44)    -53.4352         0.011077   
    -----------------------------------------------------------------

Number of atoms                         .... 98
Number of degrees of freedom            .... 560

         *************************************************************
         *                GEOMETRY OPTIMIZATION CYCLE   1            *
         *************************************************************
---------------------------------
CARTESIAN COORDINATES (ANGSTROEM)
---------------------------------
  C      2.719230    1.148770   -0.087540
  C      2.836880   -0.256900   -0.200350
  C      1.704850   -1.039520   -0.191620
  C      0.472770   -0.391110   -0.134490
  C      0.357190    1.019540   -0.077350
  C      1.488480    1.798590   -0.022080
  C     -0.852330   -0.919990   -0.079080
  C     -1.786650    0.106870    0.010160
  C     -1.098040    1.446060   -0.036810
  C      4.042760    1.676030   -0.039310
  C      4.987410    0.656860   -0.119200
  C      4.297670   -0.680000   -0.251070
  S     -1.574740   -2.469920   -0.071840
  C     -3.167510   -1.740280    0.047540
  C     -3.092280   -0.350390    0.076760
  S      4.741710    3.230960    0.066990
  C      6.345180    2.523230   -0.013670
  C      6.289150    1.136030   -0.118920
  C     -1.415220    2.305700    1.196120
  C     -1.535040    2.140930   -1.348450
  C     -0.818250    3.442530   -1.680000
  C     -1.119210    1.581620    2.504560
  C      4.684730   -1.274550   -1.622650
  C      4.585830   -1.614590    0.939900
  C      4.023010   -2.597890   -1.982450
  C      6.027410   -2.091100    1.056880
  C      7.453380    3.394820    0.026780
  C     -4.294430   -2.587480    0.096420
  C      8.762700    3.019230   -0.010090
  C      9.852360    3.913850    0.024440
  C     11.285370    3.425280    0.007270
  O     12.073440    4.621010    0.051690
  C     11.273340    5.696590    0.091450
  C      9.888660    5.291050    0.076000
  C     11.625540    2.676810   -1.284070
  C     11.620170    2.585920    1.243080
  C      8.807110    6.181420    0.104600
  C     11.788910    6.964750    0.138150
  C     10.992360    8.122910    0.180810
  C     13.183230    7.171520    0.145490
  N     10.395370    9.101940    0.216740
  N     14.317030    7.344360    0.152270
  N      7.898540    6.882690    0.123300
  C     -5.587000   -2.162340    0.173810
  C     -6.715730   -3.005470    0.221550
  C     -8.120980   -2.445490    0.289630
  O     -8.966700   -3.601260    0.324710
  C     -8.222260   -4.716100    0.283470
  C     -6.820470   -4.379930    0.218830
  C     -5.782700   -5.319780    0.166840
  C     -8.800900   -5.957430    0.304860
  C     -8.064250   -7.154590    0.263690
  C    -10.202450   -6.092730    0.371260
  C     -8.475560   -1.630750   -0.957200
  C     -8.359810   -1.638880    1.568650
  N    -11.342480   -6.206140    0.425790
  N     -7.516600   -8.162250    0.231880
  N     -4.906150   -6.059780    0.123270
  H      1.741850   -2.117230   -0.211300
  H      1.451370    2.871040    0.086620
  H     -3.958830    0.280770    0.150780
  H      7.172280    0.529740   -0.202430
  H     -2.470180    2.585890    1.164610
  H     -0.821790    3.219130    1.154260
  H     -2.608290    2.331530   -1.276090
  H     -1.379280    1.436080   -2.169410
  H     -0.933750    4.174560   -0.885530
  H     -1.243870    3.863100   -2.588330
  H      0.240230    3.270650   -1.853410
  H     -1.724790    0.682800    2.597110
  H     -1.339310    2.231090    3.348210
  H     -0.071050    1.295010    2.555530
  H      5.768900   -1.397600   -1.639500
  H      4.430120   -0.534220   -2.385940
  H      3.926520   -2.479950    0.864350
  H      4.313960   -1.077620    1.852620
  H      4.217150   -3.358310   -1.231190
  H      4.422610   -2.951550   -2.930410
  H      2.949480   -2.478760   -2.096180
  H      6.331300   -2.656180    0.180010
  H      6.122480   -2.739780    1.924850
  H      6.704990   -1.252350    1.189250
  H      7.215630    4.446920    0.093310
  H     -4.090570   -3.648210    0.065540
  H      9.009710    1.968480   -0.068000
  H     11.380040    3.290520   -2.148390
  H     11.069640    1.745790   -1.341400
  H     12.690290    2.460550   -1.301810
  H     11.376240    3.138580    2.148110
  H     12.683740    2.363370    1.247170
  H     11.058930    1.656340    1.234090
  H     -5.788570   -1.100720    0.199910
  H     -8.307070   -2.224990   -1.853000
  H     -7.867760   -0.732370   -1.009370
  H     -9.525110   -1.352310   -0.916420
  H     -8.099870   -2.234540    2.441320
  H     -9.410900   -1.370330    1.630860
  H     -7.758510   -0.734660    1.565400

----------------------------
CARTESIAN COORDINATES (A.U.)
----------------------------
  NO LB      ZA    FRAG     MASS         X           Y           Z
   0 C     6.0000    0    12.011    5.138600    2.170861   -0.165427
   1 C     6.0000    0    12.011    5.360926   -0.485471   -0.378607
   2 C     6.0000    0    12.011    3.221700   -1.964408   -0.362109
   3 C     6.0000    0    12.011    0.893406   -0.739091   -0.254149
   4 C     6.0000    0    12.011    0.674991    1.926651   -0.146170
   5 C     6.0000    0    12.011    2.812820    3.398843   -0.041725
   6 C     6.0000    0    12.011   -1.610670   -1.738529   -0.149440
   7 C     6.0000    0    12.011   -3.376279    0.201955    0.019200
   8 C     6.0000    0    12.011   -2.074995    2.732657   -0.069561
   9 C     6.0000    0    12.011    7.639709    3.167238   -0.074285
  10 C     6.0000    0    12.011    9.424839    1.241286   -0.225255
  11 C     6.0000    0    12.011    8.121419   -1.285014   -0.474454
  12 S    16.0000    0    32.060   -2.975827   -4.667472   -0.135758
  13 C     6.0000    0    12.011   -5.985726   -3.288653    0.089838
  14 C     6.0000    0    12.011   -5.843562   -0.662141    0.145055
  15 S    16.0000    0    32.060    8.960533    6.105630    0.126593
  16 C     6.0000    0    12.011   11.990652    4.768214   -0.025833
  17 C     6.0000    0    12.011   11.884771    2.146786   -0.224726
  18 C     6.0000    0    12.011   -2.674378    4.357142    2.260339
  19 C     6.0000    0    12.011   -2.900805    4.045771   -2.548201
  20 C     6.0000    0    12.011   -1.546268    6.505439   -3.174740
  21 C     6.0000    0    12.011   -2.115000    2.988829    4.732932
  22 C     6.0000    0    12.011    8.852857   -2.408550   -3.066364
  23 C     6.0000    0    12.011    8.665963   -3.051133    1.776154
  24 C     6.0000    0    12.011    7.602387   -4.909301   -3.746288
  25 C     6.0000    0    12.011   11.390154   -3.951606    1.997214
  26 C     6.0000    0    12.011   14.084847    6.415280    0.050607
  27 C     6.0000    0    12.011   -8.115297   -4.889629    0.182207
  28 C     6.0000    0    12.011   16.559103    5.705518   -0.019067
  29 C     6.0000    0    12.011   18.618262    7.396105    0.046185
  30 C     6.0000    0    12.011   21.326259    6.472841    0.013738
  31 O     8.0000    0    15.999   22.815495    8.732443    0.097680
  32 C     6.0000    0    12.011   21.303525   10.764995    0.172815
  33 C     6.0000    0    12.011   18.686859    9.998635    0.143619
  34 C     6.0000    0    12.011   21.969087    5.058438   -2.426541
  35 C     6.0000    0    12.011   21.958939    4.886681    2.349081
  36 C     6.0000    0    12.011   16.643026   11.681191    0.197665
  37 C     6.0000    0    12.011   22.277811   13.161470    0.261066
  38 C     6.0000    0    12.011   20.772550   15.350075    0.341681
  39 C     6.0000    0    12.011   24.912694   13.552209    0.274936
  40 N     7.0000    0    14.007   19.644402   17.200174    0.409579
  41 N     7.0000    0    14.007   27.055266   13.878829    0.287749
  42 N     7.0000    0    14.007   14.926077   13.006399    0.233003
  43 C     6.0000    0    12.011  -10.557900   -4.086230    0.328453
  44 C     6.0000    0    12.011  -12.690890   -5.679515    0.418669
  45 C     6.0000    0    12.011  -15.346428   -4.621306    0.547321
  46 O     8.0000    0    15.999  -16.944607   -6.805395    0.613613
  47 C     6.0000    0    12.011  -15.537820   -8.912137    0.535681
  48 C     6.0000    0    12.011  -12.888820   -8.276868    0.413529
  49 C     6.0000    0    12.011  -10.927719  -10.052927    0.315282
  50 C     6.0000    0    12.011  -16.631291  -11.257911    0.576102
  51 C     6.0000    0    12.011  -15.239224  -13.520216    0.498302
  52 C     6.0000    0    12.011  -19.279836  -11.513591    0.701580
  53 C     6.0000    0    12.011  -16.016487   -3.081671   -1.808846
  54 C     6.0000    0    12.011  -15.797751   -3.097034    2.964319
  55 N     7.0000    0    14.007  -21.434181  -11.727905    0.804626
  56 N     7.0000    0    14.007  -14.204315  -15.424417    0.438190
  57 N     7.0000    0    14.007   -9.271280  -11.451325    0.232947
  58 H     1.0000    0     1.008    3.291619   -4.000985   -0.399299
  59 H     1.0000    0     1.008    2.742692    5.425479    0.163688
  60 H     1.0000    0     1.008   -7.481105    0.530578    0.284933
  61 H     1.0000    0     1.008   13.553645    1.001064   -0.382537
  62 H     1.0000    0     1.008   -4.667964    4.886624    2.200794
  63 H     1.0000    0     1.008   -1.552958    6.083274    2.181235
  64 H     1.0000    0     1.008   -4.928954    4.405953   -2.411461
  65 H     1.0000    0     1.008   -2.606461    2.713798   -4.099591
  66 H     1.0000    0     1.008   -1.764532    7.888775   -1.673409
  67 H     1.0000    0     1.008   -2.350574    7.300201   -4.891235
  68 H     1.0000    0     1.008    0.453969    6.180633   -3.502437
  69 H     1.0000    0     1.008   -3.259381    1.290305    4.907827
  70 H     1.0000    0     1.008   -2.530929    4.216149    6.327200
  71 H     1.0000    0     1.008   -0.134265    2.447214    4.829252
  72 H     1.0000    0     1.008   10.901641   -2.641081   -3.098206
  73 H     1.0000    0     1.008    8.371714   -1.009529   -4.508773
  74 H     1.0000    0     1.008    7.420047   -4.686426    1.633385
  75 H     1.0000    0     1.008    8.152203   -2.036407    3.500944
  76 H     1.0000    0     1.008    7.969259   -6.346286   -2.326612
  77 H     1.0000    0     1.008    8.357522   -5.577621   -5.537672
  78 H     1.0000    0     1.008    5.573709   -4.684178   -3.961206
  79 H     1.0000    0     1.008   11.964423   -5.019453    0.340170
  80 H     1.0000    0     1.008   11.569810   -5.177434    3.637439
  81 H     1.0000    0     1.008   12.670595   -2.366599    2.247357
  82 H     1.0000    0     1.008   13.635565    8.403461    0.176330
  83 H     1.0000    0     1.008   -7.730057   -6.894118    0.123853
  84 H     1.0000    0     1.008   17.025884    3.719888   -0.128501
  85 H     1.0000    0     1.008   21.505159    6.218182   -4.059869
  86 H     1.0000    0     1.008   20.918588    3.299065   -2.534879
  87 H     1.0000    0     1.008   23.981173    4.649766   -2.460064
  88 H     1.0000    0     1.008   21.497978    5.931057    4.059340
  89 H     1.0000    0     1.008   23.968795    4.466122    2.356810
  90 H     1.0000    0     1.008   20.898349    3.130029    2.332092
  91 H     1.0000    0     1.008  -10.938812   -2.080059    0.377775
  92 H     1.0000    0     1.008  -15.698087   -4.204622   -3.501663
  93 H     1.0000    0     1.008  -14.867912   -1.383979   -1.907433
  94 H     1.0000    0     1.008  -17.999849   -2.555496   -1.731783
  95 H     1.0000    0     1.008  -15.306536   -4.222669    4.613426
  96 H     1.0000    0     1.008  -17.784024   -2.589548    3.081879
  97 H     1.0000    0     1.008  -14.661459   -1.388306    2.958177

--------------------------------
INTERNAL COORDINATES (ANGSTROEM)
--------------------------------
 C      0   0   0     0.000000000000     0.00000000     0.00000000
 C      1   0   0     1.415088607650     0.00000000     0.00000000
 C      2   1   0     1.376249322688   119.73469615     0.00000000
 C      3   2   1     1.393456311263   117.57669876     3.01510518
 C      4   3   2     1.416529963855   122.49266245   359.57233575
 C      5   4   3     1.374696599072   119.92260285   357.35689490
 C      4   3   2     1.427821533841   130.52717300   181.73540650
 C      7   4   3     1.391171844022   110.63228426   178.09666926
 C      8   7   4     1.506592104420   110.31266841     2.27959104
 C      1   2   3     1.425503736018   107.03281565   176.33121941
 C     10   1   2     1.391924395756   110.93755250     0.07972989
 C     11  10   1     1.510074708119   110.07440395     0.79453000
 S      7   4   3     1.710032640215   136.71533384   359.18167823
 C     13   7   4     1.756001818592    90.39318596   179.09019135
 C      8   7   4     1.384988073775   113.11097765   180.43603822
 S     10   1   2     1.708109509780   135.95016639   178.93841716
 C     16  10   1     1.754566564540    90.22368967   181.75439977
 C     11  10   1     1.387130489500   112.57816411   178.04113949
 C      9   8   7     1.536131656760   112.21206830   237.06871919
 C      9   8   7     1.547324402477   107.24882472   113.96875803
 C     20   9   8     1.522457180547   115.82135990   187.26839005
 C     19   9   8     1.524443833042   112.51935473    53.80734251
 C     12  11  10     1.544194561090   107.69407745   116.45835228
 C     12  11  10     1.541072417052   112.58134387   242.92057301
 C     23  12  11     1.522681238474   115.82152041   183.30814274
 C     24  12  11     1.522793156308   115.22363628   292.95132788
 C     17  16  10     1.410465373769   117.86962973   179.67467820
 C     14  13   7     1.410704001837   118.51556993   179.92703565
 C     27  17  16     1.362624712604   125.72233307   179.24112805
 C     29  27  17     1.410282305391   124.53530000   179.63035653
 C     30  29  27     1.514104723558   121.75579883   178.78373225
 O     31  30  29     1.432758770415   104.53248327   179.95145409
 C     32  31  30     1.341123858560   110.00445889     0.02934592
 C     30  29  27     1.378642797682   130.91595325   358.77104959
 C     31  30  29     1.530843547003   112.18767191    62.96531504
 C     31  30  29     1.530961333836   112.00766497   296.86779283
 C     34  30  29     1.401187745950   127.96747253   359.81034226
 C     33  32  31     1.369752934109   121.26335246   180.01804351
 C     38  33  32     1.406288151020   123.38838812   179.99294446
 C     38  33  32     1.409587163286   120.55104512     0.00000000
 N     39  38  33     1.147252267769   176.85576584   180.11940313
 N     40  38  33     1.146918512363   179.76408526   187.75690708
 N     37  34  30     1.147880110377   178.18483857   354.34894356
 C     28  14  13     1.362890471241   124.90724905   180.77392522
 C     44  28  14     1.409673266186   125.08146146   179.93546641
 C     45  44  28     1.514245703081   121.56112187   180.78270662
 O     46  45  44     1.432577124521   104.51324334   180.08766631
 C     47  46  45     1.341178540240   110.01036384   359.91168896
 C     45  44  28     1.378447734809   131.08262527     0.77230622
 C     49  45  44     1.401066577826   127.78220653     0.07044909
 C     48  47  46     1.369737913106   121.22155735   180.02063134
 C     51  48  47     1.406250424711   123.35019842   180.00555358
 C     51  48  47     1.409630253825   120.51370397     0.00000000
 C     46  45  44     1.531049735606   112.03052208    63.14985544
 C     46  45  44     1.530866297689   112.15999881   297.08888276
 N     53  51  48     1.146954118481   179.83123417   189.13295348
 N     52  51  48     1.147306007219   176.91818508   180.56822369
 N     50  49  45     1.147971361751   178.00713216     0.07351942
 H      3   2   1     1.078524522902   122.67668712   184.00085003
 H      6   5   4     1.078583258075   122.63069508   184.05182519
 H     15   8   7     1.074593322378   124.72159314   179.92772813
 H     18  11  10     1.074467347619   125.19700480   181.89730497
 H     19   9   8     1.091988973296   108.65732583   292.34871636
 H     19   9   8     1.090076047531   109.00804873   174.82105795
 H     20   9   8     1.092442168767   107.43747431    65.01329200
 H     20   9   8     1.093183434607   107.86658334   309.28692798
 H     21  20   9     1.086457892327   111.51452267   302.26076009
 H     21  20   9     1.087701658636   109.15949289   183.04784624
 H     21  20   9     1.086275136832   110.99300116    64.10881369
 H     22  19   9     1.087736195638   110.94126853   298.83312320
 H     22  19   9     1.087198516095   110.05851960   178.92131287
 H     22  19   9     1.087833911312   110.63735467    59.11326478
 H     23  12  11     1.091260653510   107.82772943    60.56768439
 H     23  12  11     1.093401291887   107.51714254   305.19111988
 H     24  12  11     1.090525290032   108.33962276   170.28836448
 H     24  12  11     1.093301365681   107.50667299    54.63632077
 H     25  23  12     1.086425562844   111.54575498   303.31698123
 H     25  23  12     1.087834416260   109.19714919   183.99643403
 H     25  23  12     1.086090756199   111.03669413    65.13043288
 H     26  24  12     1.086538326706   111.43929751   299.27416913
 H     26  24  12     1.087748117994   109.30804564   179.94892069
 H     26  24  12     1.086341583389   110.99106102    60.95197521
 H     27  17  16     1.080678357977   115.50024320   359.27416238
 H     28  14  13     1.080583456703   115.96493744     0.56757220
 H     29  27  17     1.080945452232   119.27229485   359.51017767
 H     35  31  30     1.088098927718   110.13071961    53.55175632
 H     35  31  30     1.085868214518   110.48619421   293.03655032
 H     35  31  30     1.086635015863   109.19669170   172.82134460
 H     36  31  30     1.088124175542   110.11473147   306.21530692
 H     36  31  30     1.086612339107   109.23090716   186.93780230
 H     36  31  30     1.085905214142   110.46419628    66.68043354
 H     44  28  14     1.080901799101   118.98677932     0.07038502
 H     54  46  45     1.088102797396   110.11830425    53.99398533
 H     54  46  45     1.085923189411   110.47144815   293.53863635
 H     54  46  45     1.086621849817   109.23769942   173.28436273
 H     55  46  45     1.088086654683   110.14309608   306.56484067
 H     55  46  45     1.086636726188   109.20534588   187.27518920
 H     55  46  45     1.085903338654   110.47837868    67.06911836

---------------------------
INTERNAL COORDINATES (A.U.)
---------------------------
 C      0   0   0     0.000000000000     0.00000000     0.00000000
 C      1   0   0     2.674129923690     0.00000000     0.00000000
 C      2   1   0     2.600734311875   119.73469615     0.00000000
 C      3   2   1     2.633250807872   117.57669876     3.01510518
 C      4   3   2     2.676853692180   122.49266245   359.57233575
 C      5   4   3     2.597800089479   119.92260285   357.35689490
 C      4   3   2     2.698191667075   130.52717300   181.73540650
 C      7   4   3     2.628933790424   110.63228426   178.09666926
 C      8   7   4     2.847046472881   110.31266841     2.27959104
 C      1   2   3     2.693811663955   107.03281565   176.33121941
 C     10   1   2     2.630355907102   110.93755250     0.07972989
 C     11  10   1     2.853627640106   110.07440395     0.79453000
 S      7   4   3     3.231493370072   136.71533384   359.18167823
 C     13   7   4     3.318362527807    90.39318596   179.09019135
 C      8   7   4     2.617248158183   113.11097765   180.43603822
 S     10   1   2     3.227859180230   135.95016639   178.93841716
 C     16  10   1     3.315650290715    90.22368967   181.75439977
 C     11  10   1     2.621296737167   112.57816411   178.04113949
 C      9   8   7     2.902868136923   112.21206830   237.06871919
 C      9   8   7     2.924019361014   107.24882472   113.96875803
 C     20   9   8     2.877027121856   115.82135990   187.26839005
 C     19   9   8     2.880781350995   112.51935473    53.80734251
 C     12  11  10     2.918104817951   107.69407745   116.45835228
 C     12  11  10     2.912204820769   112.58134387   242.92057301
 C     23  12  11     2.877450529975   115.82152041   183.30814274
 C     24  12  11     2.877662024033   115.22363628   292.95132788
 C     17  16  10     2.665393277801   117.86962973   179.67467820
 C     14  13   7     2.665844219499   118.51556993   179.92703565
 C     27  17  16     2.574987530135   125.72233307   179.24112805
 C     29  27  17     2.665047328705   124.53530000   179.63035653
 C     30  29  27     2.861243265601   121.75579883   178.78373225
 O     31  30  29     2.707521692057   104.53248327   179.95145409
 C     32  31  30     2.534356804347   110.00445889     0.02934592
 C     30  29  27     2.605257324122   130.91595325   358.77104959
 C     31  30  29     2.892875057716   112.18767191    62.96531504
 C     31  30  29     2.893097642572   112.00766497   296.86779283
 C     34  30  29     2.647861102052   127.96747253   359.81034226
 C     33  32  31     2.588457916601   121.26335246   180.01804351
 C     38  33  32     2.657499470807   123.38838812   179.99294446
 C     38  33  32     2.663733700501   120.55104512     0.00000000
 N     39  38  33     2.167992592603   176.85576584   180.11940313
 N     40  38  33     2.167361886290   179.76408526   187.75690708
 N     37  34  30     2.169179043189   178.18483857   354.34894356
 C     28  14  13     2.575489741177   124.90724905   180.77392522
 C     44  28  14     2.663896411402   125.08146146   179.93546641
 C     45  44  28     2.861509678291   121.56112187   180.78270662
 O     46  45  44     2.707178431065   104.51324334   180.08766631
 C     47  46  45     2.534460137746   110.01036384   359.91168896
 C     45  44  28     2.604888708713   131.08262527     0.77230622
 C     49  45  44     2.647632127481   127.78220653     0.07044909
 C     48  47  46     2.588429531019   121.22155735   180.02063134
 C     51  48  47     2.657428178414   123.35019842   180.00555358
 C     51  48  47     2.663815129820   120.51370397     0.00000000
 C     46  45  44     2.893264697708   112.03052208    63.14985544
 C     46  45  44     2.892918050282   112.15999881   297.08888276
 N     53  51  48     2.167429172102   179.83123417   189.13295348
 N     52  51  48     2.168094145446   176.91818508   180.56822369
 N     50  49  45     2.169351483294   178.00713216     0.07351942
 H      3   2   1     2.038115977002   122.67668712   184.00085003
 H      6   5   4     2.038226970395   122.63069508   184.05182519
 H     15   8   7     2.030687084636   124.72159314   179.92772813
 H     18  11  10     2.030449026841   125.19700480   181.89730497
 H     19   9   8     2.063560100791   108.65732583   292.34871636
 H     19   9   8     2.059945194980   109.00804873   174.82105795
 H     20   9   8     2.064416516116   107.43747431    65.01329200
 H     20   9   8     2.065817305547   107.86658334   309.28692798
 H     21  20   9     2.053107872536   111.51452267   302.26076009
 H     21  20   9     2.055458250234   109.15949289   183.04784624
 H     21  20   9     2.052762514701   110.99300116    64.10881369
 H     22  19   9     2.055523515708   110.94126853   298.83312320
 H     22  19   9     2.054507448626   110.05851960   178.92131287
 H     22  19   9     2.055708171572   110.63735467    59.11326478
 H     23  12  11     2.062183775859   107.82772943    60.56768439
 H     23  12  11     2.066228996142   107.51714254   305.19111988
 H     24  12  11     2.060794140276   108.33962276   170.28836448
 H     24  12  11     2.066040162979   107.50667299    54.63632077
 H     25  23  12     2.053046778666   111.54575498   303.31698123
 H     25  23  12     2.055709125786   109.19714919   183.99643403
 H     25  23  12     2.052414085799   111.03669413    65.13043288
 H     26  24  12     2.053259871482   111.43929751   299.27416913
 H     26  24  12     2.055546045697   109.30804564   179.94892069
 H     26  24  12     2.052888080495   110.99106102    60.95197521
 H     27  17  16     2.042186135432   115.50024320   359.27416238
 H     28  14  13     2.042006798014   115.96493744     0.56757220
 H     29  27  17     2.042690870425   119.27229485   359.51017767
 H     35  31  30     2.056208979999   110.13071961    53.55175632
 H     35  31  30     2.051993542969   110.48619421   293.03655032
 H     35  31  30     2.053442587511   109.19669170   172.82134460
 H     36  31  30     2.056256691474   110.11473147   306.21530692
 H     36  31  30     2.053399734652   109.23090716   186.93780230
 H     36  31  30     2.052063462125   110.46419628    66.68043354
 H     44  28  14     2.042608377964   118.98677932     0.07038502
 H     54  46  45     2.056216292631   110.11830425    53.99398533
 H     54  46  45     2.052097430461   110.47144815   293.53863635
 H     54  46  45     2.053417707289   109.23769942   173.28436273
 H     55  46  45     2.056185787326   110.14309608   306.56484067
 H     55  46  45     2.053445819556   109.20534588   187.27518920
 H     55  46  45     2.052059917967   110.47837868    67.06911836

---------------------
BASIS SET INFORMATION
---------------------
There are 5 groups of distinct atoms

 Group   1 Type C   : 7s4p1d contracted to 3s2p1d pattern {511/31/1}
 Group   2 Type S   : 10s7p1d contracted to 4s3p1d pattern {5311/511/1}
 Group   3 Type O   : 7s4p1d contracted to 3s2p1d pattern {511/31/1}
 Group   4 Type N   : 7s4p1d contracted to 3s2p1d pattern {511/31/1}
 Group   5 Type H   : 4s1p contracted to 2s1p pattern {31/1}

Atom   0C    basis set group =>   1
Atom   1C    basis set group =>   1
Atom   2C    basis set group =>   1
Atom   3C    basis set group =>   1
Atom   4C    basis set group =>   1
Atom   5C    basis set group =>   1
Atom   6C    basis set group =>   1
Atom   7C    basis set group =>   1
Atom   8C    basis set group =>   1
Atom   9C    basis set group =>   1
Atom  10C    basis set group =>   1
Atom  11C    basis set group =>   1
Atom  12S    basis set group =>   2
Atom  13C    basis set group =>   1
Atom  14C    basis set group =>   1
Atom  15S    basis set group =>   2
Atom  16C    basis set group =>   1
Atom  17C    basis set group =>   1
Atom  18C    basis set group =>   1
Atom  19C    basis set group =>   1
Atom  20C    basis set group =>   1
Atom  21C    basis set group =>   1
Atom  22C    basis set group =>   1
Atom  23C    basis set group =>   1
Atom  24C    basis set group =>   1
Atom  25C    basis set group =>   1
Atom  26C    basis set group =>   1
Atom  27C    basis set group =>   1
Atom  28C    basis set group =>   1
Atom  29C    basis set group =>   1
Atom  30C    basis set group =>   1
Atom  31O    basis set group =>   3
Atom  32C    basis set group =>   1
Atom  33C    basis set group =>   1
Atom  34C    basis set group =>   1
Atom  35C    basis set group =>   1
Atom  36C    basis set group =>   1
Atom  37C    basis set group =>   1
Atom  38C    basis set group =>   1
Atom  39C    basis set group =>   1
Atom  40N    basis set group =>   4
Atom  41N    basis set group =>   4
[...]
      py      :     0.029358
 70 H s       :     0.907559  s :     0.907559
      pz      :     0.025642  p :     0.064216
      px      :     0.014108
      py      :     0.024466
 71 H s       :     0.909202  s :     0.909202
      pz      :     0.013742  p :     0.064657
      px      :     0.035424
      py      :     0.015490
 72 H s       :     0.913216  s :     0.913216
      pz      :     0.013014  p :     0.065588
      px      :     0.040137
      py      :     0.012437
 73 H s       :     0.906582  s :     0.906582
      pz      :     0.029799  p :     0.065090
      px      :     0.013313
      py      :     0.021978
 74 H s       :     0.912922  s :     0.912922
      pz      :     0.012972  p :     0.065831
      px      :     0.020903
      py      :     0.031956
 75 H s       :     0.906850  s :     0.906850
      pz      :     0.028992  p :     0.065009
      px      :     0.016601
      py      :     0.019416
 76 H s       :     0.911958  s :     0.911958
      pz      :     0.028427  p :     0.064949
      px      :     0.013064
      py      :     0.023458
 77 H s       :     0.903539  s :     0.903539
      pz      :     0.029070  p :     0.064341
      px      :     0.018845
      py      :     0.016426
 78 H s       :     0.910393  s :     0.910393
      pz      :     0.014026  p :     0.065389
      px      :     0.038889
      py      :     0.012473
 79 H s       :     0.912228  s :     0.912228
      pz      :     0.027161  p :     0.064961
      px      :     0.017635
      py      :     0.020165
 80 H s       :     0.903169  s :     0.903169
      pz      :     0.030912  p :     0.064309
      px      :     0.012518
      py      :     0.020879
 81 H s       :     0.913007  s :     0.913007
      pz      :     0.013410  p :     0.065230
      px      :     0.021394
      py      :     0.030426
 82 H s       :     0.884593  s :     0.884593
      pz      :     0.012841  p :     0.072428
      px      :     0.012135
      py      :     0.047452
 83 H s       :     0.884474  s :     0.884474
      pz      :     0.013037  p :     0.071946
      px      :     0.011544
      py      :     0.047365
 84 H s       :     0.905310  s :     0.905310
      pz      :     0.016224  p :     0.068914
      px      :     0.011603
      py      :     0.041087
 85 H s       :     0.897707  s :     0.897707
      pz      :     0.027815  p :     0.065365
      px      :     0.012048
      py      :     0.025501
 86 H s       :     0.904432  s :     0.904432
      pz      :     0.013761  p :     0.065565
      px      :     0.022909
      py      :     0.028895
 87 H s       :     0.895715  s :     0.895715
      pz      :     0.011796  p :     0.065443
      px      :     0.038269
      py      :     0.015378
 88 H s       :     0.898765  s :     0.898765
      pz      :     0.035261  p :     0.065167
      px      :     0.013103
      py      :     0.016803
 89 H s       :     0.895190  s :     0.895190
      pz      :     0.011788  p :     0.065544
      px      :     0.038943
      py      :     0.014813
 90 H s       :     0.904950  s :     0.904950
      pz      :     0.012446  p :     0.065436
      px      :     0.021923
      py      :     0.031066
 91 H s       :     0.903807  s :     0.903807
      pz      :     0.016264  p :     0.068966
      px      :     0.011306
      py      :     0.041396
 92 H s       :     0.898793  s :     0.898793
      pz      :     0.035918  p :     0.065296
      px      :     0.015450
      py      :     0.013929
 93 H s       :     0.904869  s :     0.904869
      pz      :     0.012764  p :     0.065351
      px      :     0.021825
      py      :     0.030763
 94 H s       :     0.894273  s :     0.894273
      pz      :     0.020501  p :     0.065570
      px      :     0.030654
      py      :     0.014416
 95 H s       :     0.898118  s :     0.898118
      pz      :     0.018433  p :     0.065330
      px      :     0.017635
      py      :     0.029263
 96 H s       :     0.894947  s :     0.894947
      pz      :     0.021496  p :     0.065555
      px      :     0.029767
      py      :     0.014292
 97 H s       :     0.902954  s :     0.902954
      pz      :     0.012297  p :     0.065390
      px      :     0.024557
      py      :     0.028536


                      *****************************
                      * MAYER POPULATION ANALYSIS *
                      *****************************

  NA   - Mulliken gross atomic population
  ZA   - Total nuclear charge
  QA   - Mulliken gross atomic charge
  VA   - Mayer's total valence
  BVA  - Mayer's bonded valence
  FA   - Mayer's free valence

  ATOM       NA         ZA         QA         VA         BVA        FA
  0 C      5.9386     6.0000     0.0614     3.9024     3.9024     0.0000
  1 C      5.9799     6.0000     0.0201     3.8478     3.8478    -0.0000
  2 C      6.1085     6.0000    -0.1085     3.7486     3.7486    -0.0000
  3 C      5.9239     6.0000     0.0761     3.8830     3.8830     0.0000
  4 C      5.9922     6.0000     0.0078     3.8252     3.8252     0.0000
  5 C      6.1041     6.0000    -0.1041     3.7469     3.7469     0.0000
  6 C      6.0595     6.0000    -0.0595     3.7995     3.7995    -0.0000
  7 C      5.9737     6.0000     0.0263     3.9416     3.9416     0.0000
  8 C      6.1141     6.0000    -0.1141     3.8640     3.8640    -0.0000
  9 C      6.0629     6.0000    -0.0629     3.8197     3.8197     0.0000
 10 C      5.9554     6.0000     0.0446     3.9404     3.9404     0.0000
 11 C      6.1167     6.0000    -0.1167     3.8628     3.8628    -0.0000
 12 S     15.8296    16.0000     0.1704     2.4594     2.4594    -0.0000
 13 C      6.1005     6.0000    -0.1005     3.8445     3.8445    -0.0000
 14 C      6.0221     6.0000    -0.0221     3.8306     3.8306     0.0000
 15 S     15.8246    16.0000     0.1754     2.4579     2.4579    -0.0000
 16 C      6.0943     6.0000    -0.0943     3.8430     3.8430     0.0000
 17 C      6.0358     6.0000    -0.0358     3.8278     3.8278    -0.0000
 18 C      5.9546     6.0000     0.0454     4.0556     4.0556    -0.0000
 19 C      5.9323     6.0000     0.0677     4.0423     4.0423    -0.0000
 20 C      5.9729     6.0000     0.0271     4.0098     4.0098    -0.0000
 21 C      5.9732     6.0000     0.0268     4.0045     4.0045    -0.0000
 22 C      5.9470     6.0000     0.0530     4.0407     4.0407    -0.0000
 23 C      5.9339     6.0000     0.0661     4.0405     4.0405    -0.0000
 24 C      5.9814     6.0000     0.0186     4.0115     4.0115    -0.0000
 25 C      5.9907     6.0000     0.0093     4.0114     4.0114     0.0000
 26 C      5.9220     6.0000     0.0780     3.8162     3.8162     0.0000
 27 C      5.9248     6.0000     0.0752     3.8306     3.8306     0.0000
 28 C      6.0730     6.0000    -0.0730     3.8536     3.8536     0.0000
 29 C      5.9026     6.0000     0.0974     3.9375     3.9375    -0.0000
 30 C      6.0677     6.0000    -0.0677     4.1569     4.1569    -0.0000
 31 O      8.2653     8.0000    -0.2653     2.2462     2.2462    -0.0000
 32 C      5.6655     6.0000     0.3345     4.1090     4.1090    -0.0000
 33 C      6.1516     6.0000    -0.1516     3.9418     3.9418     0.0000
 34 C      5.8865     6.0000     0.1135     3.9001     3.9001    -0.0000
 35 C      5.8840     6.0000     0.1160     3.9025     3.9025    -0.0000
 36 C      6.1887     6.0000    -0.1887     4.0688     4.0688    -0.0000
 37 C      6.3950     6.0000    -0.3950     3.9387     3.9387    -0.0000
 38 C      6.1583     6.0000    -0.1583     4.2679     4.2679     0.0000
 39 C      6.1229     6.0000    -0.1229     4.2426     4.2426     0.0000
 40 N      6.8713     7.0000     0.1287     3.1313     3.1313    -0.0000
 41 N      6.8937     7.0000     0.1063     3.1402     3.1402     0.0000
 42 N      6.8597     7.0000     0.1403     3.1559     3.1559    -0.0000
 43 C      6.0755     6.0000    -0.0755     3.8531     3.8531     0.0000
 44 C      5.9023     6.0000     0.0977     3.9334     3.9334     0.0000
 45 C      6.0746     6.0000    -0.0746     4.1691     4.1691     0.0000
 46 O      8.2644     8.0000    -0.2644     2.2462     2.2462    -0.0000
 47 C      5.6663     6.0000     0.3337     4.1122     4.1122     0.0000
 48 C      6.1500     6.0000    -0.1500     3.9466     3.9466    -0.0000
 49 C      6.1962     6.0000    -0.1962     4.0777     4.0777    -0.0000
 50 C      6.3987     6.0000    -0.3987     3.9411     3.9411     0.0000
 51 C      6.1578     6.0000    -0.1578     4.2695     4.2695     0.0000
 52 C      6.1202     6.0000    -0.1202     4.2430     4.2430     0.0000
 53 C      5.8833     6.0000     0.1167     3.9020     3.9020     0.0000
 54 C      5.8896     6.0000     0.1104     3.9033     3.9033    -0.0000
 55 N      6.8921     7.0000     0.1079     3.1383     3.1383    -0.0000
 56 N      6.8683     7.0000     0.1317     3.1321     3.1321    -0.0000
 57 N      6.8496     7.0000     0.1504     3.1615     3.1615     0.0000
 58 H      1.0248     1.0000    -0.0248     0.9965     0.9965     0.0000
 59 H      1.0245     1.0000    -0.0245     0.9961     0.9961     0.0000
 60 H      1.0112     1.0000    -0.0112     0.9950     0.9950    -0.0000
 61 H      1.0083     1.0000    -0.0083     0.9989     0.9989    -0.0000
 62 H      1.0026     1.0000    -0.0026     0.9838     0.9838     0.0000
 63 H      0.9874     1.0000     0.0126     0.9876     0.9876    -0.0000
 64 H      0.9956     1.0000     0.0044     0.9828     0.9828    -0.0000
 65 H      0.9928     1.0000     0.0072     0.9833     0.9833     0.0000
 66 H      0.9863     1.0000     0.0137     0.9949     0.9949    -0.0000
 67 H      0.9824     1.0000     0.0176     0.9854     0.9854    -0.0000
 68 H      0.9826     1.0000     0.0174     1.0007     1.0007    -0.0000
 69 H      0.9858     1.0000     0.0142     0.9957     0.9957     0.0000
 70 H      0.9817     1.0000     0.0183     0.9844     0.9844    -0.0000
 71 H      0.9816     1.0000     0.0184     0.9952     0.9952    -0.0000
 72 H      0.9927     1.0000     0.0073     0.9880     0.9880     0.0000
 73 H      0.9916     1.0000     0.0084     0.9813     0.9813    -0.0000
 74 H      0.9933     1.0000     0.0067     0.9896     0.9896    -0.0000
 75 H      0.9924     1.0000     0.0076     0.9821     0.9821    -0.0000
 76 H      0.9839     1.0000     0.0161     0.9953     0.9953    -0.0000
 77 H      0.9805     1.0000     0.0195     0.9852     0.9852    -0.0000
 78 H      0.9808     1.0000     0.0192     0.9995     0.9995    -0.0000
 79 H      0.9837     1.0000     0.0163     0.9937     0.9937    -0.0000
 80 H      0.9769     1.0000     0.0231     0.9852     0.9852     0.0000
 81 H      0.9887     1.0000     0.0113     1.0021     1.0021     0.0000
 82 H      0.9836     1.0000     0.0164     1.0339     1.0339    -0.0000
 83 H      0.9759     1.0000     0.0241     1.0282     1.0282    -0.0000
 84 H      1.0157     1.0000    -0.0157     0.9923     0.9923     0.0000
 85 H      0.9679     1.0000     0.0321     0.9995     0.9995    -0.0000
 86 H      0.9858     1.0000     0.0142     1.0009     1.0009     0.0000
 87 H      0.9623     1.0000     0.0377     0.9992     0.9992     0.0000
 88 H      0.9705     1.0000     0.0295     0.9992     0.9992     0.0000
 89 H      0.9620     1.0000     0.0380     1.0004     1.0004     0.0000
 90 H      0.9859     1.0000     0.0141     0.9994     0.9994    -0.0000
 91 H      1.0084     1.0000    -0.0084     0.9975     0.9975    -0.0000
 92 H      0.9724     1.0000     0.0276     0.9994     0.9994     0.0000
 93 H      0.9854     1.0000     0.0146     0.9994     0.9994    -0.0000
 94 H      0.9594     1.0000     0.0406     0.9995     0.9995    -0.0000
 95 H      0.9688     1.0000     0.0312     0.9988     0.9988     0.0000
 96 H      0.9592     1.0000     0.0408     0.9991     0.9991    -0.0000
 97 H      0.9807     1.0000     0.0193     0.9998     0.9998     0.0000

  Mayer bond orders larger than 0.100000
B(  0-C ,  1-C ) :   1.3603 B(  0-C ,  5-C ) :   1.2672 B(  0-C ,  9-C ) :   1.0859 
B(  1-C ,  2-C ) :   1.4060 B(  1-C , 11-C ) :   0.9212 B(  2-C ,  3-C ) :   1.2729 
B(  2-C , 58-H ) :   0.9917 B(  3-C ,  4-C ) :   1.3469 B(  3-C ,  6-C ) :   1.0799 
B(  4-C ,  5-C ) :   1.4160 B(  4-C ,  8-C ) :   0.9103 B(  5-C , 59-H ) :   0.9906 
B(  6-C ,  7-C ) :   1.4592 B(  6-C , 12-S ) :   1.1132 B(  7-C ,  8-C ) :   0.9393 
B(  7-C , 14-C ) :   1.3276 B(  8-C , 18-C ) :   1.0305 B(  8-C , 19-C ) :   1.0048 
B(  9-C , 10-C ) :   1.4618 B(  9-C , 15-S ) :   1.1174 B( 10-C , 11-C ) :   0.9393 
B( 10-C , 17-C ) :   1.3338 B( 11-C , 22-C ) :   1.0016 B( 11-C , 23-C ) :   1.0099 
B( 12-S , 13-C ) :   1.0966 B( 13-C , 14-C ) :   1.3793 B( 13-C , 27-C ) :   1.1780 
B( 14-C , 60-H ) :   0.9992 B( 15-S , 16-C ) :   1.0927 B( 16-C , 17-C ) :   1.3708 
B( 16-C , 26-C ) :   1.1910 B( 17-C , 61-H ) :   0.9894 B( 18-C , 21-C ) :   1.1146 
B( 18-C , 62-H ) :   0.9323 B( 18-C , 63-H ) :   0.9307 B( 19-C , 20-C ) :   1.1182 
B( 19-C , 64-H ) :   0.9349 B( 19-C , 65-H ) :   0.9349 B( 20-C , 66-H ) :   0.9591 
B( 20-C , 67-H ) :   0.9568 B( 20-C , 68-H ) :   0.9598 B( 21-C , 69-H ) :   0.9580 
B( 21-C , 70-H ) :   0.9617 B( 21-C , 71-H ) :   0.9636 B( 22-C , 24-C ) :   1.1188 
B( 22-C , 72-H ) :   0.9353 B( 22-C , 73-H ) :   0.9345 B( 23-C , 25-C ) :   1.1152 
B( 23-C , 74-H ) :   0.9310 B( 23-C , 75-H ) :   0.9353 B( 24-C , 76-H ) :   0.9607 
B( 24-C , 77-H ) :   0.9558 B( 24-C , 78-H ) :   0.9580 B( 25-C , 79-H ) :   0.9604 
B( 25-C , 80-H ) :   0.9575 B( 25-C , 81-H ) :   0.9592 B( 26-C , 28-C ) :   1.5535 
B( 26-C , 82-H ) :   0.9494 B( 27-C , 43-C ) :   1.5716 B( 27-C , 83-H ) :   0.9481 
B( 28-C , 29-C ) :   1.2303 B( 28-C , 84-H ) :   0.9507 B( 29-C , 30-C ) :   0.9572 
B( 29-C , 33-C ) :   1.5425 B( 30-C , 31-O ) :   0.8936 B( 30-C , 34-C ) :   1.0484 
B( 30-C , 35-C ) :   1.0493 B( 31-O , 32-C ) :   1.2290 B( 32-C , 33-C ) :   1.0617 
B( 32-C , 37-C ) :   1.5515 B( 33-C , 36-C ) :   1.1694 B( 34-C , 85-H ) :   0.9515 
B( 34-C , 86-H ) :   0.9533 B( 34-C , 87-H ) :   0.9538 B( 35-C , 88-H ) :   0.9524 
B( 35-C , 89-H ) :   0.9537 B( 35-C , 90-H ) :   0.9530 B( 36-C , 42-N ) :   2.9170 
B( 37-C , 38-C ) :   1.1934 B( 37-C , 39-C ) :   1.1186 B( 38-C , 40-N ) :   2.9766 
B( 39-C , 41-N ) :   3.0087 B( 43-C , 44-C ) :   1.2166 B( 43-C , 91-H ) :   0.9512 
B( 44-C , 45-C ) :   0.9568 B( 44-C , 48-C ) :   1.5567 B( 45-C , 46-O ) :   0.8913 
B( 45-C , 53-C ) :   1.0506 B( 45-C , 54-C ) :   1.0540 B( 46-O , 47-C ) :   1.2304 
B( 47-C , 48-C ) :   1.0599 B( 47-C , 50-C ) :   1.5556 B( 48-C , 49-C ) :   1.1653 
B( 49-C , 57-N ) :   2.9315 B( 50-C , 51-C ) :   1.1929 B( 50-C , 52-C ) :   1.1196 
B( 51-C , 56-N ) :   2.9784 B( 52-C , 55-N ) :   3.0074 B( 53-C , 92-H ) :   0.9505 
B( 53-C , 93-H ) :   0.9537 B( 53-C , 94-H ) :   0.9531 B( 54-C , 95-H ) :   0.9498 
B( 54-C , 96-H ) :   0.9537 B( 54-C , 97-H ) :   0.9516 

-------
TIMINGS
-------

Total SCF time: 0 days 0 hours 20 min 44 sec 

Total time                  ....    1244.728 sec
Sum of individual times     ....    1242.776 sec  ( 99.8%)

Fock matrix formation       ....    1203.439 sec  ( 96.7%)
  Split-RI-J                ....     125.860 sec  ( 10.5% of F)
  Chain of spheres X        ....    1050.259 sec  ( 87.3% of F)
  COS-X 1 center corr.      ....       0.000 sec  (  0.0% of F)
  XC integration            ....      26.697 sec  (  2.2% of F)
    Basis function eval.    ....      10.308 sec  ( 38.6% of XC)
    Density eval.           ....       7.135 sec  ( 26.7% of XC)
    XC-Functional eval.     ....       1.153 sec  (  4.3% of XC)
    XC-Potential eval.      ....       7.127 sec  ( 26.7% of XC)
Diagonalization             ....       0.279 sec  (  0.0%)
Density matrix formation    ....       0.888 sec  (  0.1%)
Population analysis         ....       0.168 sec  (  0.0%)
Initial guess               ....       0.428 sec  (  0.0%)
Orbital Transformation      ....       0.000 sec  (  0.0%)
Orbital Orthonormalization  ....       0.341 sec  (  0.0%)
DIIS solution               ....       0.079 sec  (  0.0%)
SOSCF solution              ....       1.859 sec  (  0.1%)
Grid generation             ....      35.636 sec  (  2.9%)


-------------------------------------------------------------------------------
                          DFT DISPERSION CORRECTION                            
                                                                               
                              DFTD3 V3.1  Rev 1                                
                          USING Becke-Johnson damping                          
-------------------------------------------------------------------------------
Gaussians B3LYP functional is recognized, using regular B3LYP params
Active option DFTDOPT                   ...         4   

molecular C6(AA) [au] = 126565.123618 


            DFT-D V3
 parameters
 s6 scaling factor         :     1.0000 
 a1 scaling factor         :     0.3981 
 s8 scaling factor         :     1.9889 
 a2 scaling factor         :     4.4211 
 ad hoc parameters k1-k3   :    16.0000     1.3333    -4.0000 

 Edisp/kcal,au: -159.152251308266  -0.253625229434 
 E6   /kcal   : -74.311442156 
 E8   /kcal   : -84.840809152 
 % E8         :  53.307954148 

-------------------------   ----------------
Dispersion correction           -0.253625229
-------------------------   ----------------


-------------------------   --------------------
FINAL SINGLE POINT ENERGY     -3126.729739581407
-------------------------   --------------------

                                *** OPTIMIZATION RUN DONE ***

                            ***************************************
                            *     ORCA property calculations      *
                            ***************************************

                                    ---------------------
                                    Active property flags
                                    ---------------------
   (+) Dipole Moment


------------------------------------------------------------------------------
                       ORCA ELECTRIC PROPERTIES CALCULATION
------------------------------------------------------------------------------

Dipole Moment Calculation                       ... on
Quadrupole Moment Calculation                   ... off
Polarizability Calculation                      ... off
GBWName                                         ... IDTCF.gbw
Electron density file                           ... IDTCF.scfp
The origin for moment calculation is the CENTER OF MASS  = ( 3.000488,  0.780042  0.127275)

-------------
DIPOLE MOMENT
-------------
                                X             Y             Z
Electronic contribution:     -5.17243       2.73958       3.64706
Nuclear contribution   :      5.30127      -3.00059      -4.40022
                        -----------------------------------------
Total Dipole Moment    :      0.12885      -0.26101      -0.75316
                        -----------------------------------------
Magnitude (a.u.)       :      0.80745
Magnitude (Debye)      :      2.05238



--------------------
Rotational spectrum 
--------------------
 
Rotational constants in cm-1:     0.004318     0.000325     0.000312 
Rotational constants in MHz :   129.463222     9.738264     9.360711 

 Dipole components along the rotational axes: 
x,y,z [a.u.] :    -0.004933    -0.366572    -0.719429 
x,y,z [Debye]:    -0.012538    -0.931752    -1.828642 

 

Timings for individual modules:

Sum of individual times         ...    30646.493 sec (= 510.775 min)
GTO integral calculation        ...       23.699 sec (=   0.395 min)   0.1 %
SCF iterations                  ...    25472.235 sec (= 424.537 min)  83.1 %
SCF Gradient evaluation         ...     5130.919 sec (=  85.515 min)  16.7 %
Geometry relaxation             ...       19.639 sec (=   0.327 min)   0.1 %
                             ****ORCA TERMINATED NORMALLY****
TOTAL RUN TIME: 0 days 8 hours 31 minutes 5 seconds 400 msec
