
                                 *****************
                                 * O   R   C   A *
                                 *****************

           --- An Ab Initio, DFT and Semiempirical electronic structure package ---

                  #######################################################
                  #                        -***-                        #
                  #          Department of theory and spectroscopy      #
                  #               Directorship: Frank Neese             #
                  #        Max Planck Institute fuer Kohlenforschung    #
                  #                Kaiser Wilhelm Platz 1               #
                  #                 D-45470 Muelheim/Ruhr               #
                  #                      Germany                        #
                  #                                                     #
                  #                  All rights reserved                #
                  #                        -***-                        #
                  #######################################################


                         Program Version 4.2.0 -  RELEASE  -


 With contributions from (in alphabetic order):
   Daniel Aravena         : Magnetic Suceptibility
   Michael Atanasov       : Ab Initio Ligand Field Theory (pilot matlab implementation)
   Alexander A. Auer      : GIAO ZORA, VPT2
   Ute Becker             : Parallelization
   Giovanni Bistoni       : ED, misc. LED, open-shell LED, HFLED
   Martin Brehm           : Molecular dynamics
   Dmytro Bykov           : SCF Hessian
   Vijay G. Chilkuri      : MRCI spin determinant printing, contributions to CSF-ICE
   Dipayan Datta          : RHF DLPNO-CCSD density
   Achintya Kumar Dutta   : EOM-CC, STEOM-CC
   Dmitry Ganyushin       : Spin-Orbit,Spin-Spin,Magnetic field MRCI
   Miquel Garcia          : C-PCM Hessian, Gaussian charge scheme
   Yang Guo               : DLPNO-NEVPT2, CIM, IAO-localization
   Andreas Hansen         : Spin unrestricted coupled pair/coupled cluster methods
   Benjamin Helmich-Paris : CASSCF linear response (MC-RPA)
   Lee Huntington         : MR-EOM, pCC
   Robert Izsak           : Overlap fitted RIJCOSX, COSX-SCS-MP3, EOM
   Christian Kollmar      : KDIIS, OOCD, Brueckner-CCSD(T), CCSD density
   Simone Kossmann        : Meta GGA functionals, TD-DFT gradient, OOMP2, MP2 Hessian
   Martin Krupicka        : AUTO-CI
   Lucas Lang             : DCDCAS
   Dagmar Lenk            : GEPOL surface, SMD
   Dimitrios Liakos       : Extrapolation schemes; Compound Job, initial MDCI parallelization
   Dimitrios Manganas     : Further ROCIS development; embedding schemes
   Dimitrios Pantazis     : SARC Basis sets
   Taras Petrenko         : DFT Hessian,TD-DFT gradient, ASA, ECA, R-Raman, ABS, FL, XAS/XES, NRVS
   Peter Pinski           : DLPNO-MP2, DLPNO-MP2 Gradient
   Christoph Reimann      : Effective Core Potentials
   Marius Retegan         : Local ZFS, SOC
   Christoph Riplinger    : Optimizer, TS searches, QM/MM, DLPNO-CCSD(T), (RO)-DLPNO pert. Triples
   Tobias Risthaus        : Range-separated hybrids, TD-DFT gradient, RPA, STAB
   Michael Roemelt        : Original ROCIS implementation
   Masaaki Saitow         : Open-shell DLPNO-CCSD energy and density
   Barbara Sandhoefer     : DKH picture change effects
   Avijit Sen             : IP-ROCIS
   Kantharuban Sivalingam : CASSCF convergence, NEVPT2, FIC-MRCI
   Bernardo de Souza      : ESD, SOC TD-DFT
   Georgi Stoychev        : AutoAux, RI-MP2 NMR
   Willem Van den Heuvel  : Paramagnetic NMR
   Boris Wezisla          : Elementary symmetry handling
   Frank Wennmohs         : Technical directorship


 We gratefully acknowledge several colleagues who have allowed us to
 interface, adapt or use parts of their codes:
   Stefan Grimme, W. Hujo, H. Kruse,             : VdW corrections, initial TS optimization,
                  C. Bannwarth                     DFT functionals, gCP, sTDA/sTD-DF
   Ed Valeev, F. Pavosevic, A. Kumar             : LibInt (2-el integral package), F12 methods
   Garnet Chan, S. Sharma, J. Yang, R. Olivares  : DMRG
   Ulf Ekstrom                                   : XCFun DFT Library
   Mihaly Kallay                                 : mrcc  (arbitrary order and MRCC methods)
   Andreas Klamt, Michael Diedenhofen            : otool_cosmo (COSMO solvation model)
   Jiri Pittner, Ondrej Demel                    : Mk-CCSD
   Frank Weinhold                                : gennbo (NPA and NBO analysis)
   Christopher J. Cramer and Donald G. Truhlar   : smd solvation model
   Lars Goerigk                                  : TD-DFT with DH, B97 family of functionals
   V. Asgeirsson, H. Jonsson                     : NEB implementation
   FAccTs GmbH                                   : IRC, NEB, NEB-TS, Multilevel, MM, QM/MM, CI optimization
   S Lehtola, MJT Oliveira, MAL Marques          : LibXC Library


 Your calculation uses the libint2 library for the computation of 2-el integrals
 For citations please refer to: http://libint.valeyev.net

 Your ORCA version has been built with support for libXC version: 4.2.3
 For citations please refer to: https://tddft.org/programs/libxc/

 This ORCA versions uses:
   CBLAS   interface :  Fast vector & matrix operations
   LAPACKE interface :  Fast linear algebra routines
   SCALAPACK package :  Parallel linear algebra routines


Your calculation utilizes the atom-pairwise dispersion correction
with the Becke-Johnson damping scheme (D3BJ)
Cite in your paper:
S.Grimme, S.Ehrlich, L.Goerigk, J Comput Chem, (2011), 32, 1456–1465 
S.Grimme, J.Antony, S.Ehrlich and H.Krieg, J.Chem.Phys., 132, (2010), 154104 
   

----- Orbital basis set information -----
Your calculation utilizes the basis: def2-SVP
   F. Weigend and R. Ahlrichs, Phys. Chem. Chem. Phys. 7, 3297 (2005).

----- AuxJ basis set information -----
Your calculation utilizes the auxiliary basis: def2/J
   F. Weigend, Phys. Chem. Chem. Phys. 8, 1057 (2006).

================================================================================
                                        WARNINGS
                       Please study these warnings very carefully!
================================================================================


WARNING: Geometry Optimization
  ===> : Switching off AutoStart
         For restart on a previous wavefunction, please use MOREAD

INFO   : the flag for use of LIBINT has been found!

================================================================================
                                       INPUT FILE
================================================================================
NAME = ITCC.inp
|  1> # ORCA input file
|  2> # SCF done       -221.069934560228          0.000296979383
|  3> ! B3LYP/G D3BJ Opt RIJCOSX def2-SVP def2/J
|  4> * xyz 0 1
|  5>    C        1.43434        -1.07383         1.64669
|  6>    O        1.59572        -2.26646         1.80478
|  7>    C        0.32677        -0.26707         2.14861
|  8>    C        0.45230         1.06205         1.77261
|  9>    C        1.66193         1.21266         0.98819
| 10>    C        2.07102         2.39921         0.43713
| 11>    C        1.32977         3.58732         0.61449
| 12>    N        0.74855         4.56845         0.74271
| 13>    C        3.21579         2.62095        -0.35416
| 14>    N        4.11903         2.89490        -1.00935
| 15>    C        2.29190        -0.10087         0.91413
| 16>    C        3.48481        -0.31727         0.28059
| 17>    C        4.26251        -1.47573         0.09619
| 18>    C        4.08509        -2.80148         0.46104
| 19>    C        5.14491        -3.59769         0.05397
| 20>    C        6.16316        -2.90418        -0.63487
| 21>    S        5.78649        -1.23655        -0.77654
| 22>    C        7.21560        -3.73730        -1.00318
| 23>    C        8.51435        -3.62004        -1.75430
| 24>    C        9.52179        -2.69078        -1.10593
| 25>    C        9.44540        -2.37758         0.24338
| 26>    C       10.38673        -1.54798         0.82482
| 27>    C       11.42939        -1.01756         0.07800
| 28>    C       12.47162        -0.14650         0.71732
| 29>    C       13.65179        -0.99169         1.20097
| 30>    C       11.51190        -1.35011        -1.26827
| 31>    C       10.57272        -2.17602        -1.85473
| 32>    C        8.16667        -3.17752        -3.16618
| 33>    C        8.03697        -4.08228        -4.20913
| 34>    C        7.66327        -3.64623        -5.46809
| 35>    C        7.40254        -2.30544        -5.71339
| 36>    C        6.95113        -1.84209        -7.06822
| 37>    C        5.42313        -1.83429        -7.14705
| 38>    C        7.51948        -1.40668        -4.66000
| 39>    C        7.89510        -1.83485        -3.40218
| 40>    C        9.02228        -5.04863        -1.66685
| 41>    C        8.09237        -5.87743        -0.99515
| 42>    C        6.99322        -5.04726        -0.61148
| 43>    S        5.49882        -5.29499         0.22433
| 44>    C        8.32735        -7.23471        -0.79179
| 45>    C        9.51882        -7.74250        -1.25345
| 46>    C       10.02220        -9.17403        -1.17784
| 47>    C       10.30861        -9.67974         0.22539
| 48>    C       10.49689       -11.04209         0.42675
| 49>    C       10.85859       -11.52262         1.66973
| 50>    C       11.05698       -10.65755         2.73860
| 51>    C       11.41855       -11.19175         4.09311
| 52>    C       10.15676       -11.56195         4.87551
| 53>    C       10.87107        -9.29809         2.52894
| 54>    C       10.50698        -8.80996         1.28685
| 55>    C        9.04868       -10.06597        -1.92291
| 56>    C        9.22525       -10.35699        -3.26788
| 57>    C        8.31130       -11.14793        -3.93982
| 58>    C        7.19729       -11.66094        -3.28990
| 59>    C        6.18628       -12.48631        -4.03211
| 60>    C        5.10962       -11.58865        -4.64523
| 61>    C        7.01744       -11.35371        -1.94709
| 62>    C        7.92923       -10.56690        -1.27022
| 63>    C       11.36211        -9.03370        -1.84459
| 64>    C       11.58531        -7.72482        -2.23659
| 65>    C       10.45696        -6.90906        -1.91015
| 66>    C       10.21695        -5.55449        -2.12319
| 67>    S       13.15622        -7.44966        -2.90925
| 68>    C       13.55203        -9.12042        -2.62718
| 69>    C       12.48168        -9.83089        -2.05497
| 70>    S       12.90755       -11.46530        -1.74114
| 71>    C       14.54317       -11.17392        -2.32720
| 72>    C       14.69951        -9.88632        -2.80558
| 73>    C       15.52456       -12.19353        -2.33425
| 74>    C       15.59571       -13.30566        -1.55692
| 75>    C       14.90456       -13.68856        -0.33753
| 76>    C       14.43386       -12.87330         0.65807
| 77>    C       13.86330       -13.39482         1.83536
| 78>    N       13.38069       -13.79910         2.79544
| 79>    C       14.56035       -11.46904         0.67542
| 80>    N       14.70225       -10.33381         0.76902
| 81>    C       15.07086       -15.12422        -0.20847
| 82>    C       15.98885       -15.55951        -1.15760
| 83>    C       16.43903       -14.45866        -2.00380
| 84>    O       17.26152       -14.45380        -2.89008
| 85>    S       -1.07716        -0.55420         3.07863
| 86>    C       -1.49576         1.11499         2.96280
| 87>    C       -0.60710         1.86082         2.24665
| 88>    S       16.30711       -17.23427        -1.03049
| 89>    C       15.20436       -17.34751         0.29022
| 90>    C       14.62433       -16.16134         0.63155
| 91>    H        3.93986         0.56021        -0.16480
| 92>    H        3.22211        -3.14916         0.99785
| 93>    H        8.64450        -2.77924         0.84738
| 94>    H       10.30575        -1.30651         1.87506
| 95>    H       12.03885         0.38698         1.56580
| 96>    H       12.82947         0.59123        -0.00372
| 97>    H       13.31748        -1.72621         1.93027
| 98>    H       14.40698        -0.36081         1.66380
| 99>    H       14.10526        -1.52177         0.36642
|100>    H       12.31846        -0.95169        -1.86710
|101>    H       10.64603        -2.40971        -2.90712
|102>    H        8.22918        -5.13237        -4.04307
|103>    H        7.57324        -4.36324        -6.27183
|104>    H        7.34840        -2.50562        -7.83890
|105>    H        7.32522        -0.83408        -7.25777
|106>    H        5.03031        -2.83356        -6.97216
|107>    H        5.09424        -1.49797        -8.12749
|108>    H        5.00921        -1.16772        -6.39389
|109>    H        7.31492        -0.35898        -4.82580
|110>    H        7.98603        -1.12083        -2.59641
|111>    H        7.60242        -7.85036        -0.28260
|112>    H       10.35431       -11.72956        -0.39548
|113>    H       10.99966       -12.58420         1.81282
|114>    H       11.98120       -10.43948         4.64914
|115>    H       12.04515       -12.07866         3.98216
|116>    H        9.51992       -10.68917         5.00522
|117>    H       10.41975       -11.95016         5.85642
|118>    H        9.59161       -12.32251         4.34158
|119>    H       11.02364        -8.60728         3.34574
|120>    H       10.38173        -7.74625         1.14355
|121>    H       10.08412        -9.96862        -3.79640
|122>    H        8.46974       -11.37252        -4.98508
|123>    H        5.71603       -13.19718        -3.34980
|124>    H        6.67974       -13.04999        -4.82646
|125>    H        4.59726       -11.02706        -3.86729
|126>    H        4.37706       -12.18601        -5.18288
|127>    H        5.55750       -10.88038        -5.33876
|128>    H        6.15524       -11.74056        -1.42279
|129>    H        7.78144       -10.35412        -0.22144
|130>    H       10.94436        -4.93567        -2.62523
|131>    H       15.62506        -9.52012        -3.21067
|132>    H       16.28895       -12.11241        -3.10139
|133>    H       -2.39297         1.45760         3.44011
|134>    H       -0.71484         2.91576         2.07694
|135>    H       15.04816       -18.30235         0.75302
|136>    H       13.91555       -16.04882         1.43079
|137> *
|138> 
|139>                          ****END OF INPUT****
================================================================================

                       *****************************
                       * Geometry Optimization Run *
                       *****************************

Geometry optimization settings:
Update method            Update   .... BFGS
Choice of coordinates    CoordSys .... Z-matrix Internals
Initial Hessian          InHess   .... Almoef's Model

Convergence Tolerances:
Energy Change            TolE     ....  5.0000e-06 Eh
Max. Gradient            TolMAXG  ....  3.0000e-04 Eh/bohr
RMS Gradient             TolRMSG  ....  1.0000e-04 Eh/bohr
Max. Displacement        TolMAXD  ....  4.0000e-03 bohr
RMS Displacement         TolRMSD  ....  2.0000e-03 bohr
Strict Convergence                ....  False
------------------------------------------------------------------------------
                        ORCA OPTIMIZATION COORDINATE SETUP
------------------------------------------------------------------------------

The optimization will be done in new redundant internal coordinates
Making redundant internal coordinates   ...  (new redundants) done
Evaluating the initial hessian          ...  (Almloef) done
Evaluating the coordinates              ...  done
Calculating the B-matrix                .... done
Calculating the G-matrix                .... done
Diagonalizing the G-matrix              .... done
Small eigenvalue found = 3.804e-04
Small eigenvalue found = 6.653e-04
Small eigenvalue found = 1.023e-03
Small eigenvalue found = 1.224e-03
Small eigenvalue found = 1.335e-03
Small eigenvalue found = 1.749e-03
Small eigenvalue found = 1.995e-03
Small eigenvalue found = 2.544e-03
Small eigenvalue found = 2.851e-03
Small eigenvalue found = 3.370e-03
Small eigenvalue found = 4.597e-03
Small eigenvalue found = 4.806e-03
Small eigenvalue found = 5.946e-03
Small eigenvalue found = 8.323e-03
Small eigenvalue found = 9.465e-03
Small eigenvalue found = 1.169e-02
Small eigenvalue found = 1.498e-02
Small eigenvalue found = 1.556e-02
Small eigenvalue found = 1.689e-02
Small eigenvalue found = 1.846e-02
Small eigenvalue found = 2.171e-02
Small eigenvalue found = 2.339e-02
Small eigenvalue found = 2.398e-02
Small eigenvalue found = 2.539e-02
Small eigenvalue found = 2.951e-02
The first mode is                       ....  392
The number of degrees of freedom        ....  390

    -----------------------------------------------------------------
                    Redundant Internal Coordinates


    -----------------------------------------------------------------
         Definition                    Initial Value    Approx d2E/dq
    -----------------------------------------------------------------
      1. B(O   1,C   0)                  1.2138         1.068885   
      2. B(C   2,C   0)                  1.4593         0.484404   
      3. B(C   3,C   2)                  1.3870         0.631783   
      4. B(C   4,C   3)                  1.4496         0.502026   
      5. B(C   5,C   4)                  1.3707         0.670610   
      6. B(C   6,C   5)                  1.4116         0.577211   
      7. B(N   7,C   6)                  1.1476         1.363602   
      8. B(C   8,C   5)                  1.4092         0.582274   
      9. B(N   9,C   8)                  1.1490         1.356440   
     10. B(C  10,C   0)                  1.4895         0.433453   
     11. B(C  10,C   4)                  1.4587         0.485496   
     12. B(C  11,C  10)                  1.3679         0.677560   
     13. B(C  12,C  11)                  1.4074         0.586051   
     14. B(C  13,C  12)                  1.3864         0.633029   
     15. B(C  14,C  13)                  1.3867         0.632469   
     16. B(C  15,C  14)                  1.4115         0.577379   
     17. B(S  16,C  15)                  1.7155         0.509556   
     18. B(S  16,C  12)                  1.7724         0.413449   
     19. B(C  17,C  15)                  1.3919         0.620462   
     20. B(C  18,C  17)                  1.5049         0.409680   
     21. B(C  19,C  18)                  1.5162         0.393011   
     22. B(C  20,C  19)                  1.3873         0.631053   
     23. B(C  21,C  20)                  1.3829         0.641309   
     24. B(C  22,C  21)                  1.3879         0.629669   
     25. B(C  23,C  22)                  1.5012         0.415206   
     26. B(C  24,C  23)                  1.5301         0.373501   
     27. B(C  25,C  22)                  1.3892         0.626665   
     28. B(C  26,C  25)                  1.3813         0.644975   
     29. B(C  26,C  19)                  1.3893         0.626423   
     30. B(C  27,C  18)                  1.5199         0.387689   
     31. B(C  28,C  27)                  1.3868         0.632232   
     32. B(C  29,C  28)                  1.3838         0.639301   
     33. B(C  30,C  29)                  1.3878         0.629966   
     34. B(C  31,C  30)                  1.5013         0.415049   
     35. B(C  32,C  31)                  1.5301         0.373503   
     36. B(C  33,C  30)                  1.3896         0.625643   
     37. B(C  34,C  33)                  1.3808         0.646340   
     38. B(C  34,C  27)                  1.3900         0.624706   
     39. B(C  35,C  18)                  1.5187         0.389381   
     40. B(C  36,C  35)                  1.4152         0.569529   
     41. B(C  37,C  36)                  1.4299         0.539679   
     42. B(C  37,C  17)                  1.3852         0.635829   
     43. B(S  38,C  37)                  1.7301         0.482980   
     44. B(S  38,C  14)                  1.7422         0.462026   
     45. B(C  39,C  36)                  1.3924         0.619310   
     46. B(C  40,C  39)                  1.3750         0.660230   
     47. B(C  41,C  40)                  1.5193         0.388498   
     48. B(C  42,C  41)                  1.5188         0.389231   
     49. B(C  43,C  42)                  1.3900         0.624885   
     50. B(C  44,C  43)                  1.3808         0.646165   
     51. B(C  45,C  44)                  1.3893         0.626378   
     52. B(C  46,C  45)                  1.5003         0.416692   
     53. B(C  47,C  46)                  1.5301         0.373390   
     54. B(C  48,C  45)                  1.3880         0.629314   
     55. B(C  49,C  48)                  1.3833         0.640280   
     56. B(C  49,C  42)                  1.3866         0.632728   
     57. B(C  50,C  41)                  1.5161         0.393209   
     58. B(C  51,C  50)                  1.3874         0.630847   
     59. B(C  52,C  51)                  1.3829         0.641323   
     60. B(C  53,C  52)                  1.3880         0.629363   
     61. B(C  54,C  53)                  1.5014         0.414935   
     62. B(C  55,C  54)                  1.5300         0.373572   
     63. B(C  56,C  53)                  1.3892         0.626637   
     64. B(C  57,C  56)                  1.3815         0.644578   
     65. B(C  57,C  50)                  1.3893         0.626448   
     66. B(C  58,C  41)                  1.5032         0.412227   
     67. B(C  59,C  58)                  1.3844         0.637711   
     68. B(C  60,C  59)                  1.4301         0.539204   
     69. B(C  60,C  40)                  1.4163         0.567198   
     70. B(C  61,C  60)                  1.3921         0.620070   
     71. B(C  61,C  35)                  1.3753         0.659529   
     72. B(S  62,C  59)                  1.7309         0.481565   
     73. B(C  63,S  62)                  1.7400         0.465664   
     74. B(C  64,C  63)                  1.4064         0.588358   
     75. B(C  64,C  58)                  1.3904         0.623882   
     76. B(S  65,C  64)                  1.7179         0.505099   
     77. B(C  66,S  65)                  1.7617         0.429999   
     78. B(C  67,C  66)                  1.3825         0.642338   
     79. B(C  67,C  63)                  1.3911         0.622293   
     80. B(C  68,C  66)                  1.4152         0.569560   
     81. B(C  69,C  68)                  1.3587         0.700864   
     82. B(C  70,C  69)                  1.4530         0.495706   
     83. B(C  71,C  70)                  1.3702         0.671956   
     84. B(C  72,C  71)                  1.4084         0.584003   
     85. B(N  73,C  72)                  1.1481         1.360909   
     86. B(C  74,C  71)                  1.4101         0.580426   
     87. B(N  75,C  74)                  1.1479         1.361921   
     88. B(C  76,C  70)                  1.4510         0.499344   
     89. B(C  77,C  76)                  1.3903         0.624029   
     90. B(C  78,C  77)                  1.4597         0.483739   
     91. B(C  78,C  69)                  1.4968         0.422090   
     92. B(O  79,C  78)                  1.2091         1.087515   
     93. B(S  80,C   2)                  1.7083         0.523151   
     94. B(C  81,S  80)                  1.7248         0.492492   
     95. B(C  82,C  81)                  1.3634         0.688942   
     96. B(C  82,C   3)                  1.4089         0.582829   
     97. B(S  83,C  77)                  1.7095         0.520981   
     98. B(C  84,S  83)                  1.7243         0.493375   
     99. B(C  85,C  84)                  1.3638         0.687931   
    100. B(C  85,C  76)                  1.4074         0.586211   
    101. B(H  86,C  11)                  1.0842         0.367902   
    102. B(H  87,C  13)                  1.0741         0.381701   
    103. B(H  88,C  20)                  1.0805         0.372821   
    104. B(H  89,C  21)                  1.0807         0.372642   
    105. B(H  90,C  23)                  1.0917         0.357858   
    106. B(H  91,C  23)                  1.0919         0.357622   
    107. B(H  92,C  24)                  1.0877         0.363113   
    108. B(H  93,C  24)                  1.0874         0.363498   
    109. B(H  94,C  24)                  1.0877         0.363154   
    110. B(H  95,C  25)                  1.0807         0.372639   
    111. B(H  96,C  26)                  1.0805         0.372870   
    112. B(H  97,C  28)                  1.0804         0.373061   
    113. B(H  98,C  29)                  1.0808         0.372429   
    114. B(H  99,C  31)                  1.0918         0.357717   
    115. B(H 100,C  31)                  1.0918         0.357769   
    116. B(H 101,C  32)                  1.0879         0.362945   
    117. B(H 102,C  32)                  1.0874         0.363492   
    118. B(H 103,C  32)                  1.0876         0.363276   
    119. B(H 104,C  33)                  1.0803         0.373188   
    120. B(H 105,C  34)                  1.0804         0.372967   
    121. B(H 106,C  39)                  1.0788         0.375217   
    122. B(H 107,C  43)                  1.0812         0.371923   
    123. B(H 108,C  44)                  1.0804         0.372986   
    124. B(H 109,C  46)                  1.0916         0.357951   
    125. B(H 110,C  46)                  1.0916         0.358016   
    126. B(H 110,N  73)                  2.4803         0.001952   
    127. B(H 111,C  47)                  1.0882         0.362516   
    128. B(H 112,C  47)                  1.0872         0.363792   
    129. B(H 113,C  47)                  1.0876         0.363256   
    130. B(H 114,C  48)                  1.0806         0.372776   
    131. B(H 115,C  49)                  1.0806         0.372749   
    132. B(H 116,C  51)                  1.0807         0.372672   
    133. B(H 117,C  52)                  1.0808         0.372489   
    134. B(H 118,C  54)                  1.0918         0.357732   
    135. B(H 119,C  54)                  1.0919         0.357605   
    136. B(H 120,C  55)                  1.0877         0.363158   
    137. B(H 121,C  55)                  1.0875         0.363487   
    138. B(H 122,C  55)                  1.0878         0.363072   
    139. B(H 123,C  56)                  1.0807         0.372603   
    140. B(H 124,C  57)                  1.0803         0.373158   
    141. B(H 125,C  61)                  1.0789         0.375035   
    142. B(H 126,C  67)                  1.0746         0.381009   
    143. B(H 127,C  68)                  1.0860         0.365443   
    144. B(H 128,C  81)                  1.0725         0.384053   
    145. B(H 129,C  82)                  1.0739         0.382010   
    146. B(H 130,C  84)                  1.0725         0.383981   
    147. B(H 131,H 108)                  4.5444         0.000000   
    148. B(H 131,C  85)                  1.0742         0.381679   
    149. A(O   1,C   0,C   2)          126.8198         0.455093   
    150. A(C   2,C   0,C  10)          104.1820         0.389925   
    151. A(O   1,C   0,C  10)          128.9982         0.445999   
    152. A(C   0,C   2,C   3)          111.5832         0.416713   
    153. A(C   0,C   2,S  80)          135.8954         0.425057   
    154. A(C   3,C   2,S  80)          112.5214         0.445881   
    155. A(C   2,C   3,C   4)          108.7715         0.419374   
    156. A(C   2,C   3,C  82)          112.5831         0.430724   
    157. A(C   4,C   3,C  82)          138.6451         0.413398   
    158. A(C   3,C   4,C  10)          107.1162         0.400255   
    159. A(C   3,C   4,C   5)          123.8167         0.423864   
    160. A(C   5,C   4,C  10)          129.0645         0.421336   
    161. A(C   6,C   5,C   8)          111.3893         0.423736   
    162. A(C   4,C   5,C   8)          127.1854         0.435294   
    163. A(C   4,C   5,C   6)          121.4237         0.434610   
    164. L(C   5,C   6,N   7,C   8, 1) 178.4667         0.491493   
    165. L(C   5,C   6,N   7,C   8, 2) 180.1130         0.491493   
    166. L(C   5,C   8,N   9,C   6, 2) 180.3859         0.491809   
    167. L(C   5,C   8,N   9,C   6, 1) 175.0960         0.491809   
    168. A(C   0,C  10,C   4)          108.3361         0.390078   
    169. A(C   0,C  10,C  11)          128.7926         0.413672   
    170. A(C   4,C  10,C  11)          122.8603         0.422112   
    171. A(C  12,C  11,H  86)          112.3608         0.350834   
    172. A(C  10,C  11,H  86)          115.3564         0.359575   
    173. A(C  10,C  11,C  12)          132.2805         0.436611   
    174. A(C  11,C  12,C  13)          132.9912         0.431303   
    175. A(C  13,C  12,S  16)          111.6325         0.427520   
    176. A(C  11,C  12,S  16)          115.3762         0.421663   
    177. A(C  12,C  13,C  14)          111.9623         0.437260   
    178. A(C  12,C  13,H  87)          122.9454         0.357674   
    179. A(C  14,C  13,H  87)          125.0921         0.357620   
    180. A(C  15,C  14,S  38)          112.3248         0.428984   
    181. A(C  13,C  14,S  38)          133.3109         0.436070   
    182. A(C  13,C  14,C  15)          114.3624         0.430082   
    183. A(C  14,C  15,C  17)          112.3657         0.428605   
    184. A(C  14,C  15,S  16)          111.0712         0.436603   
    185. A(S  16,C  15,C  17)          136.5535         0.442312   
    186. A(C  12,S  16,C  15)           90.9712         0.433923   
    187. A(C  15,C  17,C  37)          111.7043         0.436099   
    188. A(C  18,C  17,C  37)          110.6934         0.404974   
    189. A(C  15,C  17,C  18)          137.5598         0.403229   
    190. A(C  17,C  18,C  35)          100.7544         0.371780   
    191. A(C  17,C  18,C  19)          114.0639         0.372375   
    192. A(C  27,C  18,C  35)          113.8200         0.368271   
    193. A(C  19,C  18,C  27)          111.7643         0.368858   
    194. A(C  17,C  18,C  27)          106.7930         0.371502   
    195. A(C  19,C  18,C  35)          109.2488         0.369134   
    196. A(C  18,C  19,C  20)          121.1784         0.401484   
    197. A(C  20,C  19,C  26)          118.8310         0.436258   
    198. A(C  18,C  19,C  26)          119.9490         0.400963   
    199. A(C  21,C  20,H  88)          119.5050         0.357033   
    200. A(C  19,C  20,H  88)          120.0374         0.356057   
    201. A(C  19,C  20,C  21)          120.4571         0.438109   
    202. A(C  20,C  21,C  22)          120.9574         0.437935   
    203. A(C  22,C  21,H  89)          119.5934         0.355895   
    204. A(C  20,C  21,H  89)          119.4486         0.357004   
    205. A(C  23,C  22,C  25)          120.6884         0.404894   
    206. A(C  21,C  22,C  25)          118.3339         0.436116   
    207. A(C  21,C  22,C  23)          120.9409         0.405236   
    208. A(C  22,C  23,H  90)          109.8349         0.329674   
    209. A(H  90,C  23,H  91)          108.2398         0.290240   
    210. A(C  24,C  23,H  90)          109.2705         0.323976   
    211. A(C  24,C  23,H  91)          109.2186         0.323941   
    212. A(C  22,C  23,C  24)          110.4624         0.369979   
    213. A(C  22,C  23,H  91)          109.7756         0.329638   
    214. A(C  23,C  24,H  94)          110.3799         0.324759   
    215. A(H  92,C  24,H  94)          108.2689         0.291607   
    216. A(C  23,C  24,H  93)          110.4704         0.324809   
    217. A(C  23,C  24,H  92)          110.3584         0.324752   
    218. A(H  93,C  24,H  94)          108.6484         0.291656   
    219. A(H  92,C  24,H  93)          108.6531         0.291651   
    220. A(C  22,C  25,C  26)          120.9431         0.438008   
    221. A(C  22,C  25,H  95)          119.5430         0.355606   
    222. A(C  26,C  25,H  95)          119.5126         0.357349   
    223. A(C  19,C  26,H  96)          119.7449         0.355620   
    224. A(C  25,C  26,H  96)          119.7812         0.357387   
    225. A(C  19,C  26,C  25)          120.4654         0.437977   
    226. A(C  28,C  27,C  34)          118.9619         0.436189   
    227. A(C  18,C  27,C  28)          122.0093         0.400653   
    228. A(C  18,C  27,C  34)          118.9229         0.399809   
    229. A(C  27,C  28,H  97)          120.1253         0.356209   
    230. A(C  27,C  28,C  29)          120.2589         0.438009   
    231. A(C  29,C  28,H  97)          119.6156         0.356882   
    232. A(C  28,C  29,C  30)          121.0653         0.437725   
    233. A(C  28,C  29,H  98)          119.3414         0.356779   
    234. A(C  30,C  29,H  98)          119.5933         0.355889   
    235. A(C  31,C  30,C  33)          120.6476         0.404750   
    236. A(C  29,C  30,C  33)          118.3640         0.436025   
    237. A(C  29,C  30,C  31)          120.9426         0.405243   
    238. A(C  30,C  31,C  32)          110.3855         0.369955   
    239. A(C  32,C  31,H 100)          109.1799         0.323963   
    240. A(C  30,C  31,H 100)          109.7915         0.329639   
    241. A(C  30,C  31,H  99)          109.8784         0.329632   
    242. A(C  32,C  31,H  99)          109.2753         0.323955   
    243. A(H  99,C  31,H 100)          108.2934         0.290240   
    244. A(H 101,C  32,H 102)          108.6523         0.291629   
    245. A(H 102,C  32,H 103)          108.6447         0.291671   
    246. A(C  31,C  32,H 103)          110.3353         0.324777   
    247. A(C  31,C  32,H 102)          110.4913         0.324809   
    248. A(H 101,C  32,H 103)          108.3134         0.291601   
    249. A(C  31,C  32,H 101)          110.3434         0.324728   
    250. A(C  30,C  33,C  34)          120.8552         0.438046   
    251. A(C  34,C  33,H 104)          119.4765         0.357567   
    252. A(C  30,C  33,H 104)          119.6683         0.355596   
    253. A(C  27,C  34,C  33)          120.4865         0.437928   
    254. A(C  33,C  34,H 105)          119.8238         0.357531   
    255. A(C  27,C  34,H 105)          119.6881         0.355470   
    256. A(C  18,C  35,C  61)          128.1277         0.403959   
    257. A(C  36,C  35,C  61)          120.8553         0.432266   
    258. A(C  18,C  35,C  36)          111.0052         0.393671   
    259. A(C  35,C  36,C  37)          107.0043         0.417033   
    260. A(C  37,C  36,C  39)          131.0324         0.423314   
    261. A(C  35,C  36,C  39)          121.9579         0.427412   
    262. A(C  17,C  37,C  36)          110.4729         0.425312   
    263. A(C  36,C  37,S  38)          135.2744         0.427206   
    264. A(C  17,C  37,S  38)          114.2477         0.439992   
    265. A(C  14,S  38,C  37)           89.3541         0.438443   
    266. A(C  36,C  39,H 106)          120.7849         0.355310   
    267. A(C  40,C  39,H 106)          122.0061         0.359194   
    268. A(C  36,C  39,C  40)          117.2059         0.438923   
    269. A(C  41,C  40,C  60)          110.9812         0.393232   
    270. A(C  39,C  40,C  60)          120.8191         0.432030   
    271. A(C  39,C  40,C  41)          128.1957         0.403873   
    272. A(C  50,C  41,C  58)          114.1623         0.372805   
    273. A(C  42,C  41,C  58)          105.8304         0.372153   
    274. A(C  40,C  41,C  58)          100.6782         0.372032   
    275. A(C  42,C  41,C  50)          112.2872         0.369142   
    276. A(C  40,C  41,C  50)          108.4888         0.369022   
    277. A(C  40,C  41,C  42)          114.9719         0.368379   
    278. A(C  43,C  42,C  49)          118.9830         0.436273   
    279. A(C  41,C  42,C  49)          121.6941         0.400988   
    280. A(C  41,C  42,C  43)          119.0605         0.400108   
    281. A(C  44,C  43,H 107)          119.8560         0.357345   
    282. A(C  42,C  43,H 107)          119.6813         0.355318   
    283. A(C  42,C  43,C  44)          120.4622         0.437929   
    284. A(C  45,C  44,H 108)          119.4235         0.355634   
    285. A(C  43,C  44,H 108)          119.6923         0.357518   
    286. A(C  43,C  44,C  45)          120.8812         0.438117   
    287. A(C  46,C  45,C  48)          121.1574         0.405452   
    288. A(C  44,C  45,C  48)          118.3272         0.436036   
    289. A(C  44,C  45,C  46)          120.4848         0.405117   
    290. A(H 109,C  46,H 110)          108.4103         0.290302   
    291. A(C  47,C  46,H 110)          109.1933         0.323984   
    292. A(C  45,C  46,H 110)          109.6263         0.329892   
    293. A(C  47,C  46,H 109)          109.3482         0.323974   
    294. A(C  45,C  46,H 109)          109.7985         0.329882   
    295. A(C  45,C  46,C  47)          110.4298         0.370187   
    296. A(C  46,C  47,H 113)          110.2831         0.324758   
    297. A(H 112,C  47,H 113)          108.5971         0.291706   
    298. A(H 111,C  47,H 113)          108.3779         0.291545   
    299. A(H 111,C  47,H 112)          108.6875         0.291612   
    300. A(C  46,C  47,H 112)          110.3801         0.324836   
    301. A(C  46,C  47,H 111)          110.4568         0.324649   
    302. A(C  49,C  48,H 114)          119.3593         0.356928   
    303. A(C  45,C  48,H 114)          119.5409         0.355883   
    304. A(C  45,C  48,C  49)          121.0961         0.437764   
    305. A(C  42,C  49,H 115)          119.9593         0.356205   
    306. A(C  42,C  49,C  48)          120.2433         0.438191   
    307. A(C  48,C  49,H 115)          119.7968         0.356924   
    308. A(C  51,C  50,C  57)          118.8397         0.436235   
    309. A(C  41,C  50,C  57)          119.9118         0.401002   
    310. A(C  41,C  50,C  51)          121.2060         0.401496   
    311. A(C  50,C  51,C  52)          120.4578         0.438085   
    312. A(C  52,C  51,H 116)          119.5490         0.357010   
    313. A(C  50,C  51,H 116)          119.9925         0.356013   
    314. A(C  51,C  52,H 117)          119.4646         0.356980   
    315. A(C  51,C  52,C  53)          120.9511         0.437899   
    316. A(C  53,C  52,H 117)          119.5838         0.355841   
    317. A(C  54,C  53,C  56)          120.8126         0.404844   
    318. A(C  52,C  53,C  56)          118.3442         0.436074   
    319. A(C  52,C  53,C  54)          120.8073         0.405155   
    320. A(C  53,C  54,H 119)          109.8224         0.329599   
    321. A(C  53,C  54,C  55)          110.4518         0.369949   
    322. A(C  55,C  54,H 118)          109.2292         0.323967   
    323. A(C  53,C  54,H 118)          109.8174         0.329619   
    324. A(H 118,C  54,H 119)          108.2505         0.290221   
    325. A(C  55,C  54,H 119)          109.2307         0.323948   
    326. A(C  54,C  55,H 122)          110.3511         0.324757   
    327. A(C  54,C  55,H 121)          110.4801         0.324818   
    328. A(C  54,C  55,H 120)          110.3522         0.324769   
    329. A(H 121,C  55,H 122)          108.6522         0.291644   
    330. A(H 120,C  55,H 122)          108.2868         0.291603   
    331. A(H 120,C  55,H 121)          108.6575         0.291655   
    332. A(C  53,C  56,H 123)          119.5423         0.355597   
    333. A(C  53,C  56,C  57)          120.9371         0.437956   
    334. A(C  57,C  56,H 123)          119.5196         0.357306   
    335. A(C  50,C  57,H 124)          119.6902         0.355669   
    336. A(C  50,C  57,C  56)          120.4629         0.437932   
    337. A(C  56,C  57,H 124)          119.8372         0.357397   
    338. A(C  59,C  58,C  64)          111.6788         0.436764   
    339. A(C  41,C  58,C  64)          136.9985         0.404062   
    340. A(C  41,C  58,C  59)          110.9504         0.405629   
    341. A(C  60,C  59,S  62)          135.5700         0.426914   
    342. A(C  58,C  59,S  62)          113.9949         0.439994   
    343. A(C  58,C  59,C  60)          110.3317         0.425470   
    344. A(C  59,C  60,C  61)          131.0073         0.423340   
    345. A(C  40,C  60,C  61)          121.9620         0.427192   
    346. A(C  40,C  60,C  59)          107.0248         0.416663   
    347. A(C  35,C  61,H 125)          121.9439         0.359100   
    348. A(C  35,C  61,C  60)          117.1877         0.438936   
    349. A(C  60,C  61,H 125)          120.8684         0.355354   
    350. A(C  59,S  62,C  63)           89.4734         0.438832   
    351. A(C  64,C  63,C  67)          113.6929         0.430284   
    352. A(S  62,C  63,C  67)          134.0677         0.435412   
    353. A(S  62,C  63,C  64)          112.2041         0.431043   
    354. A(C  63,C  64,S  65)          111.4870         0.437395   
    355. A(C  58,C  64,S  65)          135.8456         0.442049   
    356. A(C  58,C  64,C  63)          112.6280         0.430481   
    357. A(C  64,S  65,C  66)           90.6892         0.436310   
    358. A(C  67,C  66,C  68)          126.2201         0.430225   
    359. A(S  65,C  66,C  68)          121.7576         0.422470   
    360. A(S  65,C  66,C  67)          111.9721         0.431671   
    361. A(C  63,C  67,C  66)          112.0326         0.437132   
    362. A(C  66,C  67,H 126)          123.0399         0.358452   
    363. A(C  63,C  67,H 126)          124.8315         0.356525   
    364. A(C  66,C  68,C  69)          128.5485         0.437026   
    365. A(C  69,C  68,H 127)          115.3669         0.361240   
    366. A(C  66,C  68,H 127)          115.9641         0.348753   
    367. A(C  68,C  69,C  70)          132.1372         0.426256   
    368. A(C  70,C  69,C  78)          108.3951         0.389687   
    369. A(C  68,C  69,C  78)          119.2891         0.414205   
    370. A(C  71,C  70,C  76)          124.2944         0.423610   
    371. A(C  69,C  70,C  76)          106.3118         0.401346   
    372. A(C  69,C  70,C  71)          128.0537         0.423056   
    373. A(C  72,C  71,C  74)          113.2555         0.424382   
    374. A(C  70,C  71,C  74)          124.7974         0.435202   
    375. A(C  70,C  71,C  72)          121.7513         0.435683   
    376. L(C  71,C  72,N  73,C  74, 2) 178.4461         0.492380   
    377. L(C  71,C  72,N  73,C  74, 1) 178.9538         0.492380   
    378. L(C  71,C  74,N  75,C  72, 2) 174.2460         0.491887   
    379. L(C  71,C  74,N  75,C  72, 1) 177.0173         0.491887   
    380. A(C  77,C  76,C  85)          112.7207         0.430217   
    381. A(C  70,C  76,C  85)          138.2330         0.413429   
    382. A(C  70,C  76,C  77)          108.9489         0.418052   
    383. A(C  78,C  77,S  83)          136.4325         0.424637   
    384. A(C  76,C  77,S  83)          112.2650         0.444550   
    385. A(C  76,C  77,C  78)          111.3012         0.415696   
    386. A(C  77,C  78,O  79)          129.6248         0.456414   
    387. A(C  69,C  78,O  79)          126.7990         0.445250   
    388. A(C  69,C  78,C  77)          103.5395         0.388028   
    389. A(C   2,S  80,C  81)           90.0133         0.450000   
    390. A(C  82,C  81,H 128)          127.1786         0.363251   
    391. A(S  80,C  81,H 128)          118.8366         0.361031   
    392. A(S  80,C  81,C  82)          113.9848         0.448005   
    393. A(C  81,C  82,H 129)          123.7097         0.362920   
    394. A(C   3,C  82,H 129)          125.3929         0.352744   
    395. A(C   3,C  82,C  81)          110.8973         0.437489   
    396. A(C  77,S  83,C  84)           90.1276         0.449807   
    397. A(C  85,C  84,H 130)          127.1846         0.363148   
    398. A(S  83,C  84,H 130)          118.8240         0.361130   
    399. A(S  83,C  84,C  85)          113.9902         0.448031   
    400. A(C  84,C  85,H 131)          123.9154         0.362776   
    401. A(C  76,C  85,H 131)          125.1893         0.353038   
    402. A(C  76,C  85,C  84)          110.8928         0.437830   
    403. D(C   3,C   2,C   0,C  10)      0.4958         0.015976   
    404. D(C   3,C   2,C   0,O   1)   -179.4931         0.015976   
    405. D(S  80,C   2,C   0,O   1)      0.4897         0.015976   
    406. D(S  80,C   2,C   0,C  10)   -179.5213         0.015976   
    407. D(C   4,C   3,C   2,C   0)      0.1566         0.027685   
    408. D(C  82,C   3,C   2,C   0)   -179.9987         0.027685   
    409. D(C   4,C   3,C   2,S  80)   -179.8305         0.027685   
    410. D(C  82,C   3,C   2,S  80)      0.0143         0.027685   
    411. D(C   5,C   4,C   3,C  82)     -1.0880         0.017168   
    412. D(C  10,C   4,C   3,C  82)    179.4531         0.017168   
    413. D(C  10,C   4,C   3,C   2)     -0.7638         0.017168   
    414. D(C   5,C   4,C   3,C   2)    178.6951         0.017168   
    415. D(C   8,C   5,C   4,C   3)   -178.7684         0.031456   
    416. D(C   6,C   5,C   4,C  10)   -179.9186         0.031456   
    417. D(C   8,C   5,C   4,C  10)      0.5655         0.031456   
    418. D(C   6,C   5,C   4,C   3)      0.7475         0.031456   
    419. D(C   0,C  10,C   4,C   5)   -178.3513         0.016048   
    420. D(C  11,C  10,C   4,C   5)      2.7546         0.016048   
    421. D(C  11,C  10,C   4,C   3)   -177.8244         0.016048   
    422. D(C   0,C  10,C   4,C   3)      1.0697         0.016048   
    423. D(C  11,C  10,C   0,C   2)    177.8549         0.012830   
    424. D(C  11,C  10,C   0,O   1)     -2.1565         0.012830   
    425. D(C   4,C  10,C   0,C   2)     -0.9532         0.012830   
    426. D(C   4,C  10,C   0,O   1)    179.0355         0.012830   
    427. D(H  86,C  11,C  10,C   4)      0.2409         0.032163   
    428. D(C  12,C  11,C  10,C   0)      0.9889         0.032163   
    429. D(H  86,C  11,C  10,C   0)   -178.4121         0.032163   
    430. D(C  12,C  11,C  10,C   4)    179.6419         0.032163   
    431. D(S  16,C  12,C  11,C  10)   -178.3990         0.023620   
    432. D(C  13,C  12,C  11,C  10)      1.6625         0.023620   
    433. D(C  13,C  12,C  11,H  86)   -178.9227         0.023620   
    434. D(S  16,C  12,C  11,H  86)      1.0158         0.023620   
    435. D(C  14,C  13,C  12,C  11)   -179.8814         0.027802   
    436. D(H  87,C  13,C  12,S  16)   -179.9760         0.027802   
    437. D(H  87,C  13,C  12,C  11)     -0.0358         0.027802   
    438. D(C  14,C  13,C  12,S  16)      0.1784         0.027802   
    439. D(C  15,C  14,C  13,H  87)   -179.8859         0.027749   
    440. D(S  38,C  14,C  13,H  87)     -0.4378         0.027749   
    441. D(C  15,C  14,C  13,C  12)     -0.0442         0.027749   
    442. D(S  38,C  14,C  13,C  12)    179.4039         0.027749   
    443. D(C  17,C  15,C  14,S  38)     -0.6179         0.022894   
    444. D(C  17,C  15,C  14,C  13)    178.9480         0.022894   
    445. D(S  16,C  15,C  14,S  38)   -179.6802         0.022894   
    446. D(S  16,C  15,C  14,C  13)     -0.1143         0.022894   
    447. D(C  12,S  16,C  15,C  17)   -178.5608         0.005356   
    448. D(C  15,S  16,C  12,C  13)     -0.2068         0.003991   
    449. D(C  12,S  16,C  15,C  14)      0.1782         0.005356   
    450. D(C  15,S  16,C  12,C  11)    179.8416         0.003991   
    451. D(C  37,C  17,C  15,S  16)    179.3313         0.026641   
    452. D(C  18,C  17,C  15,S  16)     -3.3633         0.026641   
    453. D(C  37,C  17,C  15,C  14)      0.6037         0.026641   
    454. D(C  18,C  17,C  15,C  14)    177.9091         0.026641   
    455. D(C  35,C  18,C  17,C  37)     -2.6556         0.012431   
    456. D(C  27,C  18,C  17,C  37)    116.4694         0.012431   
    457. D(C  27,C  18,C  17,C  15)    -60.8544         0.012431   
    458. D(C  35,C  18,C  17,C  15)   -179.9794         0.012431   
    459. D(C  19,C  18,C  17,C  37)   -119.5483         0.012431   
    460. D(C  19,C  18,C  17,C  15)     63.1279         0.012431   
    461. D(C  26,C  19,C  18,C  27)    -39.5349         0.011482   
    462. D(C  26,C  19,C  18,C  17)   -160.7995         0.011482   
    463. D(C  20,C  19,C  18,C  35)    -90.2912         0.011482   
    464. D(C  20,C  19,C  18,C  27)    142.8369         0.011482   
    465. D(C  20,C  19,C  18,C  17)     21.5723         0.011482   
    466. D(C  26,C  19,C  18,C  35)     87.3370         0.011482   
    467. D(H  88,C  20,C  19,C  18)     -1.4376         0.027617   
    468. D(C  21,C  20,C  19,C  26)      1.1420         0.027617   
    469. D(C  21,C  20,C  19,C  18)    178.7961         0.027617   
    470. D(H  88,C  20,C  19,C  26)   -179.0917         0.027617   
    471. D(H  89,C  21,C  20,C  19)    179.3691         0.028583   
    472. D(C  22,C  21,C  20,H  88)    179.8690         0.028583   
    473. D(H  89,C  21,C  20,H  88)     -0.3984         0.028583   
    474. D(C  22,C  21,C  20,C  19)     -0.3635         0.028583   
    475. D(C  25,C  22,C  21,C  20)     -0.5591         0.027488   
    476. D(C  23,C  22,C  21,H  89)      1.9041         0.027488   
    477. D(C  23,C  22,C  21,C  20)   -178.3637         0.027488   
    478. D(C  25,C  22,C  21,H  89)    179.7087         0.027488   
    479. D(H  91,C  23,C  22,C  25)     34.0662         0.012757   
    480. D(H  90,C  23,C  22,C  25)    152.9659         0.012757   
    481. D(H  91,C  23,C  22,C  21)   -148.1809         0.012757   
    482. D(C  24,C  23,C  22,C  25)    -86.4326         0.012757   
    483. D(H  90,C  23,C  22,C  21)    -29.2813         0.012757   
    484. D(C  24,C  23,C  22,C  21)     91.3203         0.012757   
    485. D(H  94,C  24,C  23,H  91)    -61.0345         0.011139   
    486. D(H  94,C  24,C  23,H  90)   -179.2649         0.011139   
    487. D(H  93,C  24,C  23,H  91)     59.1498         0.011139   
    488. D(H  94,C  24,C  23,C  22)     59.7969         0.011139   
    489. D(H  93,C  24,C  23,C  22)    179.9811         0.011139   
    490. D(H  93,C  24,C  23,H  90)    -59.0807         0.011139   
    491. D(H  92,C  24,C  23,H  90)     61.0956         0.011139   
    492. D(H  92,C  24,C  23,H  91)    179.3260         0.011139   
    493. D(H  92,C  24,C  23,C  22)    -59.8426         0.011139   
    494. D(H  95,C  25,C  22,C  23)     -1.9127         0.027210   
    495. D(H  95,C  25,C  22,C  21)   -179.7231         0.027210   
    496. D(C  26,C  25,C  22,C  21)      0.6977         0.027210   
    497. D(C  26,C  25,C  22,C  23)    178.5080         0.027210   
    498. D(H  96,C  26,C  25,C  22)    179.0198         0.028933   
    499. D(C  19,C  26,C  25,H  95)   -179.4949         0.028933   
    500. D(C  19,C  26,C  25,C  22)      0.0844         0.028933   
    501. D(H  96,C  26,C  19,C  20)   -179.9402         0.027188   
    502. D(H  96,C  26,C  19,C  18)      2.3761         0.027188   
    503. D(C  25,C  26,C  19,C  20)     -1.0044         0.027188   
    504. D(H  96,C  26,C  25,H  95)     -0.5596         0.028933   
    505. D(C  25,C  26,C  19,C  18)   -178.6881         0.027188   
    506. D(C  34,C  27,C  18,C  35)   -169.9356         0.011189   
    507. D(C  34,C  27,C  18,C  19)    -45.5831         0.011189   
    508. D(C  34,C  27,C  18,C  17)     79.8039         0.011189   
    509. D(C  28,C  27,C  18,C  35)     13.8471         0.011189   
    510. D(C  28,C  27,C  18,C  19)    138.1996         0.011189   
    511. D(C  28,C  27,C  18,C  17)    -96.4134         0.011189   
    512. D(H  97,C  28,C  27,C  34)   -179.0984         0.027727   
    513. D(H  97,C  28,C  27,C  18)     -2.8826         0.027727   
    514. D(C  29,C  28,C  27,C  34)      1.0128         0.027727   
    515. D(C  29,C  28,C  27,C  18)    177.2286         0.027727   
    516. D(H  98,C  29,C  28,H  97)     -0.3053         0.028392   
    517. D(H  98,C  29,C  28,C  27)    179.5840         0.028392   
    518. D(C  30,C  29,C  28,H  97)    179.6713         0.028392   
    519. D(C  30,C  29,C  28,C  27)     -0.4394         0.028392   
    520. D(C  33,C  30,C  29,H  98)    179.6766         0.027516   
    521. D(C  33,C  30,C  29,C  28)     -0.2999         0.027516   
    522. D(C  31,C  30,C  29,H  98)      2.1213         0.027516   
    523. D(C  31,C  30,C  29,C  28)   -177.8553         0.027516   
    524. D(H 100,C  31,C  30,C  33)     34.5198         0.012748   
    525. D(H 100,C  31,C  30,C  29)   -147.9806         0.012748   
    526. D(H  99,C  31,C  30,C  33)    153.5214         0.012748   
    527. D(H  99,C  31,C  30,C  29)    -28.9790         0.012748   
    528. D(C  32,C  31,C  30,C  33)    -85.8921         0.012748   
    529. D(C  32,C  31,C  30,C  29)     91.6075         0.012748   
    530. D(H 103,C  32,C  31,H 100)    -60.9973         0.011140   
    531. D(H 103,C  32,C  31,H  99)   -179.2727         0.011140   
    532. D(H 103,C  32,C  31,C  30)     59.7805         0.011140   
    533. D(H 102,C  32,C  31,H 100)     59.1669         0.011140   
    534. D(H 102,C  32,C  31,H  99)    -59.1085         0.011140   
    535. D(H 102,C  32,C  31,C  30)    179.9448         0.011140   
    536. D(H 101,C  32,C  31,H 100)    179.3459         0.011140   
    537. D(H 101,C  32,C  31,H  99)     61.0705         0.011140   
    538. D(H 101,C  32,C  31,C  30)    -59.8763         0.011140   
    539. D(H 104,C  33,C  30,C  31)     -2.0246         0.027116   
    540. D(H 104,C  33,C  30,C  29)   -179.5875         0.027116   
    541. D(C  34,C  33,C  30,C  31)    178.0200         0.027116   
    542. D(C  34,C  33,C  30,C  29)      0.4571         0.027116   
    543. D(H 105,C  34,C  33,H 104)     -0.2870         0.029064   
    544. D(H 105,C  34,C  33,C  30)    179.6685         0.029064   
    545. D(C  27,C  34,C  33,H 104)   -179.8325         0.029064   
    546. D(C  27,C  34,C  33,C  30)      0.1230         0.029064   
    547. D(H 105,C  34,C  27,C  28)    179.5955         0.027030   
    548. D(H 105,C  34,C  27,C  18)      3.2615         0.027030   
    549. D(C  33,C  34,C  27,C  28)     -0.8583         0.027030   
    550. D(C  33,C  34,C  27,C  18)   -177.1924         0.027030   
    551. D(C  61,C  35,C  18,C  27)     69.5201         0.011282   
    552. D(C  61,C  35,C  18,C  19)    -56.1750         0.011282   
    553. D(C  61,C  35,C  18,C  17)   -176.5691         0.011282   
    554. D(C  36,C  35,C  18,C  27)   -111.7401         0.011282   
    555. D(C  36,C  35,C  18,C  19)    122.5648         0.011282   
    556. D(C  36,C  35,C  18,C  17)      2.1707         0.011282   
    557. D(C  39,C  36,C  35,C  61)     -1.3778         0.022249   
    558. D(C  39,C  36,C  35,C  18)    179.7769         0.022249   
    559. D(C  37,C  36,C  35,C  61)    177.8661         0.022249   
    560. D(C  37,C  36,C  35,C  18)     -0.9792         0.022249   
    561. D(S  38,C  37,C  36,C  39)     -0.7627         0.019900   
    562. D(S  38,C  37,C  36,C  35)   -179.9123         0.019900   
    563. D(C  17,C  37,C  36,C  39)    178.3446         0.019900   
    564. D(C  17,C  37,C  36,C  35)     -0.8050         0.019900   
    565. D(S  38,C  37,C  17,C  18)   -178.3938         0.028064   
    566. D(S  38,C  37,C  17,C  15)     -0.3372         0.028064   
    567. D(C  36,C  37,C  17,C  18)      2.2951         0.028064   
    568. D(C  36,C  37,C  17,C  15)   -179.6483         0.028064   
    569. D(C  14,S  38,C  37,C  36)    179.0708         0.004946   
    570. D(C  14,S  38,C  37,C  17)     -0.0120         0.004946   
    571. D(C  37,S  38,C  14,C  15)      0.3547         0.004640   
    572. D(C  37,S  38,C  14,C  13)   -179.1018         0.004640   
    573. D(H 106,C  39,C  36,C  37)      1.3461         0.026537   
    574. D(H 106,C  39,C  36,C  35)   -179.6124         0.026537   
    575. D(C  40,C  39,C  36,C  37)   -178.0139         0.026537   
    576. D(C  40,C  39,C  36,C  35)      1.0275         0.026537   
    577. D(C  60,C  40,C  39,H 106)   -179.5332         0.030419   
    578. D(C  60,C  40,C  39,C  36)     -0.1815         0.030419   
    579. D(C  41,C  40,C  39,H 106)      1.2542         0.030419   
    580. D(C  41,C  40,C  39,C  36)   -179.3942         0.030419   
    581. D(C  58,C  41,C  40,C  60)      1.0885         0.011234   
    582. D(C  58,C  41,C  40,C  39)   -179.6357         0.011234   
    583. D(C  50,C  41,C  40,C  60)   -119.0608         0.011234   
    584. D(C  50,C  41,C  40,C  39)     60.2150         0.011234   
    585. D(C  42,C  41,C  40,C  60)    114.2945         0.011234   
    586. D(C  42,C  41,C  40,C  39)    -66.4297         0.011234   
    587. D(C  49,C  42,C  41,C  58)     90.7105         0.011274   
    588. D(C  49,C  42,C  41,C  50)   -144.1181         0.011274   
    589. D(C  49,C  42,C  41,C  40)    -19.4414         0.011274   
    590. D(C  43,C  42,C  41,C  58)    -83.3429         0.011274   
    591. D(C  43,C  42,C  41,C  50)     41.8285         0.011274   
    592. D(C  43,C  42,C  41,C  40)    166.5053         0.011274   
    593. D(H 107,C  43,C  42,C  49)   -179.4294         0.027046   
    594. D(H 107,C  43,C  42,C  41)     -5.2130         0.027046   
    595. D(C  44,C  43,C  42,C  49)      0.8542         0.027046   
    596. D(C  44,C  43,C  42,C  41)    175.0705         0.027046   
    597. D(H 108,C  44,C  43,H 107)      0.1566         0.029047   
    598. D(H 108,C  44,C  43,C  42)    179.8726         0.029047   
    599. D(C  45,C  44,C  43,H 107)    179.5228         0.029047   
    600. D(C  45,C  44,C  43,C  42)     -0.7612         0.029047   
    601. D(C  48,C  45,C  44,H 108)    179.9220         0.027184   
    602. D(C  48,C  45,C  44,C  43)      0.5541         0.027184   
    603. D(C  46,C  45,C  44,H 108)     -2.0656         0.027184   
    604. D(C  46,C  45,C  44,C  43)    178.5665         0.027184   
    605. D(H 110,C  46,C  45,C  48)   -147.9954         0.012845   
    606. D(H 110,C  46,C  45,C  44)     34.0492         0.012845   
    607. D(H 109,C  46,C  45,C  48)    -29.0001         0.012845   
    608. D(H 109,C  46,C  45,C  44)    153.0445         0.012845   
    609. D(C  47,C  46,C  45,C  48)     91.6539         0.012845   
    610. D(C  47,C  46,C  45,C  44)    -86.3016         0.012845   
    611. D(H 113,C  47,C  46,H 110)    -60.6825         0.011133   
    612. D(H 113,C  47,C  46,H 109)   -179.1499         0.011133   
    613. D(H 113,C  47,C  46,C  45)     59.9275         0.011133   
    614. D(H 112,C  47,C  46,H 110)     59.3171         0.011133   
    615. D(H 112,C  47,C  46,H 109)    -59.1503         0.011133   
    616. D(H 112,C  47,C  46,C  45)    179.9271         0.011133   
    617. D(H 111,C  47,C  46,H 110)    179.5415         0.011133   
    618. D(H 111,C  47,C  46,H 109)     61.0740         0.011133   
    619. D(H 111,C  47,C  46,C  45)    -59.8486         0.011133   
    620. D(H 114,C  48,C  45,C  46)      2.2261         0.027456   
    621. D(H 114,C  48,C  45,C  44)   -179.7755         0.027456   
    622. D(C  49,C  48,C  45,C  46)   -178.4646         0.027456   
    623. D(C  49,C  48,C  45,C  44)     -0.4662         0.027456   
    624. D(H 115,C  49,C  48,H 114)      0.1905         0.028485   
    625. D(H 115,C  49,C  48,C  45)   -179.1200         0.028485   
    626. D(C  42,C  49,C  48,H 114)    179.8939         0.028485   
    627. D(C  42,C  49,C  48,C  45)      0.5833         0.028485   
    628. D(H 115,C  49,C  42,C  43)    178.9388         0.027774   
    629. D(H 115,C  49,C  42,C  41)      4.8810         0.027774   
    630. D(C  48,C  49,C  42,C  43)     -0.7641         0.027774   
    631. D(C  48,C  49,C  42,C  41)   -174.8219         0.027774   
    632. D(C  57,C  50,C  41,C  58)    162.9698         0.011493   
    633. D(C  57,C  50,C  41,C  42)     42.5054         0.011493   
    634. D(C  57,C  50,C  41,C  40)    -85.6750         0.011493   
    635. D(C  51,C  50,C  41,C  58)    -19.4296         0.011493   
    636. D(C  51,C  50,C  41,C  42)   -139.8939         0.011493   
    637. D(C  51,C  50,C  41,C  40)     91.9257         0.011493   
    638. D(H 116,C  51,C  50,C  57)    179.3792         0.027598   
    639. D(H 116,C  51,C  50,C  41)      1.7534         0.027598   
    640. D(C  52,C  51,C  50,C  57)     -0.9112         0.027598   
    641. D(C  52,C  51,C  50,C  41)   -178.5371         0.027598   
    642. D(H 117,C  52,C  51,H 116)      0.3107         0.028584   
    643. D(H 117,C  52,C  51,C  50)   -179.4002         0.028584   
    644. D(C  53,C  52,C  51,H 116)   -179.9362         0.028584   
    645. D(C  53,C  52,C  51,C  50)      0.3529         0.028584   
    646. D(C  56,C  53,C  52,H 117)   -179.8673         0.027460   
    647. D(C  56,C  53,C  52,C  51)      0.3799         0.027460   
    648. D(C  54,C  53,C  52,H 117)     -2.0315         0.027460   
    649. D(C  54,C  53,C  52,C  51)    178.2157         0.027460   
    650. D(H 119,C  54,C  53,C  56)   -150.3521         0.012741   
    651. D(H 119,C  54,C  53,C  52)     31.8657         0.012741   
    652. D(H 118,C  54,C  53,C  56)    -31.4214         0.012741   
    653. D(H 118,C  54,C  53,C  52)    150.7963         0.012741   
    654. D(C  55,C  54,C  53,C  56)     89.1107         0.012741   
    655. D(C  55,C  54,C  53,C  52)    -88.6716         0.012741   
    656. D(H 120,C  55,C  54,H 118)     61.0707         0.011143   
    657. D(H 120,C  55,C  54,C  53)    -59.8126         0.011143   
    658. D(H 122,C  55,C  54,H 119)    -61.0637         0.011143   
    659. D(H 122,C  55,C  54,H 118)   -179.2899         0.011143   
    660. D(H 122,C  55,C  54,C  53)     59.8268         0.011143   
    661. D(H 121,C  55,C  54,H 119)     59.1130         0.011143   
    662. D(H 121,C  55,C  54,H 118)    -59.1133         0.011143   
    663. D(H 121,C  55,C  54,C  53)   -179.9965         0.011143   
    664. D(H 120,C  55,C  54,H 119)    179.2969         0.011143   
    665. D(H 123,C  56,C  53,C  54)      1.9913         0.027208   
    666. D(H 123,C  56,C  53,C  52)    179.8271         0.027208   
    667. D(C  57,C  56,C  53,C  54)   -178.3846         0.027208   
    668. D(C  57,C  56,C  53,C  52)     -0.5488         0.027208   
    669. D(H 124,C  57,C  56,H 123)      0.7523         0.028895   
    670. D(H 124,C  57,C  56,C  53)   -178.8719         0.028895   
    671. D(C  50,C  57,C  56,H 123)    179.6112         0.028895   
    672. D(C  50,C  57,C  56,C  53)     -0.0130         0.028895   
    673. D(H 124,C  57,C  50,C  51)    179.6041         0.027190   
    674. D(H 124,C  57,C  50,C  41)     -2.7386         0.027190   
    675. D(C  56,C  57,C  50,C  51)      0.7435         0.027190   
    676. D(C  56,C  57,C  50,C  41)    178.4008         0.027190   
    677. D(C  64,C  58,C  41,C  50)    -71.8370         0.012581   
    678. D(C  64,C  58,C  41,C  42)     52.1674         0.012581   
    679. D(C  64,C  58,C  41,C  40)    172.1683         0.012581   
    680. D(C  59,C  58,C  41,C  50)    116.0534         0.012581   
    681. D(C  59,C  58,C  41,C  42)   -119.9421         0.012581   
    682. D(C  59,C  58,C  41,C  40)      0.0588         0.012581   
    683. D(S  62,C  59,C  58,C  64)      1.5007         0.028242   
    684. D(S  62,C  59,C  58,C  41)    175.7181         0.028242   
    685. D(C  60,C  59,C  58,C  64)   -175.3889         0.028242   
    686. D(C  60,C  59,C  58,C  41)     -1.1715         0.028242   
    687. D(C  61,C  60,C  59,S  62)      5.0089         0.019864   
    688. D(C  61,C  60,C  59,C  58)   -179.0518         0.019864   
    689. D(C  40,C  60,C  59,S  62)   -174.1004         0.019864   
    690. D(C  40,C  60,C  59,C  58)      1.8389         0.019864   
    691. D(C  61,C  60,C  40,C  41)    178.9827         0.022060   
    692. D(C  61,C  60,C  40,C  39)     -0.3545         0.022060   
    693. D(C  59,C  60,C  40,C  41)     -1.8095         0.022060   
    694. D(C  59,C  60,C  40,C  39)    178.8532         0.022060   
    695. D(H 125,C  61,C  60,C  59)      0.9774         0.026606   
    696. D(H 125,C  61,C  60,C  40)    179.9735         0.026606   
    697. D(C  35,C  61,C  60,C  59)   -178.9561         0.026606   
    698. D(C  35,C  61,C  60,C  40)      0.0400         0.026606   
    699. D(H 125,C  61,C  35,C  36)   -179.1383         0.030349   
    700. D(H 125,C  61,C  35,C  18)     -0.5086         0.030349   
    701. D(C  60,C  61,C  35,C  36)      0.7945         0.030349   
    702. D(C  60,C  61,C  35,C  18)    179.4241         0.030349   
    703. D(C  63,S  62,C  59,C  60)    174.4715         0.004925   
    704. D(C  63,S  62,C  59,C  58)     -1.3604         0.004925   
    705. D(C  67,C  63,S  62,C  59)   -176.7704         0.004692   
    706. D(C  64,C  63,S  62,C  59)      0.8718         0.004692   
    707. D(S  65,C  64,C  63,C  67)     -0.1465         0.023815   
    708. D(S  65,C  64,C  63,S  62)   -178.2967         0.023815   
    709. D(C  58,C  64,C  63,C  67)    177.9404         0.023815   
    710. D(C  58,C  64,C  63,S  62)     -0.2098         0.023815   
    711. D(S  65,C  64,C  58,C  59)    176.6382         0.026954   
    712. D(S  65,C  64,C  58,C  41)      4.5682         0.026954   
    713. D(C  63,C  64,C  58,C  59)     -0.8060         0.026954   
    714. D(C  63,C  64,C  58,C  41)   -172.8760         0.026954   
    715. D(C  66,S  65,C  64,C  63)      1.9000         0.005285   
    716. D(C  66,S  65,C  64,C  58)   -175.5647         0.005285   
    717. D(C  68,C  66,S  65,C  64)    179.1705         0.004203   
    718. D(C  67,C  66,S  65,C  64)     -3.2573         0.004203   
    719. D(H 126,C  67,C  66,C  68)     -2.2131         0.028681   
    720. D(H 126,C  67,C  66,S  65)   -179.6542         0.028681   
    721. D(C  63,C  67,C  66,C  68)   -178.8039         0.028681   
    722. D(C  63,C  67,C  66,S  65)      3.7550         0.028681   
    723. D(H 126,C  67,C  63,C  64)   -178.8714         0.026809   
    724. D(H 126,C  67,C  63,S  62)     -1.2553         0.026809   
    725. D(C  66,C  67,C  63,C  64)     -2.3532         0.026809   
    726. D(C  66,C  67,C  63,S  62)    175.2630         0.026809   
    727. D(H 127,C  68,C  66,C  67)    -25.9309         0.022251   
    728. D(H 127,C  68,C  66,S  65)    151.2782         0.022251   
    729. D(C  69,C  68,C  66,C  67)    158.2825         0.022251   
    730. D(C  69,C  68,C  66,S  65)    -24.5085         0.022251   
    731. D(C  78,C  69,C  68,H 127)    -15.4678         0.034603   
    732. D(C  78,C  69,C  68,C  66)    160.3399         0.034603   
    733. D(C  70,C  69,C  68,H 127)    170.0124         0.034603   
    734. D(C  70,C  69,C  68,C  66)    -14.1798         0.034603   
    735. D(C  76,C  70,C  69,C  78)    -12.5840         0.016734   
    736. D(C  76,C  70,C  69,C  68)    162.3802         0.016734   
    737. D(C  71,C  70,C  69,C  78)    154.4844         0.016734   
    738. D(C  71,C  70,C  69,C  68)    -30.5515         0.016734   
    739. D(C  74,C  71,C  70,C  76)    164.0922         0.031592   
    740. D(C  74,C  71,C  70,C  69)     -0.8391         0.031592   
    741. D(C  72,C  71,C  70,C  76)    -10.4750         0.031592   
    742. D(C  72,C  71,C  70,C  69)   -175.4063         0.031592   
    743. D(C  85,C  76,C  70,C  71)     17.6232         0.016983   
    744. D(C  85,C  76,C  70,C  69)   -174.6926         0.016983   
    745. D(C  77,C  76,C  70,C  71)   -158.3322         0.016983   
    746. D(C  77,C  76,C  70,C  69)      9.3520         0.016983   
    747. D(S  83,C  77,C  76,C  85)      0.1262         0.026968   
    748. D(S  83,C  77,C  76,C  70)    177.2067         0.026968   
    749. D(C  78,C  77,C  76,C  85)   -179.5337         0.026968   
    750. D(C  78,C  77,C  76,C  70)     -2.4532         0.026968   
    751. D(O  79,C  78,C  77,S  83)     -2.6265         0.015932   
    752. D(O  79,C  78,C  77,C  76)    176.9168         0.015932   
    753. D(C  69,C  78,C  77,S  83)    175.2518         0.015932   
    754. D(C  69,C  78,C  77,C  76)     -5.2049         0.015932   
    755. D(O  79,C  78,C  69,C  70)   -171.1279         0.012189   
    756. D(O  79,C  78,C  69,C  68)     13.1522         0.012189   
    757. D(C  77,C  78,C  69,C  70)     10.9129         0.012189   
    758. D(C  77,C  78,C  69,C  68)   -164.8070         0.012189   
    759. D(C  81,S  80,C   2,C   3)     -0.0312         0.005575   
    760. D(C  81,S  80,C   2,C   0)    179.9861         0.005575   
    761. D(H 128,C  81,S  80,C   2)   -179.9579         0.005090   
    762. D(C  82,C  81,S  80,C   2)      0.0421         0.005090   
    763. D(H 129,C  82,C  81,H 128)      0.0189         0.033341   
    764. D(H 129,C  82,C  81,S  80)   -179.9811         0.033341   
    765. D(C   3,C  82,C  81,H 128)    179.9587         0.033341   
    766. D(C   3,C  82,C  81,S  80)     -0.0413         0.033341   
    767. D(H 129,C  82,C   3,C   4)     -0.2668         0.023349   
    768. D(H 129,C  82,C   3,C   2)    179.9557         0.023349   
    769. D(C  81,C  82,C   3,C   4)    179.7947         0.023349   
    770. D(C  81,C  82,C   3,C   2)      0.0171         0.023349   
    771. D(C  84,S  83,C  77,C  78)    179.7490         0.005540   
    772. D(C  84,S  83,C  77,C  76)      0.2087         0.005540   
    773. D(H 130,C  84,S  83,C  77)    179.8544         0.005103   
    774. D(C  85,C  84,S  83,C  77)     -0.5137         0.005103   
    775. D(H 131,C  85,C  84,H 130)     -0.2845         0.033235   
    776. D(H 131,C  85,C  84,S  83)   -179.8796         0.033235   
    777. D(C  76,C  85,C  84,H 130)   -179.7343         0.033235   
    778. D(C  76,C  85,C  84,S  83)      0.6706         0.033235   
    779. D(H 131,C  85,C  76,C  77)   -179.9456         0.023634   
    780. D(H 131,C  85,C  76,C  70)      4.2018         0.023634   
    781. D(C  84,C  85,C  76,C  77)     -0.5043         0.023634   
    782. D(C  84,C  85,C  76,C  70)   -176.3569         0.023634   
    -----------------------------------------------------------------

Number of atoms                         .... 132
Number of degrees of freedom            .... 782

         *************************************************************
         *                GEOMETRY OPTIMIZATION CYCLE   1            *
         *************************************************************
---------------------------------
CARTESIAN COORDINATES (ANGSTROEM)
---------------------------------
  C      1.434340   -1.073830    1.646690
  O      1.595720   -2.266460    1.804780
  C      0.326770   -0.267070    2.148610
  C      0.452300    1.062050    1.772610
  C      1.661930    1.212660    0.988190
  C      2.071020    2.399210    0.437130
  C      1.329770    3.587320    0.614490
  N      0.748550    4.568450    0.742710
  C      3.215790    2.620950   -0.354160
  N      4.119030    2.894900   -1.009350
  C      2.291900   -0.100870    0.914130
  C      3.484810   -0.317270    0.280590
  C      4.262510   -1.475730    0.096190
  C      4.085090   -2.801480    0.461040
  C      5.144910   -3.597690    0.053970
  C      6.163160   -2.904180   -0.634870
  S      5.786490   -1.236550   -0.776540
  C      7.215600   -3.737300   -1.003180
  C      8.514350   -3.620040   -1.754300
  C      9.521790   -2.690780   -1.105930
  C      9.445400   -2.377580    0.243380
  C     10.386730   -1.547980    0.824820
  C     11.429390   -1.017560    0.078000
  C     12.471620   -0.146500    0.717320
  C     13.651790   -0.991690    1.200970
  C     11.511900   -1.350110   -1.268270
  C     10.572720   -2.176020   -1.854730
  C      8.166670   -3.177520   -3.166180
  C      8.036970   -4.082280   -4.209130
  C      7.663270   -3.646230   -5.468090
  C      7.402540   -2.305440   -5.713390
  C      6.951130   -1.842090   -7.068220
  C      5.423130   -1.834290   -7.147050
  C      7.519480   -1.406680   -4.660000
  C      7.895100   -1.834850   -3.402180
  C      9.022280   -5.048630   -1.666850
  C      8.092370   -5.877430   -0.995150
  C      6.993220   -5.047260   -0.611480
  S      5.498820   -5.294990    0.224330
  C      8.327350   -7.234710   -0.791790
  C      9.518820   -7.742500   -1.253450
  C     10.022200   -9.174030   -1.177840
  C     10.308610   -9.679740    0.225390
  C     10.496890  -11.042090    0.426750
  C     10.858590  -11.522620    1.669730
  C     11.056980  -10.657550    2.738600
  C     11.418550  -11.191750    4.093110
  C     10.156760  -11.561950    4.875510
  C     10.871070   -9.298090    2.528940
  C     10.506980   -8.809960    1.286850
  C      9.048680  -10.065970   -1.922910
  C      9.225250  -10.356990   -3.267880
  C      8.311300  -11.147930   -3.939820
  C      7.197290  -11.660940   -3.289900
  C      6.186280  -12.486310   -4.032110
  C      5.109620  -11.588650   -4.645230
  C      7.017440  -11.353710   -1.947090
  C      7.929230  -10.566900   -1.270220
  C     11.362110   -9.033700   -1.844590
  C     11.585310   -7.724820   -2.236590
  C     10.456960   -6.909060   -1.910150
  C     10.216950   -5.554490   -2.123190
  S     13.156220   -7.449660   -2.909250
  C     13.552030   -9.120420   -2.627180
  C     12.481680   -9.830890   -2.054970
  S     12.907550  -11.465300   -1.741140
  C     14.543170  -11.173920   -2.327200
  C     14.699510   -9.886320   -2.805580
  C     15.524560  -12.193530   -2.334250
  C     15.595710  -13.305660   -1.556920
  C     14.904560  -13.688560   -0.337530
  C     14.433860  -12.873300    0.658070
  C     13.863300  -13.394820    1.835360
  N     13.380690  -13.799100    2.795440
  C     14.560350  -11.469040    0.675420
  N     14.702250  -10.333810    0.769020
  C     15.070860  -15.124220   -0.208470
  C     15.988850  -15.559510   -1.157600
  C     16.439030  -14.458660   -2.003800
  O     17.261520  -14.453800   -2.890080
  S     -1.077160   -0.554200    3.078630
  C     -1.495760    1.114990    2.962800
  C     -0.607100    1.860820    2.246650
  S     16.307110  -17.234270   -1.030490
  C     15.204360  -17.347510    0.290220
  C     14.624330  -16.161340    0.631550
  H      3.939860    0.560210   -0.164800
  H      3.222110   -3.149160    0.997850
  H      8.644500   -2.779240    0.847380
  H     10.305750   -1.306510    1.875060
  H     12.038850    0.386980    1.565800
  H     12.829470    0.591230   -0.003720
  H     13.317480   -1.726210    1.930270
  H     14.406980   -0.360810    1.663800
  H     14.105260   -1.521770    0.366420
  H     12.318460   -0.951690   -1.867100
  H     10.646030   -2.409710   -2.907120
  H      8.229180   -5.132370   -4.043070
  H      7.573240   -4.363240   -6.271830
  H      7.348400   -2.505620   -7.838900
  H      7.325220   -0.834080   -7.257770
  H      5.030310   -2.833560   -6.972160
  H      5.094240   -1.497970   -8.127490
  H      5.009210   -1.167720   -6.393890
  H      7.314920   -0.358980   -4.825800
  H      7.986030   -1.120830   -2.596410
  H      7.602420   -7.850360   -0.282600
  H     10.354310  -11.729560   -0.395480
  H     10.999660  -12.584200    1.812820
  H     11.981200  -10.439480    4.649140
  H     12.045150  -12.078660    3.982160
  H      9.519920  -10.689170    5.005220
  H     10.419750  -11.950160    5.856420
  H      9.591610  -12.322510    4.341580
  H     11.023640   -8.607280    3.345740
  H     10.381730   -7.746250    1.143550
  H     10.084120   -9.968620   -3.796400
  H      8.469740  -11.372520   -4.985080
  H      5.716030  -13.197180   -3.349800
  H      6.679740  -13.049990   -4.826460
  H      4.597260  -11.027060   -3.867290
  H      4.377060  -12.186010   -5.182880
  H      5.557500  -10.880380   -5.338760
  H      6.155240  -11.740560   -1.422790
  H      7.781440  -10.354120   -0.221440
  H     10.944360   -4.935670   -2.625230
  H     15.625060   -9.520120   -3.210670
  H     16.288950  -12.112410   -3.101390
  H     -2.392970    1.457600    3.440110
  H     -0.714840    2.915760    2.076940
  H     15.048160  -18.302350    0.753020
  H     13.915550  -16.048820    1.430790

----------------------------
CARTESIAN COORDINATES (A.U.)
----------------------------
  NO LB      ZA    FRAG     MASS         X           Y           Z
   0 C     6.0000    0    12.011    2.710510   -2.029245    3.111793
   1 O     8.0000    0    15.999    3.015474   -4.282989    3.410540
   2 C     6.0000    0    12.011    0.617506   -0.504689    4.060284
   3 C     6.0000    0    12.011    0.854723    2.006984    3.349747
   4 C     6.0000    0    12.011    3.140593    2.291595    1.867408
   5 C     6.0000    0    12.011    3.913661    4.533850    0.826056
   6 C     6.0000    0    12.011    2.512901    6.779052    1.161218
   7 N     7.0000    0    14.007    1.414554    8.633119    1.403518
   8 C     6.0000    0    12.011    6.076962    4.952878   -0.669265
   9 N     7.0000    0    14.007    7.783839    5.470568   -1.907395
  10 C     6.0000    0    12.011    4.331063   -0.190617    1.727455
  11 C     6.0000    0    12.011    6.585337   -0.599553    0.530238
  12 C     6.0000    0    12.011    8.054977   -2.788726    0.181773
  13 C     6.0000    0    12.011    7.719701   -5.294030    0.871239
  14 C     6.0000    0    12.011    9.722471   -6.798649    0.101989
  15 C     6.0000    0    12.011   11.646685   -5.488105   -1.199730
  16 S    16.0000    0    32.060   10.934881   -2.336741   -1.467448
  17 C     6.0000    0    12.011   13.635508   -7.062473   -1.895735
  18 C     6.0000    0    12.011   16.089790   -6.840884   -3.315147
  19 C     6.0000    0    12.011   17.993575   -5.084837   -2.089905
  20 C     6.0000    0    12.011   17.849219   -4.492975    0.459922
  21 C     6.0000    0    12.011   19.628075   -2.925258    1.558684
  22 C     6.0000    0    12.011   21.598417   -1.922910    0.147399
  23 C     6.0000    0    12.011   23.567946   -0.276845    1.355538
  24 C     6.0000    0    12.011   25.798144   -1.874023    2.269504
  25 C     6.0000    0    12.011   21.754338   -2.551338   -2.396683
  26 C     6.0000    0    12.011   19.979545   -4.112082   -3.504932
  27 C     6.0000    0    12.011   15.432770   -6.004643   -5.983213
  28 C     6.0000    0    12.011   15.187672   -7.714391   -7.954103
  29 C     6.0000    0    12.011   14.481482   -6.890376  -10.333193
  30 C     6.0000    0    12.011   13.988773   -4.356650  -10.796742
  31 C     6.0000    0    12.011   13.135732   -3.481046  -13.357000
  32 C     6.0000    0    12.011   10.248230   -3.466306  -13.505967
  33 C     6.0000    0    12.011   14.209758   -2.658240   -8.806124
  34 C     6.0000    0    12.011   14.919577   -3.467364   -6.429188
  35 C     6.0000    0    12.011   17.049638   -9.540528   -3.149890
  36 C     6.0000    0    12.011   15.292363  -11.106733   -1.880561
  37 C     6.0000    0    12.011   13.215271   -9.537939   -1.155530
  38 S    16.0000    0    32.060   10.391264  -10.006081    0.423922
  39 C     6.0000    0    12.011   15.736411  -13.671621   -1.496266
  40 C     6.0000    0    12.011   17.987963  -14.631205   -2.368677
  41 C     6.0000    0    12.011   18.939213  -17.336404   -2.225795
  42 C     6.0000    0    12.011   19.480450  -18.292058    0.425925
  43 C     6.0000    0    12.011   19.836247  -20.866526    0.806441
  44 C     6.0000    0    12.011   20.519761  -21.774596    3.155332
  45 C     6.0000    0    12.011   20.894664  -20.139851    5.175204
  46 C     6.0000    0    12.011   21.577932  -21.149342    7.734857
  47 C     6.0000    0    12.011   19.193495  -21.848919    9.213379
[...]
128 H s       :     0.893807  s :     0.893807
      pz      :     0.015926  p :     0.072942
      px      :     0.043458
      py      :     0.013557
129 H s       :     0.882949  s :     0.882949
      pz      :     0.016792  p :     0.073354
      px      :     0.011784
      py      :     0.044778
130 H s       :     0.893711  s :     0.893711
      pz      :     0.017020  p :     0.072925
      px      :     0.017119
      py      :     0.038787
131 H s       :     0.884167  s :     0.884167
      pz      :     0.038330  p :     0.072204
      px      :     0.022724
      py      :     0.011149


                      *****************************
                      * MAYER POPULATION ANALYSIS *
                      *****************************

  NA   - Mulliken gross atomic population
  ZA   - Total nuclear charge
  QA   - Mulliken gross atomic charge
  VA   - Mayer's total valence
  BVA  - Mayer's bonded valence
  FA   - Mayer's free valence

  ATOM       NA         ZA         QA         VA         BVA        FA
  0 C      5.8525     6.0000     0.1475     4.1841     4.1841     0.0000
  1 O      8.1782     8.0000    -0.1782     2.3509     2.3509    -0.0000
  2 C      6.1577     6.0000    -0.1577     3.8078     3.8078    -0.0000
  3 C      5.9937     6.0000     0.0063     3.8939     3.8939    -0.0000
  4 C      5.7386     6.0000     0.2614     3.8841     3.8841    -0.0000
  5 C      6.3152     6.0000    -0.3152     4.0146     4.0146     0.0000
  6 C      6.1363     6.0000    -0.1363     4.1775     4.1775     0.0000
  7 N      6.9060     7.0000     0.0940     3.1197     3.1197    -0.0000
  8 C      6.1355     6.0000    -0.1355     4.1568     4.1568     0.0000
  9 N      6.9089     7.0000     0.0911     3.1188     3.1188    -0.0000
 10 C      6.0907     6.0000    -0.0907     3.7260     3.7260    -0.0000
 11 C      5.9600     6.0000     0.0400     3.8137     3.8137     0.0000
 12 C      6.1097     6.0000    -0.1097     3.9149     3.9149     0.0000
 13 C      6.0162     6.0000    -0.0162     3.8648     3.8648    -0.0000
 14 C      6.0308     6.0000    -0.0308     3.8507     3.8507     0.0000
 15 C      6.0255     6.0000    -0.0255     3.9366     3.9366    -0.0000
 16 S     15.8389    16.0000     0.1611     2.4478     2.4478     0.0000
 17 C      6.0332     6.0000    -0.0332     4.0687     4.0687    -0.0000
 18 C      5.9504     6.0000     0.0496     3.5526     3.5526     0.0000
 19 C      5.9619     6.0000     0.0381     3.8527     3.8527    -0.0000
 20 C      5.9925     6.0000     0.0075     3.8341     3.8341    -0.0000
 21 C      5.9967     6.0000     0.0033     3.8188     3.8188    -0.0000
 22 C      6.0179     6.0000    -0.0179     3.9146     3.9146     0.0000
 23 C      5.9360     6.0000     0.0640     4.0059     4.0059     0.0000
 24 C      5.9800     6.0000     0.0200     4.0150     4.0150    -0.0000
 25 C      6.0035     6.0000    -0.0035     3.8433     3.8433     0.0000
 26 C      6.0205     6.0000    -0.0205     3.8253     3.8253    -0.0000
 27 C      5.9471     6.0000     0.0529     3.8322     3.8322    -0.0000
 28 C      6.0242     6.0000    -0.0242     3.8149     3.8149    -0.0000
 29 C      6.0064     6.0000    -0.0064     3.8332     3.8332     0.0000
 30 C      6.0030     6.0000    -0.0030     3.9149     3.9149     0.0000
 31 C      5.9429     6.0000     0.0571     4.0115     4.0115    -0.0000
 32 C      5.9889     6.0000     0.0111     4.0151     4.0151     0.0000
 33 C      6.0216     6.0000    -0.0216     3.8481     3.8481     0.0000
 34 C      6.0169     6.0000    -0.0169     3.7986     3.7986     0.0000
 35 C      5.9815     6.0000     0.0185     3.8434     3.8434     0.0000
 36 C      5.9367     6.0000     0.0633     3.8842     3.8842    -0.0000
 37 C      6.0623     6.0000    -0.0623     3.8236     3.8236    -0.0000
 38 S     15.8318    16.0000     0.1682     2.3805     2.3805    -0.0000
 39 C      6.0877     6.0000    -0.0877     3.7384     3.7384     0.0000
 40 C      5.9634     6.0000     0.0366     3.8477     3.8477    -0.0000
 41 C      5.9552     6.0000     0.0448     3.5651     3.5651    -0.0000
 42 C      5.9261     6.0000     0.0739     3.8131     3.8131    -0.0000
 43 C      6.0262     6.0000    -0.0262     3.8090     3.8090     0.0000
 44 C      6.0359     6.0000    -0.0359     3.8270     3.8270     0.0000
 45 C      5.9876     6.0000     0.0124     3.9180     3.9180    -0.0000
 46 C      5.9227     6.0000     0.0773     3.9965     3.9965    -0.0000
 47 C      5.9985     6.0000     0.0015     4.0219     4.0219     0.0000
 48 C      6.0035     6.0000    -0.0035     3.8554     3.8554     0.0000
 49 C      6.0241     6.0000    -0.0241     3.8134     3.8134     0.0000
 50 C      5.9798     6.0000     0.0202     3.8640     3.8640    -0.0000
 51 C      5.9966     6.0000     0.0034     3.8360     3.8360    -0.0000
 52 C      6.0035     6.0000    -0.0035     3.8194     3.8194     0.0000
 53 C      6.0097     6.0000    -0.0097     3.9170     3.9170     0.0000
 54 C      5.9340     6.0000     0.0660     4.0095     4.0095     0.0000
 55 C      5.9781     6.0000     0.0219     4.0169     4.0169    -0.0000
 56 C      6.0105     6.0000    -0.0105     3.8436     3.8436    -0.0000
 57 C      6.0198     6.0000    -0.0198     3.8240     3.8240    -0.0000
 58 C      6.0337     6.0000    -0.0337     4.0739     4.0739     0.0000
 59 C      6.0629     6.0000    -0.0629     3.8161     3.8161    -0.0000
 60 C      5.9553     6.0000     0.0447     3.8819     3.8819    -0.0000
 61 C      6.0897     6.0000    -0.0897     3.7425     3.7425    -0.0000
 62 S     15.8323    16.0000     0.1677     2.3801     2.3801     0.0000
 63 C      6.0099     6.0000    -0.0099     3.8785     3.8785    -0.0000
 64 C      6.0310     6.0000    -0.0310     3.9622     3.9622    -0.0000
 65 S     15.8307    16.0000     0.1693     2.4792     2.4792     0.0000
 66 C      6.0847     6.0000    -0.0847     3.8076     3.8076     0.0000
 67 C      6.0077     6.0000    -0.0077     3.9222     3.9222    -0.0000
 68 C      5.9528     6.0000     0.0472     3.9018     3.9018    -0.0000
 69 C      6.1494     6.0000    -0.1494     3.7573     3.7573    -0.0000
 70 C      5.7731     6.0000     0.2269     3.8464     3.8464    -0.0000
 71 C      6.2981     6.0000    -0.2981     4.1011     4.1011     0.0000
 72 C      6.1188     6.0000    -0.1188     4.1295     4.1295     0.0000
 73 N      6.9179     7.0000     0.0821     3.0823     3.0823     0.0000
 74 C      6.1520     6.0000    -0.1520     4.1982     4.1982     0.0000
 75 N      6.8702     7.0000     0.1298     3.1558     3.1558     0.0000
 76 C      6.0030     6.0000    -0.0030     3.9355     3.9355     0.0000
 77 C      6.1511     6.0000    -0.1511     3.7508     3.7508    -0.0000
 78 C      5.8681     6.0000     0.1319     4.2449     4.2449     0.0000
 79 O      8.1601     8.0000    -0.1601     2.3790     2.3790    -0.0000
 80 S     15.8028    16.0000     0.1972     2.5296     2.5296    -0.0000
 81 C      6.0693     6.0000    -0.0693     3.7908     3.7908     0.0000
 82 C      5.9662     6.0000     0.0338     3.8535     3.8535    -0.0000
 83 S     15.8020    16.0000     0.1980     2.5358     2.5358     0.0000
 84 C      6.0656     6.0000    -0.0656     3.7937     3.7937     0.0000
 85 C      5.9687     6.0000     0.0313     3.8547     3.8547    -0.0000
 86 H      1.0011     1.0000    -0.0011     1.0357     1.0357    -0.0000
 87 H      0.9817     1.0000     0.0183     1.0601     1.0601     0.0000
 88 H      1.0127     1.0000    -0.0127     0.9841     0.9841    -0.0000
 89 H      1.0315     1.0000    -0.0315     0.9851     0.9851     0.0000
 90 H      0.9956     1.0000     0.0044     0.9806     0.9806     0.0000
 91 H      1.0005     1.0000    -0.0005     0.9817     0.9817     0.0000
 92 H      0.9900     1.0000     0.0100     0.9934     0.9934     0.0000
 93 H      0.9839     1.0000     0.0161     0.9823     0.9823     0.0000
 94 H      0.9904     1.0000     0.0096     0.9912     0.9912     0.0000
 95 H      1.0336     1.0000    -0.0336     0.9855     0.9855     0.0000
 96 H      1.0157     1.0000    -0.0157     0.9890     0.9890     0.0000
 97 H      1.0104     1.0000    -0.0104     0.9861     0.9861     0.0000
 98 H      1.0315     1.0000    -0.0315     0.9847     0.9847     0.0000
 99 H      1.0013     1.0000    -0.0013     0.9830     0.9830     0.0000
100 H      0.9931     1.0000     0.0069     0.9792     0.9792    -0.0000
101 H      0.9880     1.0000     0.0120     0.9902     0.9902     0.0000
102 H      0.9854     1.0000     0.0146     0.9817     0.9817     0.0000
103 H      0.9824     1.0000     0.0176     0.9952     0.9952    -0.0000
104 H      1.0227     1.0000    -0.0227     0.9861     0.9861     0.0000
105 H      1.0017     1.0000    -0.0017     0.9922     0.9922     0.0000
106 H      1.0388     1.0000    -0.0388     1.0048     1.0048     0.0000
107 H      1.0110     1.0000    -0.0110     0.9920     0.9920     0.0000
108 H      1.0164     1.0000    -0.0164     1.0081     1.0081     0.0000
109 H      1.0138     1.0000    -0.0138     0.9855     0.9855    -0.0000
110 H      0.9784     1.0000     0.0216     0.9912     0.9912    -0.0000
111 H      0.9920     1.0000     0.0080     0.9844     0.9844     0.0000
112 H      0.9915     1.0000     0.0085     0.9837     0.9837     0.0000
113 H      0.9783     1.0000     0.0217     0.9996     0.9996     0.0000
114 H      1.0328     1.0000    -0.0328     0.9860     0.9860     0.0000
115 H      1.0157     1.0000    -0.0157     0.9847     0.9847     0.0000
116 H      1.0121     1.0000    -0.0121     0.9848     0.9848     0.0000
117 H      1.0321     1.0000    -0.0321     0.9849     0.9849    -0.0000
118 H      1.0045     1.0000    -0.0045     0.9826     0.9826    -0.0000
119 H      0.9947     1.0000     0.0053     0.9792     0.9792     0.0000
120 H      0.9889     1.0000     0.0111     0.9900     0.9900    -0.0000
121 H      0.9856     1.0000     0.0144     0.9822     0.9822    -0.0000
122 H      0.9919     1.0000     0.0081     0.9941     0.9941    -0.0000
123 H      1.0303     1.0000    -0.0303     0.9853     0.9853     0.0000
124 H      1.0106     1.0000    -0.0106     0.9910     0.9910     0.0000
125 H      1.0383     1.0000    -0.0383     0.9999     0.9999    -0.0000
126 H      0.9998     1.0000     0.0002     0.9938     0.9938     0.0000
127 H      0.9759     1.0000     0.0241     1.0123     1.0123    -0.0000
128 H      0.9556     1.0000     0.0444     0.9927     0.9927     0.0000
129 H      0.9815     1.0000     0.0185     1.0280     1.0280    -0.0000
130 H      0.9557     1.0000     0.0443     0.9926     0.9926    -0.0000
131 H      0.9807     1.0000     0.0193     1.0203     1.0203    -0.0000

  Mayer bond orders larger than 0.100000
B(  0-C ,  1-O ) :   2.0910 B(  0-C ,  2-C ) :   1.0632 B(  0-C , 10-C ) :   0.9423 
B(  2-C ,  3-C ) :   1.4443 B(  2-C , 80-S ) :   1.1281 B(  3-C ,  4-C ) :   1.0124 
B(  3-C , 82-C ) :   1.2591 B(  4-C ,  5-C ) :   1.5798 B(  4-C , 10-C ) :   1.1012 
B(  5-C ,  6-C ) :   1.1455 B(  5-C ,  8-C ) :   1.1409 B(  6-C ,  7-N ) :   2.9397 
B(  8-C ,  9-N ) :   2.9150 B( 10-C , 11-C ) :   1.5610 B( 11-C , 12-C ) :   1.2491 
B( 11-C , 86-H ) :   0.8994 B( 12-C , 13-C ) :   1.4093 B( 12-C , 16-S ) :   1.0533 
B( 13-C , 14-C ) :   1.2958 B( 13-C , 87-H ) :   0.9701 B( 14-C , 15-C ) :   1.3322 
B( 14-C , 38-S ) :   1.0523 B( 15-C , 16-S ) :   1.1115 B( 15-C , 17-C ) :   1.3156 
B( 17-C , 18-C ) :   0.9528 B( 17-C , 37-C ) :   1.5137 B( 18-C , 19-C ) :   0.9040 
B( 18-C , 27-C ) :   0.9365 B( 18-C , 35-C ) :   0.9015 B( 19-C , 20-C ) :   1.4285 
B( 19-C , 26-C ) :   1.3805 B( 20-C , 21-C ) :   1.3464 B( 20-C , 88-H ) :   0.9686 
B( 21-C , 22-C ) :   1.3886 B( 21-C , 89-H ) :   0.9795 B( 22-C , 23-C ) :   1.0372 
B( 22-C , 25-C ) :   1.3763 B( 23-C , 24-C ) :   1.1013 B( 23-C , 90-H ) :   0.9317 
B( 23-C , 91-H ) :   0.9317 B( 24-C , 92-H ) :   0.9699 B( 24-C , 93-H ) :   0.9662 
B( 24-C , 94-H ) :   0.9684 B( 25-C , 26-C ) :   1.3725 B( 25-C , 95-H ) :   0.9825 
B( 26-C , 96-H ) :   0.9819 B( 27-C , 28-C ) :   1.3976 B( 27-C , 34-C ) :   1.3754 
B( 28-C , 29-C ) :   1.3521 B( 28-C , 97-H ) :   0.9832 B( 29-C , 30-C ) :   1.3868 
B( 29-C , 98-H ) :   0.9806 B( 30-C , 31-C ) :   1.0436 B( 30-C , 33-C ) :   1.3719 
B( 31-C , 32-C ) :   1.1018 B( 31-C , 99-H ) :   0.9329 B( 31-C ,100-H ) :   0.9279 
B( 32-C ,101-H ) :   0.9669 B( 32-C ,102-H ) :   0.9651 B( 32-C ,103-H ) :   0.9703 
B( 33-C , 34-C ) :   1.3667 B( 33-C ,104-H ) :   0.9866 B( 34-C ,105-H ) :   0.9817 
B( 35-C , 36-C ) :   1.3431 B( 35-C , 61-C ) :   1.4221 B( 36-C , 37-C ) :   1.0863 
B( 36-C , 39-C ) :   1.2644 B( 37-C , 38-S ) :   1.0767 B( 39-C , 40-C ) :   1.4298 
B( 39-C ,106-H ) :   0.9863 B( 40-C , 41-C ) :   0.9068 B( 40-C , 60-C ) :   1.3340 
B( 41-C , 42-C ) :   0.9352 B( 41-C , 50-C ) :   0.9072 B( 41-C , 58-C ) :   0.9545 
B( 42-C , 43-C ) :   1.3798 B( 42-C , 49-C ) :   1.3801 B( 43-C , 44-C ) :   1.3633 
B( 43-C ,107-H ) :   0.9820 B( 44-C , 45-C ) :   1.3685 B( 44-C ,108-H ) :   0.9816 
B( 45-C , 46-C ) :   1.0428 B( 45-C , 48-C ) :   1.3850 B( 46-C , 47-C ) :   1.1051 
B( 46-C ,109-H ) :   0.9276 B( 46-C ,110-H ) :   0.9244 B( 47-C ,111-H ) :   0.9686 
B( 47-C ,112-H ) :   0.9638 B( 47-C ,113-H ) :   0.9682 B( 48-C , 49-C ) :   1.3662 
B( 48-C ,114-H ) :   0.9802 B( 49-C ,115-H ) :   0.9833 B( 50-C , 51-C ) :   1.4286 
B( 50-C , 57-C ) :   1.3809 B( 51-C , 52-C ) :   1.3478 B( 51-C ,116-H ) :   0.9693 
B( 52-C , 53-C ) :   1.3853 B( 52-C ,117-H ) :   0.9790 B( 53-C , 54-C ) :   1.0379 
B( 53-C , 56-C ) :   1.3806 B( 54-C , 55-C ) :   1.1054 B( 54-C ,118-H ) :   0.9304 
B( 54-C ,119-H ) :   0.9309 B( 55-C ,120-H ) :   0.9678 B( 55-C ,121-H ) :   0.9654 
B( 55-C ,122-H ) :   0.9690 B( 56-C , 57-C ) :   1.3647 B( 56-C ,123-H ) :   0.9822 
B( 57-C ,124-H ) :   0.9799 B( 58-C , 59-C ) :   1.5031 B( 58-C , 64-C ) :   1.3254 
B( 59-C , 60-C ) :   1.0887 B( 59-C , 62-S ) :   1.0746 B( 60-C , 61-C ) :   1.2633 
B( 61-C ,125-H ) :   0.9941 B( 62-S , 63-C ) :   1.0527 B( 63-C , 64-C ) :   1.3526 
B( 63-C , 67-C ) :   1.3008 B( 64-C , 65-S ) :   1.1030 B( 65-S , 66-C ) :   1.0745 
B( 66-C , 67-C ) :   1.4029 B( 66-C , 68-C ) :   1.1723 B( 67-C ,126-H ) :   0.9949 
B( 68-C , 69-C ) :   1.6215 B( 68-C ,127-H ) :   0.9341 B( 69-C , 70-C ) :   1.0459 
B( 69-C , 78-C ) :   0.9403 B( 70-C , 71-C ) :   1.5972 B( 70-C , 76-C ) :   1.0350 
B( 71-C , 72-C ) :   1.1529 B( 71-C , 74-C ) :   1.1658 B( 72-C , 73-N ) :   2.8764 
B( 74-C , 75-N ) :   2.9610 B( 76-C , 77-C ) :   1.4303 B( 76-C , 85-C ) :   1.2663 
B( 77-C , 78-C ) :   1.0245 B( 77-C , 83-S ) :   1.1283 B( 78-C , 79-O ) :   2.1848 
B( 80-S , 81-C ) :   1.1694 B( 81-C , 82-C ) :   1.5286 B( 81-C ,128-H ) :   0.9582 
B( 82-C ,129-H ) :   0.9858 B( 83-S , 84-C ) :   1.1773 B( 84-C , 85-C ) :   1.5195 
B( 84-C ,130-H ) :   0.9594 B( 85-C ,131-H ) :   0.9881 

-------
TIMINGS
-------

Total SCF time: 0 days 0 hours 35 min 29 sec 

Total time                  ....    2129.095 sec
Sum of individual times     ....    2124.709 sec  ( 99.8%)

Fock matrix formation       ....    2027.602 sec  ( 95.2%)
  Split-RI-J                ....     224.746 sec  ( 11.1% of F)
  Chain of spheres X        ....    1766.392 sec  ( 87.1% of F)
  COS-X 1 center corr.      ....       0.000 sec  (  0.0% of F)
  XC integration            ....      35.391 sec  (  1.7% of F)
    Basis function eval.    ....      13.095 sec  ( 37.0% of XC)
    Density eval.           ....      10.191 sec  ( 28.8% of XC)
    XC-Functional eval.     ....       1.279 sec  (  3.6% of XC)
    XC-Potential eval.      ....       9.510 sec  ( 26.9% of XC)
Diagonalization             ....       0.723 sec  (  0.0%)
Density matrix formation    ....       2.230 sec  (  0.1%)
Population analysis         ....       0.395 sec  (  0.0%)
Initial guess               ....       1.158 sec  (  0.1%)
Orbital Transformation      ....       0.000 sec  (  0.0%)
Orbital Orthonormalization  ....       0.918 sec  (  0.0%)
DIIS solution               ....       0.189 sec  (  0.0%)
SOSCF solution              ....       3.586 sec  (  0.2%)
Grid generation             ....      88.827 sec  (  4.2%)


-------------------------------------------------------------------------------
                          DFT DISPERSION CORRECTION                            
                                                                               
                              DFTD3 V3.1  Rev 1                                
                          USING Becke-Johnson damping                          
-------------------------------------------------------------------------------
Gaussians B3LYP functional is recognized, using regular B3LYP params
Active option DFTDOPT                   ...         4   

molecular C6(AA) [au] = 285641.265672 


            DFT-D V3
 parameters
 s6 scaling factor         :     1.0000 
 a1 scaling factor         :     0.3981 
 s8 scaling factor         :     1.9889 
 a2 scaling factor         :     4.4211 
 ad hoc parameters k1-k3   :    16.0000     1.3333    -4.0000 

 Edisp/kcal,au: -257.745987683492  -0.410744332704 
 E6   /kcal   : -117.905619949 
 E8   /kcal   : -139.840367734 
 % E8         :  54.255109455 

-------------------------   ----------------
Dispersion correction           -0.410744333
-------------------------   ----------------


-------------------------   --------------------
FINAL SINGLE POINT ENERGY     -5603.488507489112
-------------------------   --------------------

                                *** OPTIMIZATION RUN DONE ***

                            ***************************************
                            *     ORCA property calculations      *
                            ***************************************

                                    ---------------------
                                    Active property flags
                                    ---------------------
   (+) Dipole Moment


------------------------------------------------------------------------------
                       ORCA ELECTRIC PROPERTIES CALCULATION
------------------------------------------------------------------------------

Dipole Moment Calculation                       ... on
Quadrupole Moment Calculation                   ... off
Polarizability Calculation                      ... off
GBWName                                         ... ITCC.gbw
Electron density file                           ... ITCC.scfp
The origin for moment calculation is the CENTER OF MASS  = (16.567485, -12.400071 -1.767604)

-------------
DIPOLE MOMENT
-------------
                                X             Y             Z
Electronic contribution:    -12.60548      -8.80734      -1.46942
Nuclear contribution   :     12.13551       6.67163       0.88415
                        -----------------------------------------
Total Dipole Moment    :     -0.46997      -2.13571      -0.58527
                        -----------------------------------------
Magnitude (a.u.)       :      2.26378
Magnitude (Debye)      :      5.75406



--------------------
Rotational spectrum 
--------------------
 
Rotational constants in cm-1:     0.001216     0.000251     0.000239 
Rotational constants in MHz :    36.457660     7.520584     7.151961 

 Dipole components along the rotational axes: 
x,y,z [a.u.] :     1.381031    -1.652637     0.697301 
x,y,z [Debye]:     3.510301    -4.200669     1.772398 

 

Timings for individual modules:

Sum of individual times         ...   134550.192 sec (=2242.503 min)
GTO integral calculation        ...      125.334 sec (=   2.089 min)   0.1 %
SCF iterations                  ...   108456.641 sec (=1807.611 min)  80.6 %
SCF Gradient evaluation         ...    25883.691 sec (= 431.395 min)  19.2 %
Geometry relaxation             ...       84.526 sec (=   1.409 min)   0.1 %
                             ****ORCA TERMINATED NORMALLY****
TOTAL RUN TIME: 1 days 13 hours 23 minutes 39 seconds 753 msec
