
                                 *****************
                                 * O   R   C   A *
                                 *****************

           --- An Ab Initio, DFT and Semiempirical electronic structure package ---

                  #######################################################
                  #                        -***-                        #
                  #          Department of theory and spectroscopy      #
                  #               Directorship: Frank Neese             #
                  #        Max Planck Institute fuer Kohlenforschung    #
                  #                Kaiser Wilhelm Platz 1               #
                  #                 D-45470 Muelheim/Ruhr               #
                  #                      Germany                        #
                  #                                                     #
                  #                  All rights reserved                #
                  #                        -***-                        #
                  #######################################################


                         Program Version 4.2.0 -  RELEASE  -


 With contributions from (in alphabetic order):
   Daniel Aravena         : Magnetic Suceptibility
   Michael Atanasov       : Ab Initio Ligand Field Theory (pilot matlab implementation)
   Alexander A. Auer      : GIAO ZORA, VPT2
   Ute Becker             : Parallelization
   Giovanni Bistoni       : ED, misc. LED, open-shell LED, HFLED
   Martin Brehm           : Molecular dynamics
   Dmytro Bykov           : SCF Hessian
   Vijay G. Chilkuri      : MRCI spin determinant printing, contributions to CSF-ICE
   Dipayan Datta          : RHF DLPNO-CCSD density
   Achintya Kumar Dutta   : EOM-CC, STEOM-CC
   Dmitry Ganyushin       : Spin-Orbit,Spin-Spin,Magnetic field MRCI
   Miquel Garcia          : C-PCM Hessian, Gaussian charge scheme
   Yang Guo               : DLPNO-NEVPT2, CIM, IAO-localization
   Andreas Hansen         : Spin unrestricted coupled pair/coupled cluster methods
   Benjamin Helmich-Paris : CASSCF linear response (MC-RPA)
   Lee Huntington         : MR-EOM, pCC
   Robert Izsak           : Overlap fitted RIJCOSX, COSX-SCS-MP3, EOM
   Christian Kollmar      : KDIIS, OOCD, Brueckner-CCSD(T), CCSD density
   Simone Kossmann        : Meta GGA functionals, TD-DFT gradient, OOMP2, MP2 Hessian
   Martin Krupicka        : AUTO-CI
   Lucas Lang             : DCDCAS
   Dagmar Lenk            : GEPOL surface, SMD
   Dimitrios Liakos       : Extrapolation schemes; Compound Job, initial MDCI parallelization
   Dimitrios Manganas     : Further ROCIS development; embedding schemes
   Dimitrios Pantazis     : SARC Basis sets
   Taras Petrenko         : DFT Hessian,TD-DFT gradient, ASA, ECA, R-Raman, ABS, FL, XAS/XES, NRVS
   Peter Pinski           : DLPNO-MP2, DLPNO-MP2 Gradient
   Christoph Reimann      : Effective Core Potentials
   Marius Retegan         : Local ZFS, SOC
   Christoph Riplinger    : Optimizer, TS searches, QM/MM, DLPNO-CCSD(T), (RO)-DLPNO pert. Triples
   Tobias Risthaus        : Range-separated hybrids, TD-DFT gradient, RPA, STAB
   Michael Roemelt        : Original ROCIS implementation
   Masaaki Saitow         : Open-shell DLPNO-CCSD energy and density
   Barbara Sandhoefer     : DKH picture change effects
   Avijit Sen             : IP-ROCIS
   Kantharuban Sivalingam : CASSCF convergence, NEVPT2, FIC-MRCI
   Bernardo de Souza      : ESD, SOC TD-DFT
   Georgi Stoychev        : AutoAux, RI-MP2 NMR
   Willem Van den Heuvel  : Paramagnetic NMR
   Boris Wezisla          : Elementary symmetry handling
   Frank Wennmohs         : Technical directorship


 We gratefully acknowledge several colleagues who have allowed us to
 interface, adapt or use parts of their codes:
   Stefan Grimme, W. Hujo, H. Kruse,             : VdW corrections, initial TS optimization,
                  C. Bannwarth                     DFT functionals, gCP, sTDA/sTD-DF
   Ed Valeev, F. Pavosevic, A. Kumar             : LibInt (2-el integral package), F12 methods
   Garnet Chan, S. Sharma, J. Yang, R. Olivares  : DMRG
   Ulf Ekstrom                                   : XCFun DFT Library
   Mihaly Kallay                                 : mrcc  (arbitrary order and MRCC methods)
   Andreas Klamt, Michael Diedenhofen            : otool_cosmo (COSMO solvation model)
   Jiri Pittner, Ondrej Demel                    : Mk-CCSD
   Frank Weinhold                                : gennbo (NPA and NBO analysis)
   Christopher J. Cramer and Donald G. Truhlar   : smd solvation model
   Lars Goerigk                                  : TD-DFT with DH, B97 family of functionals
   V. Asgeirsson, H. Jonsson                     : NEB implementation
   FAccTs GmbH                                   : IRC, NEB, NEB-TS, Multilevel, MM, QM/MM, CI optimization
   S Lehtola, MJT Oliveira, MAL Marques          : LibXC Library


 Your calculation uses the libint2 library for the computation of 2-el integrals
 For citations please refer to: http://libint.valeyev.net

 Your ORCA version has been built with support for libXC version: 4.2.3
 For citations please refer to: https://tddft.org/programs/libxc/

 This ORCA versions uses:
   CBLAS   interface :  Fast vector & matrix operations
   LAPACKE interface :  Fast linear algebra routines
   SCALAPACK package :  Parallel linear algebra routines


Your calculation utilizes the atom-pairwise dispersion correction
with the Becke-Johnson damping scheme (D3BJ)
Cite in your paper:
S.Grimme, S.Ehrlich, L.Goerigk, J Comput Chem, (2011), 32, 1456–1465 
S.Grimme, J.Antony, S.Ehrlich and H.Krieg, J.Chem.Phys., 132, (2010), 154104 
   

----- Orbital basis set information -----
Your calculation utilizes the basis: def2-SVP
   F. Weigend and R. Ahlrichs, Phys. Chem. Chem. Phys. 7, 3297 (2005).

----- AuxJ basis set information -----
Your calculation utilizes the auxiliary basis: def2/J
   F. Weigend, Phys. Chem. Chem. Phys. 8, 1057 (2006).

================================================================================
                                        WARNINGS
                       Please study these warnings very carefully!
================================================================================


WARNING: Geometry Optimization
  ===> : Switching off AutoStart
         For restart on a previous wavefunction, please use MOREAD

INFO   : the flag for use of LIBINT has been found!

================================================================================
                                       INPUT FILE
================================================================================
NAME = PCBM.inp
|  1> # ORCA input file
|  2> # SCF done       -169.472675766992          0.000336186715
|  3> ! B3LYP/G D3BJ Opt RIJCOSX def2-SVP def2/J
|  4> * xyz 0 1
|  5>    C        0.30559        -2.43478         1.23997
|  6>    C        0.71540        -2.31512        -0.12843
|  7>    C        1.48289        -1.06491        -0.28305
|  8>    C        1.27037        -0.33412         0.98111
|  9>    C        0.64873        -1.21707         1.92221
| 10>    C       -0.17297        -0.73013         2.93128
| 11>    C       -0.44010         0.67684         3.00241
| 12>    C        0.12795         1.52917         2.06123
| 13>    C        0.99600         1.01620         1.03496
| 14>    C        0.73618         1.77347        -0.18283
| 15>    C        0.76051         1.15709        -1.41614
| 16>    C        1.20016        -0.23852        -1.61125
| 17>    C        0.20131        -0.82253        -2.52668
| 18>    C       -0.35453        -2.07191        -2.33862
| 19>    C       -0.09312        -2.83049        -1.12074
| 20>    C       -1.30351        -3.52650        -0.77324
| 21>    C       -2.30619        -3.21484        -1.75864
| 22>    C       -1.72053        -2.31606        -2.71909
| 23>    C       -2.49439        -1.30163        -3.27224
| 24>    C       -1.92703         0.00438        -3.44170
| 25>    C       -0.61337         0.23359        -3.05111
| 26>    C       -0.26870         1.45095        -2.36876
| 27>    C       -1.24999         2.39752        -2.10052
| 28>    C       -1.26012         3.05771        -0.82771
| 29>    C       -0.28838         2.73906         0.11516
| 30>    C       -0.66187         2.59368         1.49841
| 31>    C       -1.98266         2.76578         1.88837
| 32>    C       -2.57182         1.87291         2.85528
| 33>    C       -1.81343         0.84782         3.40282
| 34>    C       -2.39323        -0.46138         3.57902
| 35>    C       -3.70740        -0.69635         3.19812
| 36>    C       -4.49377         0.36971         2.63089
| 37>    C       -3.93650         1.63060         2.46445
| 38>    C       -4.19465         2.37962         1.25918
| 39>    C       -2.98926         3.08414         0.90626
| 40>    C       -2.63363         3.22839        -0.42732
| 41>    C       -3.47226         2.67029        -1.45991
| 42>    C       -2.61481         2.15656        -2.49760
| 43>    C       -2.94728         0.98206        -3.15624
| 44>    C       -4.15095         0.27232        -2.80498
| 45>    C       -3.87053        -1.14083        -2.87777
| 46>    C       -4.43023        -2.00678        -1.94886
| 47>    C       -3.63395        -3.06717        -1.38267
| 48>    C       -4.01292        -3.21826         0.00025
| 49>    C       -5.03356        -2.24485         0.29110
| 50>    C       -5.29168        -1.49576        -0.91419
| 51>    C       -5.55922        -0.13516        -0.84202
| 52>    C       -4.97776         0.76576        -1.80482
| 53>    C       -4.63206         1.98712        -1.11980
| 54>    C       -5.00039         1.83968         0.26556
| 55>    C       -5.57495         0.52895         0.43718
| 56>    C       -5.32645        -0.19192         1.59708
| 57>    C       -5.05260        -1.60516         1.52333
| 58>    C       -4.05295        -1.91777         2.51311
| 59>    C       -3.07172        -2.85946         2.23411
| 60>    C       -3.05018        -3.52160         0.95266
| 61>    C       -1.67412        -3.68308         0.55808
| 62>    C       -0.84965        -3.12326         1.58920
| 63>    C       -1.70817        -2.61400         2.62945
| 64>    C       -1.37601        -1.43947         3.28828
| 65>    C        2.56334        -0.78185        -1.28512
| 66>    C        3.09186        -1.94100        -2.11065
| 67>    C        3.60142         0.21917        -0.88996
| 68>    C        4.23428         0.13767         0.34323
| 69>    C        5.20855         1.05749         0.68737
| 70>    C        5.55728         2.06446        -0.19624
| 71>    C        4.92939         2.14943        -1.42741
| 72>    C        3.95542         1.23052        -1.77355
| 73>    H        5.69644         0.98645         1.64797
| 74>    H        6.31818         2.78150         0.07347
| 75>    H        3.96257        -0.64680         1.03420
| 76>    H        3.46059         1.29742        -2.73213
| 77>    H        5.19873         2.93333        -2.11976
| 78>    C        3.94725        -2.88121        -1.26451
| 79>    H        3.68924        -1.53750        -2.93234
| 80>    H        2.25721        -2.49711        -2.54039
| 81>    H        3.35872        -3.25844        -0.42603
| 82>    C        4.45478        -4.06045        -2.08596
| 83>    H        4.79917        -2.33820        -0.85204
| 84>    H        5.04791        -3.71976        -2.93705
| 85>    H        3.62006        -4.64307        -2.48300
| 86>    C        5.31281        -4.98892        -1.25710
| 87>    O        5.51344        -4.89199        -0.07686
| 88>    O        5.83538        -5.95738        -2.02162
| 89>    C        6.66155        -6.90533        -1.35822
| 90>    H        7.04757        -7.56491        -2.13081
| 91>    H        6.07877        -7.47014        -0.62794
| 92>    H        7.47817        -6.39897        -0.84003
| 93> *
| 94> 
| 95>                          ****END OF INPUT****
================================================================================

                       *****************************
                       * Geometry Optimization Run *
                       *****************************

Geometry optimization settings:
Update method            Update   .... BFGS
Choice of coordinates    CoordSys .... Z-matrix Internals
Initial Hessian          InHess   .... Almoef's Model

Convergence Tolerances:
Energy Change            TolE     ....  5.0000e-06 Eh
Max. Gradient            TolMAXG  ....  3.0000e-04 Eh/bohr
RMS Gradient             TolRMSG  ....  1.0000e-04 Eh/bohr
Max. Displacement        TolMAXD  ....  4.0000e-03 bohr
RMS Displacement         TolRMSD  ....  2.0000e-03 bohr
Strict Convergence                ....  False
------------------------------------------------------------------------------
                        ORCA OPTIMIZATION COORDINATE SETUP
------------------------------------------------------------------------------

The optimization will be done in new redundant internal coordinates
Making redundant internal coordinates   ...  (new redundants) done
Evaluating the initial hessian          ...  (Almloef) done
Evaluating the coordinates              ...  done
Calculating the B-matrix                .... done
Calculating the G-matrix                .... done
Diagonalizing the G-matrix              .... done
Small eigenvalue found = 1.373e-03
Small eigenvalue found = 3.247e-03
Small eigenvalue found = 6.812e-03
Small eigenvalue found = 8.942e-03
Small eigenvalue found = 1.921e-02
Small eigenvalue found = 2.257e-02
The first mode is                       ....  556
The number of degrees of freedom        ....  258

    -----------------------------------------------------------------
                    Redundant Internal Coordinates


    -----------------------------------------------------------------
         Definition                    Initial Value    Approx d2E/dq
    -----------------------------------------------------------------
      1. B(C   1,C   0)                  1.4335         0.532618   
      2. B(C   2,C   1)                  1.4751         0.457023   
      3. B(C   3,C   2)                  1.4756         0.456258   
      4. B(C   4,C   3)                  1.4324         0.534721   
      5. B(C   4,C   0)                  1.4374         0.525016   
      6. B(C   5,C   4)                  1.3894         0.626100   
      7. B(C   6,C   5)                  1.4339         0.531799   
      8. B(C   7,C   6)                  1.3910         0.622435   
      9. B(C   8,C   7)                  1.4387         0.522431   
     10. B(C   8,C   3)                  1.3790         0.650647   
     11. B(C   9,C   8)                  1.4574         0.487783   
     12. B(C  10,C   9)                  1.3790         0.650623   
     13. B(C  11,C  10)                  1.4762         0.455255   
     14. B(C  11,C   2)                  1.5896         0.300066   
     15. B(C  12,C  11)                  1.4754         0.456564   
     16. B(C  13,C  12)                  1.3803         0.647422   
     17. B(C  14,C  13)                  1.4584         0.485922   
     18. B(C  14,C   1)                  1.3799         0.648530   
     19. B(C  15,C  14)                  1.4388         0.522197   
     20. B(C  16,C  15)                  1.4400         0.520014   
     21. B(C  17,C  16)                  1.4399         0.520177   
     22. B(C  17,C  13)                  1.4389         0.522135   
     23. B(C  18,C  17)                  1.3906         0.623310   
     24. B(C  19,C  18)                  1.4340         0.531599   
     25. B(C  20,C  19)                  1.3895         0.625871   
     26. B(C  20,C  12)                  1.4332         0.533069   
     27. B(C  21,C  20)                  1.4375         0.524782   
     28. B(C  21,C  10)                  1.4329         0.533758   
     29. B(C  22,C  21)                  1.3896         0.625807   
     30. B(C  23,C  22)                  1.4339         0.531787   
     31. B(C  24,C   9)                  1.4391         0.521760   
     32. B(C  24,C  23)                  1.3910         0.622555   
     33. B(C  25,C  24)                  1.4401         0.519684   
     34. B(C  25,C   7)                  1.4401         0.519848   
     35. B(C  26,C  25)                  1.3879         0.629713   
     36. B(C  27,C  26)                  1.4420         0.516231   
     37. B(C  28,C  27)                  1.3877         0.630053   
     38. B(C  28,C   6)                  1.4407         0.518633   
     39. B(C  29,C  28)                  1.4426         0.514932   
     40. B(C  30,C  29)                  1.3883         0.628743   
     41. B(C  31,C  30)                  1.4410         0.517963   
     42. B(C  32,C  31)                  1.3886         0.628113   
     43. B(C  32,C  27)                  1.4401         0.519814   
     44. B(C  33,C  32)                  1.4423         0.515503   
     45. B(C  34,C  33)                  1.4401         0.519780   
     46. B(C  34,C  26)                  1.4419         0.516299   
     47. B(C  35,C  34)                  1.3877         0.630094   
     48. B(C  35,C  23)                  1.4408         0.518385   
     49. B(C  36,C  35)                  1.4426         0.515064   
     50. B(C  37,C  36)                  1.4408         0.518407   
     51. B(C  37,C  22)                  1.4417         0.516739   
     52. B(C  38,C  37)                  1.3870         0.631700   
     53. B(C  38,C  19)                  1.4416         0.516879   
     54. B(C  39,C  38)                  1.4408         0.518410   
     55. B(C  40,C  39)                  1.4425         0.515124   
     56. B(C  40,C  18)                  1.4406         0.518880   
     57. B(C  41,C  40)                  1.3878         0.629851   
     58. B(C  42,C  41)                  1.4419         0.516350   
     59. B(C  42,C  16)                  1.3878         0.629768   
     60. B(C  43,C  42)                  1.4418         0.516446   
     61. B(C  44,C  43)                  1.4401         0.519806   
     62. B(C  45,C  44)                  1.4424         0.515413   
     63. B(C  45,C  41)                  1.4401         0.519837   
     64. B(C  46,C  45)                  1.3885         0.628177   
     65. B(C  47,C  46)                  1.4411         0.517881   
     66. B(C  47,C  39)                  1.3883         0.628677   
     67. B(C  48,C  47)                  1.4424         0.515416   
     68. B(C  48,C  36)                  1.3884         0.628582   
     69. B(C  49,C  48)                  1.4411         0.517953   
     70. B(C  49,C  33)                  1.3885         0.628165   
     71. B(C  50,C  49)                  1.4414         0.517321   
     72. B(C  50,C  46)                  1.4414         0.517283   
     73. B(C  51,C  50)                  1.3881         0.629213   
     74. B(C  51,C  31)                  1.4414         0.517346   
     75. B(C  52,C  51)                  1.4414         0.517258   
     76. B(C  52,C  44)                  1.3885         0.628229   
     77. B(C  53,C  52)                  1.4411         0.517912   
     78. B(C  53,C  30)                  1.4424         0.515397   
     79. B(C  54,C  53)                  1.3883         0.628664   
     80. B(C  55,C  54)                  1.4426         0.515071   
     81. B(C  55,C  43)                  1.3878         0.629884   
     82. B(C  56,C  55)                  1.4406         0.518823   
     83. B(C  56,C  15)                  1.3908         0.622998   
     84. B(C  57,C  56)                  1.4340         0.531543   
     85. B(C  57,C   0)                  1.3894         0.626081   
     86. B(C  58,C  57)                  1.4417         0.516704   
     87. B(C  58,C  54)                  1.4408         0.518491   
     88. B(C  59,C  58)                  1.3871         0.631604   
     89. B(C  59,C  29)                  1.4408         0.518416   
     90. B(C  59,C   5)                  1.4415         0.517102   
     91. B(C  60,C  11)                  1.5033         0.412116   
     92. B(C  60,C   2)                  1.5005         0.416264   
     93. B(C  61,C  60)                  1.5180         0.390346   
     94. B(C  62,C  60)                  1.4953         0.424427   
     95. B(C  63,C  62)                  1.3885         0.628266   
     96. B(C  64,C  63)                  1.3834         0.640209   
     97. B(C  65,C  64)                  1.3843         0.637949   
     98. B(C  66,C  65)                  1.3846         0.637206   
     99. B(C  67,C  66)                  1.3830         0.640955   
    100. B(C  67,C  62)                  1.3888         0.627465   
    101. B(H  68,C  64)                  1.0797         0.373933   
    102. B(H  69,C  65)                  1.0797         0.373919   
    103. B(H  70,C  63)                  1.0801         0.373410   
    104. B(H  71,C  67)                  1.0808         0.372428   
    105. B(H  72,C  66)                  1.0800         0.373580   
    106. B(C  73,C  61)                  1.5270         0.377755   
    107. B(H  74,C  61)                  1.0931         0.356033   
    108. B(H  75,C  61)                  1.0911         0.358602   
    109. B(H  76,C  73)                  1.0917         0.357912   
    110. B(C  77,C  73)                  1.5241         0.381717   
    111. B(H  78,C  73)                  1.0912         0.358491   
    112. B(H  79,C  77)                  1.0919         0.357606   
    113. B(H  80,C  77)                  1.0926         0.356635   
    114. B(C  81,C  77)                  1.5117         0.399531   
    115. B(O  82,C  81)                  1.2011         1.120137   
    116. B(O  83,C  81)                  1.3400         0.672536   
    117. B(C  84,O  83)                  1.4217         0.498059   
    118. B(H  85,C  84)                  1.0867         0.364470   
    119. B(H  86,C  84)                  1.0918         0.357772   
    120. B(H  87,C  84)                  1.0917         0.357870   
    121. A(C   4,C   0,C  57)          119.9322         0.422055   
    122. A(C   1,C   0,C  57)          121.2655         0.423140   
    123. A(C   1,C   0,C   4)          108.3087         0.410088   
    124. A(C   0,C   1,C   2)          108.6362         0.400165   
    125. A(C   0,C   1,C  14)          119.1969         0.425815   
    126. A(C   2,C   1,C  14)          123.0953         0.414346   
    127. A(C   3,C   2,C  11)          115.6416         0.362163   
    128. A(C  11,C   2,C  60)           58.1314         0.356550   
    129. A(C   1,C   2,C  11)          115.8259         0.362267   
    130. A(C   1,C   2,C  60)          127.1931         0.383280   
    131. A(C   3,C   2,C  60)          125.6197         0.383169   
    132. A(C   1,C   2,C   3)          104.7743         0.389455   
    133. A(C   2,C   3,C   4)          108.6691         0.400324   
    134. A(C   4,C   3,C   8)          119.4465         0.426364   
    135. A(C   2,C   3,C   8)          123.1671         0.414462   
    136. A(C   0,C   4,C   3)          108.2991         0.410374   
    137. A(C   0,C   4,C   5)          120.0285         0.422057   
    138. A(C   3,C   4,C   5)          121.1838         0.423441   
    139. A(C   4,C   5,C  59)          120.0640         0.420914   
    140. A(C   6,C   5,C  59)          108.3660         0.408874   
    141. A(C   4,C   5,C   6)          119.3464         0.423026   
    142. A(C   5,C   6,C  28)          107.9284         0.409088   
    143. A(C   7,C   6,C  28)          120.3049         0.420695   
    144. A(C   5,C   6,C   7)          119.4454         0.422583   
    145. A(C   6,C   7,C  25)          119.5646         0.420871   
    146. A(C   6,C   7,C   8)          120.7013         0.421243   
    147. A(C   8,C   7,C  25)          108.4027         0.407972   
    148. A(C   3,C   8,C   7)          119.8048         0.424594   
    149. A(C   3,C   8,C   9)          120.7741         0.419422   
    150. A(C   7,C   8,C   9)          107.6514         0.403409   
    151. A(C   8,C   9,C  10)          120.7925         0.419419   
    152. A(C  10,C   9,C  24)          119.8468         0.424493   
    153. A(C   8,C   9,C  24)          107.6108         0.403317   
    154. A(C   9,C  10,C  21)          119.3579         0.426224   
    155. A(C   9,C  10,C  11)          123.0968         0.414298   
    156. A(C  11,C  10,C  21)          108.6597         0.400042   
    157. A(C  10,C  11,C  12)          104.7502         0.389237   
    158. A(C  12,C  11,C  60)          127.2617         0.382547   
    159. A(C   2,C  11,C  12)          115.6614         0.362205   
    160. A(C  10,C  11,C  60)          125.6694         0.382357   
    161. A(C   2,C  11,C  60)           57.9647         0.355944   
    162. A(C   2,C  11,C  10)          115.7232         0.362027   
    163. A(C  13,C  12,C  20)          119.2052         0.425749   
    164. A(C  11,C  12,C  13)          123.1186         0.414146   
    165. A(C  11,C  12,C  20)          108.6737         0.400153   
    166. A(C  12,C  13,C  17)          119.9907         0.424173   
    167. A(C  12,C  13,C  14)          120.8231         0.418765   
    168. A(C  14,C  13,C  17)          107.6209         0.403097   
    169. A(C   1,C  14,C  15)          119.9938         0.424312   
    170. A(C   1,C  14,C  13)          120.7496         0.418892   
    171. A(C  13,C  14,C  15)          107.6081         0.403105   
    172. A(C  14,C  15,C  16)          108.4089         0.407963   
    173. A(C  16,C  15,C  56)          119.5957         0.420963   
    174. A(C  14,C  15,C  56)          120.6517         0.421278   
    175. A(C  17,C  16,C  42)          120.2263         0.421800   
    176. A(C  15,C  16,C  17)          107.9593         0.407683   
    177. A(C  15,C  16,C  42)          120.2531         0.421776   
    178. A(C  13,C  17,C  16)          108.4019         0.407977   
    179. A(C  16,C  17,C  18)          119.6246         0.421024   
    180. A(C  13,C  17,C  18)          120.6436         0.421307   
    181. A(C  17,C  18,C  40)          120.2712         0.420837   
    182. A(C  17,C  18,C  19)          119.4198         0.422660   
    183. A(C  19,C  18,C  40)          107.9785         0.409096   
    184. A(C  20,C  19,C  38)          120.1019         0.420854   
    185. A(C  18,C  19,C  38)          108.3158         0.408816   
    186. A(C  18,C  19,C  20)          119.4108         0.422970   
    187. A(C  12,C  20,C  19)          121.2445         0.423179   
    188. A(C  19,C  20,C  21)          119.9872         0.421996   
    189. A(C  12,C  20,C  21)          108.3041         0.410117   
    190. A(C  20,C  21,C  22)          119.9468         0.421988   
    191. A(C  10,C  21,C  22)          121.2391         0.423269   
    192. A(C  10,C  21,C  20)          108.3084         0.410211   
    193. A(C  21,C  22,C  23)          119.3396         0.422989   
    194. A(C  23,C  22,C  37)          108.3460         0.408822   
    195. A(C  21,C  22,C  37)          120.1001         0.420826   
    196. A(C  22,C  23,C  24)          119.4257         0.422596   
    197. A(C  24,C  23,C  35)          120.3137         0.420674   
    198. A(C  22,C  23,C  35)          107.9358         0.409052   
    199. A(C   9,C  24,C  25)          108.4092         0.407857   
    200. A(C  23,C  24,C  25)          119.5391         0.420862   
    201. A(C   9,C  24,C  23)          120.7124         0.421161   
    202. A(C  24,C  25,C  26)          120.2762         0.421721   
    203. A(C   7,C  25,C  26)          120.2522         0.421745   
    204. A(C   7,C  25,C  24)          107.9252         0.407592   
    205. A(C  25,C  26,C  27)          120.0307         0.421220   
    206. A(C  27,C  26,C  34)          107.9511         0.406619   
    207. A(C  25,C  26,C  34)          120.0237         0.421230   
    208. A(C  28,C  27,C  32)          120.0449         0.421781   
    209. A(C  26,C  27,C  32)          108.0228         0.407107   
    210. A(C  26,C  27,C  28)          119.9129         0.421260   
    211. A(C  27,C  28,C  29)          119.9279         0.421071   
    212. A(C   6,C  28,C  29)          108.0203         0.406762   
    213. A(C   6,C  28,C  27)          119.9309         0.421610   
    214. A(C  28,C  29,C  59)          107.9185         0.406732   
    215. A(C  30,C  29,C  59)          119.8714         0.421422   
    216. A(C  28,C  29,C  30)          120.0351         0.420915   
    217. A(C  29,C  30,C  53)          120.0264         0.420982   
    218. A(C  29,C  30,C  31)          119.9570         0.421356   
    219. A(C  31,C  30,C  53)          107.9857         0.406734   
    220. A(C  30,C  31,C  32)          119.9962         0.421280   
    221. A(C  32,C  31,C  51)          119.9802         0.421191   
    222. A(C  30,C  31,C  51)          108.0179         0.407005   
    223. A(C  31,C  32,C  33)          119.9931         0.420923   
    224. A(C  27,C  32,C  33)          108.0000         0.407005   
    225. A(C  27,C  32,C  31)          120.0383         0.421549   
    226. A(C  34,C  33,C  49)          120.0381         0.421550   
    227. A(C  32,C  33,C  49)          119.9929         0.420929   
    228. A(C  32,C  33,C  34)          108.0009         0.407000   
    229. A(C  33,C  34,C  35)          120.0575         0.421781   
    230. A(C  26,C  34,C  35)          119.9071         0.421275   
    231. A(C  26,C  34,C  33)          108.0225         0.407112   
    232. A(C  34,C  35,C  36)          119.9129         0.421095   
    233. A(C  23,C  35,C  36)          108.0255         0.406746   
    234. A(C  23,C  35,C  34)          119.9364         0.421579   
    235. A(C  37,C  36,C  48)          119.8762         0.421401   
    236. A(C  35,C  36,C  48)          120.0437         0.420915   
    237. A(C  35,C  36,C  37)          107.9088         0.406749   
    238. A(C  36,C  37,C  38)          120.0846         0.421774   
    239. A(C  22,C  37,C  38)          119.9499         0.421531   
    240. A(C  22,C  37,C  36)          107.7838         0.406983   
    241. A(C  37,C  38,C  39)          120.1064         0.421774   
    242. A(C  19,C  38,C  39)          107.7843         0.407002   
    243. A(C  19,C  38,C  37)          119.9117         0.421551   
    244. A(C  40,C  39,C  47)          120.0201         0.420935   
    245. A(C  38,C  39,C  47)          119.8730         0.421413   
    246. A(C  38,C  39,C  40)          107.9304         0.406758   
    247. A(C  39,C  40,C  41)          119.9394         0.421075   
    248. A(C  18,C  40,C  41)          119.9271         0.421621   
    249. A(C  18,C  40,C  39)          107.9909         0.406823   
    250. A(C  42,C  41,C  45)          108.0107         0.407127   
    251. A(C  40,C  41,C  45)          120.0492         0.421760   
    252. A(C  40,C  41,C  42)          119.9329         0.421254   
    253. A(C  41,C  42,C  43)          107.9711         0.406656   
    254. A(C  16,C  42,C  43)          120.0093         0.421258   
    255. A(C  16,C  42,C  41)          120.0140         0.421244   
    256. A(C  42,C  43,C  44)          108.0089         0.407136   
    257. A(C  44,C  43,C  55)          120.0534         0.421760   
    258. A(C  42,C  43,C  55)          119.9206         0.421272   
    259. A(C  43,C  44,C  45)          108.0054         0.406991   
    260. A(C  45,C  44,C  52)          119.9904         0.420923   
    261. A(C  43,C  44,C  52)          120.0240         0.421561   
    262. A(C  44,C  45,C  46)          119.9961         0.420917   
    263. A(C  41,C  45,C  46)          120.0216         0.421560   
    264. A(C  41,C  45,C  44)          108.0015         0.406996   
    265. A(C  45,C  46,C  47)          120.0081         0.421276   
    266. A(C  47,C  46,C  50)          108.0163         0.406985   
    267. A(C  45,C  46,C  50)          119.9802         0.421189   
    268. A(C  46,C  47,C  48)          107.9854         0.406725   
    269. A(C  39,C  47,C  48)          120.0240         0.420977   
    270. A(C  39,C  47,C  46)          119.9609         0.421336   
    271. A(C  36,C  48,C  47)          120.0358         0.420966   
    272. A(C  47,C  48,C  49)          107.9792         0.406735   
    273. A(C  36,C  48,C  49)          119.9585         0.421335   
    274. A(C  48,C  49,C  50)          108.0225         0.407000   
    275. A(C  33,C  49,C  50)          119.9812         0.421193   
    276. A(C  33,C  49,C  48)          119.9887         0.421285   
    277. A(C  49,C  50,C  51)          120.0255         0.421319   
    278. A(C  46,C  50,C  51)          120.0233         0.421313   
    279. A(C  46,C  50,C  49)          107.9964         0.406907   
    280. A(C  50,C  51,C  52)          120.0287         0.421310   
    281. A(C  31,C  51,C  52)          107.9975         0.406907   
    282. A(C  31,C  51,C  50)          120.0266         0.421322   
    283. A(C  51,C  52,C  53)          108.0193         0.406986   
    284. A(C  44,C  52,C  53)          120.0053         0.421287   
    285. A(C  44,C  52,C  51)          119.9807         0.421192   
    286. A(C  52,C  53,C  54)          119.9598         0.421339   
    287. A(C  30,C  53,C  54)          120.0330         0.420973   
    288. A(C  30,C  53,C  52)          107.9794         0.406727   
    289. A(C  55,C  54,C  58)          107.9276         0.406761   
    290. A(C  53,C  54,C  58)          119.8805         0.421423   
    291. A(C  53,C  54,C  55)          120.0270         0.420925   
    292. A(C  54,C  55,C  56)          108.0003         0.406808   
    293. A(C  43,C  55,C  56)          119.9453         0.421617   
    294. A(C  43,C  55,C  54)          119.9300         0.421071   
    295. A(C  55,C  56,C  57)          107.9676         0.409080   
    296. A(C  15,C  56,C  57)          119.4160         0.422615   
    297. A(C  15,C  56,C  55)          120.2722         0.420791   
    298. A(C  56,C  57,C  58)          108.3216         0.408784   
    299. A(C   0,C  57,C  58)          120.0953         0.420854   
    300. A(C   0,C  57,C  56)          119.3895         0.422988   
    301. A(C  57,C  58,C  59)          119.9491         0.421514   
    302. A(C  54,C  58,C  59)          120.0818         0.421774   
    303. A(C  54,C  58,C  57)          107.7826         0.406989   
    304. A(C  29,C  59,C  58)          120.1069         0.421763   
    305. A(C   5,C  59,C  58)          119.9281         0.421572   
    306. A(C   5,C  59,C  29)          107.7666         0.407034   
    307. A(C  61,C  60,C  62)          114.4058         0.374213   
    308. A(C  11,C  60,C  62)          116.4181         0.377738   
    309. A(C   2,C  60,C  62)          116.7236         0.378393   
    310. A(C  11,C  60,C  61)          118.2758         0.372319   
    311. A(C   2,C  60,C  61)          118.0217         0.372962   
    312. A(C   2,C  60,C  11)           63.9039         0.376471   
    313. A(H  74,C  61,H  75)          108.0663         0.290131   
    314. A(C  60,C  61,H  75)          109.6958         0.326445   
    315. A(C  73,C  61,H  74)          109.7363         0.324307   
    316. A(C  60,C  61,H  74)          108.4933         0.326059   
    317. A(C  60,C  61,C  73)          111.3372         0.366791   
    318. A(C  73,C  61,H  75)          109.4469         0.324690   
    319. A(C  63,C  62,C  67)          119.4468         0.436041   
    320. A(C  60,C  62,C  67)          119.7570         0.406560   
    321. A(C  60,C  62,C  63)          120.7872         0.406652   
    322. A(C  64,C  63,H  70)          120.0620         0.357025   
    323. A(C  62,C  63,H  70)          119.7448         0.355885   
    324. A(C  62,C  63,C  64)          120.1932         0.437624   
    325. A(C  65,C  64,H  68)          120.1254         0.356895   
    326. A(C  63,C  64,H  68)          119.7229         0.357110   
    327. A(C  63,C  64,C  65)          120.1516         0.438833   
    328. A(C  66,C  65,H  69)          120.0601         0.356822   
    329. A(C  64,C  65,H  69)          120.0754         0.356893   
    330. A(C  64,C  65,C  66)          119.8644         0.438461   
    331. A(C  67,C  66,H  72)          119.8304         0.357123   
    332. A(C  65,C  66,H  72)          120.0968         0.356767   
    333. A(C  65,C  66,C  67)          120.0728         0.438833   
    334. A(C  66,C  67,H  71)          120.2150         0.356936   
    335. A(C  62,C  67,H  71)          119.5131         0.355649   
    336. A(C  62,C  67,C  66)          120.2712         0.437615   
    337. A(C  77,C  73,H  78)          109.1938         0.325230   
    338. A(H  76,C  73,H  78)          107.6090         0.290357   
    339. A(C  61,C  73,H  78)          109.9010         0.324673   
    340. A(H  76,C  73,C  77)          109.0339         0.325144   
    341. A(C  61,C  73,C  77)          111.3637         0.365389   
    342. A(C  61,C  73,H  76)          109.6565         0.324587   
    343. A(H  80,C  77,C  81)          107.7792         0.327402   
    344. A(H  79,C  77,C  81)          108.1007         0.327548   
    345. A(C  73,C  77,C  81)          111.6353         0.368917   
    346. A(H  79,C  77,H  80)          107.3450         0.290082   
    347. A(C  73,C  77,H  80)          110.7333         0.324953   
    348. A(C  73,C  77,H  79)          111.0743         0.325098   
    349. A(O  82,C  81,O  83)          123.6305         0.484241   
    350. A(C  77,C  81,O  83)          110.6358         0.404584   
    351. A(C  77,C  81,O  82)          125.7337         0.443210   
    352. A(C  81,O  83,C  84)          116.2509         0.417998   
    353. A(H  86,C  84,H  87)          108.7687         0.290260   
    354. A(H  85,C  84,H  87)          110.6873         0.291107   
    355. A(O  83,C  84,H  87)          110.2985         0.337730   
    356. A(H  85,C  84,H  86)          110.5585         0.291094   
    357. A(O  83,C  84,H  86)          110.2960         0.337714   
    358. A(O  83,C  84,H  85)          106.2228         0.338761   
    359. D(C  14,C   1,C   0,C  57)      3.6286         0.019368   
    360. D(C   2,C   1,C   0,C  57)    151.6850         0.019368   
    361. D(C   2,C   1,C   0,C   4)      7.0196         0.019368   
    362. D(C  14,C   1,C   0,C   4)   -141.0369         0.019368   
    363. D(C   3,C   2,C   1,C  14)    135.4666         0.015400   
    364. D(C  60,C   2,C   1,C  14)    -61.5462         0.015400   
    365. D(C  60,C   2,C   1,C   0)    151.9103         0.015400   
    366. D(C   3,C   2,C   1,C   0)    -11.0769         0.015400   
    367. D(C  11,C   2,C   1,C  14)      6.7964         0.015400   
    368. D(C  11,C   2,C   1,C   0)   -139.7471         0.015400   
    369. D(C   4,C   3,C   2,C   1)     11.1604         0.015349   
    370. D(C   8,C   3,C   2,C  11)     -7.2766         0.015349   
    371. D(C   4,C   3,C   2,C  60)   -152.1780         0.015349   
    372. D(C   4,C   3,C   2,C  11)    139.9414         0.015349   
    373. D(C   8,C   3,C   2,C  60)     60.6041         0.015349   
    374. D(C   8,C   3,C   2,C   1)   -136.0575         0.015349   
    375. D(C   5,C   4,C   3,C   8)     -3.2984         0.019526   
    376. D(C   0,C   4,C   3,C   2)     -7.2227         0.019526   
    377. D(C   0,C   4,C   3,C   8)    141.4136         0.019526   
    378. D(C   5,C   4,C   3,C   2)   -151.9347         0.019526   
    379. D(C   5,C   4,C   0,C  57)      0.0987         0.018806   
    380. D(C   5,C   4,C   0,C   1)    145.3175         0.018806   
    381. D(C   3,C   4,C   0,C   1)      0.1261         0.018806   
    382. D(C   3,C   4,C   0,C  57)   -145.0927         0.018806   
    383. D(C  59,C   5,C   4,C   3)    140.2007         0.027158   
    384. D(C  59,C   5,C   4,C   0)     -0.4901         0.027158   
    385. D(C   6,C   5,C   4,C   3)      2.2037         0.027158   
    386. D(C   6,C   5,C   4,C   0)   -138.4871         0.027158   
    387. D(C  28,C   6,C   5,C   4)    142.3131         0.019307   
    388. D(C  28,C   6,C   5,C  59)     -0.0810         0.019307   
    389. D(C   7,C   6,C   5,C   4)     -0.0287         0.019307   
    390. D(C   7,C   6,C   5,C  59)   -142.4228         0.019307   
    391. D(C  25,C   7,C   6,C  28)      0.6264         0.026822   
    392. D(C   8,C   7,C   6,C   5)     -1.0661         0.026822   
    393. D(C  25,C   7,C   6,C   5)    138.3053         0.026822   
    394. D(C   8,C   7,C   6,C  28)   -138.7449         0.026822   
    395. D(C   9,C   8,C   7,C  25)     -0.1464         0.018617   
    396. D(C   9,C   8,C   3,C   2)      7.6684         0.029480   
    397. D(C   7,C   8,C   3,C   2)    146.0717         0.029480   
    398. D(C   9,C   8,C   7,C   6)    143.2056         0.018617   
    399. D(C   9,C   8,C   3,C   4)   -136.2418         0.029480   
    400. D(C   3,C   8,C   7,C   6)     -0.0258         0.018617   
    401. D(C   7,C   8,C   3,C   4)      2.1615         0.029480   
    402. D(C   3,C   8,C   7,C  25)   -143.3778         0.018617   
    403. D(C  10,C   9,C   8,C   7)   -142.8856         0.016200   
    404. D(C  24,C   9,C   8,C   3)    142.7649         0.016200   
    405. D(C  24,C   9,C   8,C   7)     -0.0401         0.016200   
    406. D(C  10,C   9,C   8,C   3)     -0.0806         0.016200   
    407. D(C  21,C  10,C   9,C  24)     -2.3519         0.029478   
    408. D(C  21,C  10,C   9,C   8)    136.0660         0.029478   
    409. D(C  11,C  10,C   9,C  24)   -145.9462         0.029478   
    410. D(C  11,C  10,C   9,C   8)     -7.5284         0.029478   
    411. D(C  12,C  11,C  10,C  21)    -11.1000         0.015282   
    412. D(C   2,C  11,C  10,C   9)      7.2063         0.015282   
    413. D(C   2,C  11,C  10,C  21)   -139.7022         0.015282   
    414. D(C  60,C  11,C   2,C   3)    117.5338         0.007502   
    415. D(C  12,C  11,C   2,C  60)    119.4554         0.007502   
    416. D(C  12,C  11,C   2,C   3)   -123.0108         0.007502   
    417. D(C  12,C  11,C   2,C   1)      0.1213         0.007502   
    418. D(C  10,C  11,C   2,C   1)    123.1457         0.007502   
    419. D(C  10,C  11,C   2,C  60)   -117.5203         0.007502   
    420. D(C  12,C  11,C  10,C   9)    135.8085         0.015282   
    421. D(C  60,C  11,C   2,C   1)   -119.3340         0.007502   
    422. D(C  10,C  11,C   2,C   3)      0.0136         0.007502   
    423. D(C  60,C  11,C  10,C  21)    152.5674         0.015282   
    424. D(C  60,C  11,C  10,C   9)    -60.5241         0.015282   
    425. D(C  20,C  12,C  11,C  60)   -152.2585         0.015369   
    426. D(C  13,C  12,C  11,C  10)   -135.6010         0.015369   
    427. D(C  20,C  12,C  11,C   2)    139.6994         0.015369   
    428. D(C  20,C  12,C  11,C  10)     11.0601         0.015369   
    429. D(C  13,C  12,C  11,C  60)     61.0804         0.015369   
    430. D(C  13,C  12,C  11,C   2)     -6.9616         0.015369   
    431. D(C  17,C  13,C  12,C  20)      2.5427         0.029168   
    432. D(C  14,C  13,C  12,C  20)   -136.1656         0.029168   
    433. D(C  14,C  13,C  12,C  11)      7.2159         0.029168   
    434. D(C  17,C  13,C  12,C  11)    145.9242         0.029168   
    435. D(C  15,C  14,C  13,C  12)    143.0942         0.016077   
    436. D(C  15,C  14,C  13,C  17)     -0.0592         0.016077   
    437. D(C   1,C  14,C  13,C  17)   -143.1028         0.016077   
    438. D(C  15,C  14,C   1,C   2)   -145.7874         0.029275   
    439. D(C  15,C  14,C   1,C   0)     -2.5448         0.029275   
    440. D(C  13,C  14,C   1,C   2)     -7.2130         0.029275   
    441. D(C  13,C  14,C   1,C   0)    136.0295         0.029275   
    442. D(C   1,C  14,C  13,C  12)      0.0506         0.016077   
    443. D(C  56,C  15,C  14,C  13)   -143.1245         0.018600   
    444. D(C  56,C  15,C  14,C   1)      0.2503         0.018600   
    445. D(C  16,C  15,C  14,C  13)      0.2246         0.018600   
    446. D(C  16,C  15,C  14,C   1)    143.5994         0.018600   
    447. D(C  42,C  16,C  15,C  14)   -143.5966         0.018442   
    448. D(C  42,C  16,C  15,C  56)      0.2047         0.018442   
    449. D(C  17,C  16,C  15,C  56)    143.4965         0.018442   
    450. D(C  17,C  16,C  15,C  14)     -0.3048         0.018442   
    451. D(C  18,C  17,C  16,C  42)     -0.2449         0.018453   
    452. D(C  13,C  17,C  16,C  42)    143.5710         0.018453   
    453. D(C  13,C  17,C  16,C  15)      0.2675         0.018453   
    454. D(C  18,C  17,C  13,C  14)    143.2513         0.018596   
    455. D(C  18,C  17,C  13,C  12)     -0.2658         0.018596   
    456. D(C  16,C  17,C  13,C  14)     -0.1285         0.018596   
    457. D(C  16,C  17,C  13,C  12)   -143.6456         0.018596   
    458. D(C  18,C  17,C  16,C  15)   -143.5484         0.018453   
    459. D(C  40,C  18,C  17,C  16)      0.6273         0.026902   
    460. D(C  40,C  18,C  17,C  13)   -138.7468         0.026902   
    461. D(C  19,C  18,C  17,C  16)    138.3120         0.026902   
    462. D(C  19,C  18,C  17,C  13)     -1.0620         0.026902   
    463. D(C  38,C  19,C  18,C  40)     -0.1096         0.019292   
    464. D(C  38,C  19,C  18,C  17)   -142.4287         0.019292   
    465. D(C  20,C  19,C  18,C  40)    142.3637         0.019292   
    466. D(C  20,C  19,C  18,C  17)      0.0446         0.019292   
    467. D(C  21,C  20,C  19,C  38)     -0.3918         0.027137   
    468. D(C  21,C  20,C  19,C  18)   -138.4467         0.027137   
    469. D(C  12,C  20,C  19,C  38)    140.3407         0.027137   
    470. D(C  12,C  20,C  19,C  18)      2.2858         0.027137   
    471. D(C  21,C  20,C  12,C  13)    141.1256         0.019402   
    472. D(C  21,C  20,C  12,C  11)     -7.0484         0.019402   
    473. D(C  19,C  20,C  12,C  13)     -3.6043         0.019402   
    474. D(C  19,C  20,C  12,C  11)   -151.7783         0.019402   
    475. D(C  22,C  21,C  20,C  19)     -0.0043         0.018789   
    476. D(C  22,C  21,C  20,C  12)   -145.2554         0.018789   
    477. D(C  10,C  21,C  20,C  19)    145.1863         0.018789   
    478. D(C  10,C  21,C  20,C  12)     -0.0649         0.018789   
    479. D(C  22,C  21,C  10,C  11)    151.8030         0.019454   
    480. D(C  22,C  21,C  10,C   9)      3.4570         0.019454   
    481. D(C  20,C  21,C  10,C  11)      7.1489         0.019454   
    482. D(C  20,C  21,C  10,C   9)   -141.1971         0.019454   
    483. D(C  37,C  22,C  21,C  10)   -140.2515         0.027131   
    484. D(C  23,C  22,C  21,C  20)    138.4162         0.027131   
    485. D(C  23,C  22,C  21,C  10)     -2.2487         0.027131   
    486. D(C  37,C  22,C  21,C  20)      0.4135         0.027131   
    487. D(C  35,C  23,C  22,C  37)      0.0719         0.019307   
    488. D(C  35,C  23,C  22,C  21)   -142.3484         0.019307   
    489. D(C  24,C  23,C  22,C  37)    142.4137         0.019307   
    490. D(C  24,C  23,C  22,C  21)     -0.0066         0.019307   
    491. D(C  25,C  24,C  23,C  35)     -0.6182         0.026833   
    492. D(C  25,C  24,C  23,C  22)   -138.2945         0.026833   
    493. D(C   9,C  24,C  23,C  35)    138.7429         0.026833   
    494. D(C   9,C  24,C  23,C  22)      1.0666         0.026833   
    495. D(C  25,C  24,C   9,C  10)    143.4729         0.018568   
    496. D(C  25,C  24,C   9,C   8)      0.2115         0.018568   
    497. D(C  23,C  24,C   9,C  10)      0.1422         0.018568   
    498. D(C  23,C  24,C   9,C   8)   -143.1192         0.018568   
    499. D(C  26,C  25,C  24,C  23)      0.2108         0.018418   
    500. D(C  26,C  25,C  24,C   9)   -143.6222         0.018418   
    501. D(C   7,C  25,C  24,C  23)    143.5306         0.018418   
    502. D(C   7,C  25,C  24,C   9)     -0.3025         0.018418   
    503. D(C  26,C  25,C   7,C   8)    143.6074         0.018430   
    504. D(C  26,C  25,C   7,C   6)     -0.2310         0.018430   
    505. D(C  24,C  25,C   7,C   8)      0.2773         0.018430   
    506. D(C  24,C  25,C   7,C   6)   -143.5612         0.018430   
    507. D(C  34,C  26,C  25,C  24)      0.3492         0.027493   
    508. D(C  34,C  26,C  25,C   7)   -138.5067         0.027493   
    509. D(C  27,C  26,C  25,C  24)    138.5281         0.027493   
    510. D(C  27,C  26,C  25,C   7)     -0.3278         0.027493   
    511. D(C  32,C  27,C  26,C  34)      0.5080         0.018169   
    512. D(C  32,C  27,C  26,C  25)   -142.1280         0.018169   
    513. D(C  28,C  27,C  26,C  34)    143.1274         0.018169   
    514. D(C  28,C  27,C  26,C  25)      0.4914         0.018169   
    515. D(C  29,C  28,C  27,C  32)      0.0563         0.027524   
    516. D(C  29,C  28,C  27,C  26)   -138.1130         0.027524   
    517. D(C   6,C  28,C  27,C  32)    138.0718         0.027524   
    518. D(C   6,C  28,C  27,C  26)     -0.0976         0.027524   
    519. D(C  29,C  28,C   6,C   7)    141.9726         0.018342   
    520. D(C  29,C  28,C   6,C   5)      0.0144         0.018342   
    521. D(C  27,C  28,C   6,C   7)     -0.4643         0.018342   
    522. D(C  27,C  28,C   6,C   5)   -142.4224         0.018342   
    523. D(C  59,C  29,C  28,C  27)    142.4957         0.018076   
    524. D(C  59,C  29,C  28,C   6)      0.0575         0.018076   
    525. D(C  30,C  29,C  28,C  27)      0.1618         0.018076   
    526. D(C  30,C  29,C  28,C   6)   -142.2764         0.018076   
    527. D(C  53,C  30,C  29,C  59)      0.0222         0.027402   
    528. D(C  53,C  30,C  29,C  28)    137.9167         0.027402   
    529. D(C  31,C  30,C  29,C  59)   -138.1152         0.027402   
    530. D(C  31,C  30,C  29,C  28)     -0.2207         0.027402   
    531. D(C  51,C  31,C  30,C  53)      0.0768         0.018294   
    532. D(C  51,C  31,C  30,C  29)    142.6700         0.018294   
    533. D(C  32,C  31,C  30,C  53)   -142.5313         0.018294   
    534. D(C  32,C  31,C  30,C  29)      0.0619         0.018294   
    535. D(C  33,C  32,C  31,C  51)      0.2051         0.027344   
    536. D(C  33,C  32,C  31,C  30)    138.3932         0.027344   
    537. D(C  27,C  32,C  31,C  51)   -138.0321         0.027344   
    538. D(C  27,C  32,C  31,C  30)      0.1561         0.027344   
    539. D(C  33,C  32,C  27,C  28)   -142.8753         0.018427   
    540. D(C  33,C  32,C  27,C  26)     -0.3141         0.018427   
    541. D(C  31,C  32,C  27,C  28)     -0.2152         0.018427   
    542. D(C  31,C  32,C  27,C  26)    142.3460         0.018427   
    543. D(C  49,C  33,C  32,C  31)      0.0006         0.018117   
    544. D(C  49,C  33,C  32,C  27)    142.6807         0.018117   
    545. D(C  34,C  33,C  32,C  31)   -142.6801         0.018117   
    546. D(C  34,C  33,C  32,C  27)      0.0000         0.018117   
    547. D(C  35,C  34,C  33,C  49)      0.2203         0.018425   
    548. D(C  35,C  34,C  33,C  32)    142.8811         0.018425   
    549. D(C  26,C  34,C  33,C  49)   -142.3467         0.018425   
    550. D(C  26,C  34,C  33,C  32)      0.3141         0.018425   
    551. D(C  35,C  34,C  26,C  27)   -143.1413         0.018174   
    552. D(C  35,C  34,C  26,C  25)     -0.5022         0.018174   
    553. D(C  33,C  34,C  26,C  27)     -0.5079         0.018174   
    554. D(C  33,C  34,C  26,C  25)    142.1311         0.018174   
    555. D(C  36,C  35,C  34,C  33)     -0.0713         0.027528   
    556. D(C  36,C  35,C  34,C  26)    138.1077         0.027528   
    557. D(C  23,C  35,C  34,C  33)   -138.0825         0.027528   
    558. D(C  23,C  35,C  34,C  26)      0.0965         0.027528   
    559. D(C  36,C  35,C  23,C  24)   -141.9585         0.018324   
    560. D(C  36,C  35,C  23,C  22)     -0.0132         0.018324   
    561. D(C  34,C  35,C  23,C  24)      0.4667         0.018324   
    562. D(C  34,C  35,C  23,C  22)    142.4120         0.018324   
    563. D(C  48,C  36,C  35,C  34)     -0.1461         0.018085   
    564. D(C  48,C  36,C  35,C  23)    142.2895         0.018085   
    565. D(C  37,C  36,C  35,C  34)   -142.4860         0.018085   
    566. D(C  37,C  36,C  35,C  23)     -0.0504         0.018085   
    567. D(C  38,C  37,C  36,C  48)      0.0283         0.018326   
    568. D(C  38,C  37,C  36,C  35)    142.4427         0.018326   
    569. D(C  22,C  37,C  36,C  48)   -142.3200         0.018326   
    570. D(C  22,C  37,C  36,C  35)      0.0944         0.018326   
    571. D(C  38,C  37,C  22,C  23)   -142.5113         0.018206   
    572. D(C  38,C  37,C  22,C  21)     -0.4272         0.018206   
    573. D(C  36,C  37,C  22,C  23)     -0.1030         0.018206   
    574. D(C  36,C  37,C  22,C  21)    141.9811         0.018206   
    575. D(C  39,C  38,C  37,C  36)      0.0077         0.027678   
    576. D(C  39,C  38,C  37,C  22)    137.8389         0.027678   
    577. D(C  19,C  38,C  37,C  36)   -137.8001         0.027678   
    578. D(C  19,C  38,C  37,C  22)      0.0312         0.027678   
    579. D(C  39,C  38,C  19,C  20)   -142.0201         0.018216   
    580. D(C  39,C  38,C  19,C  18)      0.1480         0.018216   
    581. D(C  37,C  38,C  19,C  20)      0.3778         0.018216   
    582. D(C  37,C  38,C  19,C  18)    142.5460         0.018216   
    583. D(C  47,C  39,C  38,C  37)     -0.0415         0.018326   
    584. D(C  47,C  39,C  38,C  19)    142.2698         0.018326   
    585. D(C  40,C  39,C  38,C  37)   -142.4406         0.018326   
    586. D(C  40,C  39,C  38,C  19)     -0.1294         0.018326   
    587. D(C  41,C  40,C  39,C  47)      0.1348         0.018090   
    588. D(C  41,C  40,C  39,C  38)    142.4686         0.018090   
    589. D(C  18,C  40,C  39,C  47)   -142.2715         0.018090   
    590. D(C  18,C  40,C  39,C  38)      0.0623         0.018090   
    591. D(C  41,C  40,C  18,C  19)   -142.3826         0.018360   
    592. D(C  41,C  40,C  18,C  17)     -0.4434         0.018360   
    593. D(C  39,C  40,C  18,C  19)      0.0291         0.018360   
    594. D(C  39,C  40,C  18,C  17)    141.9683         0.018360   
    595. D(C  45,C  41,C  40,C  39)      0.0851         0.027505   
    596. D(C  45,C  41,C  40,C  18)    138.0565         0.027505   
    597. D(C  42,C  41,C  40,C  39)   -138.0979         0.027505   
    598. D(C  42,C  41,C  40,C  18)     -0.1265         0.027505   
    599. D(C  43,C  42,C  41,C  45)      0.4883         0.018178   
    600. D(C  43,C  42,C  41,C  40)    143.1244         0.018178   
    601. D(C  16,C  42,C  41,C  45)   -142.1286         0.018178   
    602. D(C  16,C  42,C  41,C  40)      0.5074         0.018178   
    603. D(C  43,C  42,C  16,C  17)   -138.4921         0.027498   
    604. D(C  43,C  42,C  16,C  15)      0.3539         0.027498   
    605. D(C  41,C  42,C  16,C  17)     -0.3222         0.027498   
    606. D(C  41,C  42,C  16,C  15)    138.5237         0.027498   
    607. D(C  55,C  43,C  42,C  41)   -143.1169         0.018184   
    608. D(C  55,C  43,C  42,C  16)     -0.4978         0.018184   
    609. D(C  44,C  43,C  42,C  41)     -0.4920         0.018184   
    610. D(C  44,C  43,C  42,C  16)    142.1271         0.018184   
    611. D(C  52,C  44,C  43,C  42)   -142.3366         0.018427   
    612. D(C  45,C  44,C  43,C  55)    142.8742         0.018427   
    613. D(C  45,C  44,C  43,C  42)      0.3079         0.018427   
    614. D(C  52,C  44,C  43,C  55)      0.2297         0.018427   
    615. D(C  46,C  45,C  44,C  52)     -0.0037         0.018110   
    616. D(C  46,C  45,C  44,C  43)   -142.6630         0.018110   
    617. D(C  41,C  45,C  44,C  52)    142.6534         0.018110   
    618. D(C  41,C  45,C  44,C  43)     -0.0059         0.018110   
    619. D(C  46,C  45,C  41,C  42)    142.3476         0.018429   
    620. D(C  46,C  45,C  41,C  40)     -0.2371         0.018429   
    621. D(C  44,C  45,C  41,C  42)     -0.2982         0.018429   
    622. D(C  44,C  45,C  41,C  40)   -142.8830         0.018429   
    623. D(C  50,C  46,C  45,C  44)      0.1849         0.027350   
    624. D(C  50,C  46,C  45,C  41)   -138.0344         0.027350   
    625. D(C  47,C  46,C  45,C  44)    138.3879         0.027350   
    626. D(C  47,C  46,C  45,C  41)      0.1686         0.027350   
    627. D(C  48,C  47,C  46,C  50)      0.0787         0.018288   
    628. D(C  48,C  47,C  46,C  45)   -142.5425         0.018288   
    629. D(C  39,C  47,C  46,C  50)    142.6724         0.018288   
    630. D(C  39,C  47,C  46,C  45)      0.0512         0.018288   
    631. D(C  48,C  47,C  39,C  40)    137.9360         0.027396   
    632. D(C  48,C  47,C  39,C  38)      0.0391         0.027396   
    633. D(C  46,C  47,C  39,C  40)     -0.2031         0.027396   
    634. D(C  46,C  47,C  39,C  38)   -138.1001         0.027396   
    635. D(C  49,C  48,C  47,C  46)     -0.0056         0.018111   
    636. D(C  49,C  48,C  47,C  39)   -142.5715         0.018111   
    637. D(C  36,C  48,C  47,C  46)    142.5627         0.018111   
    638. D(C  36,C  48,C  47,C  39)     -0.0031         0.018111   
    639. D(C  49,C  48,C  36,C  37)    138.1108         0.027388   
    640. D(C  49,C  48,C  36,C  35)      0.2146         0.027388   
    641. D(C  47,C  48,C  36,C  37)     -0.0307         0.027388   
    642. D(C  47,C  48,C  36,C  35)   -137.9269         0.027388   
    643. D(C  50,C  49,C  48,C  47)     -0.0696         0.018293   
    644. D(C  50,C  49,C  48,C  36)   -142.6721         0.018293   
    645. D(C  33,C  49,C  48,C  47)    142.5368         0.018293   
    646. D(C  33,C  49,C  48,C  36)     -0.0657         0.018293   
    647. D(C  50,C  49,C  33,C  34)    138.0353         0.027349   
    648. D(C  50,C  49,C  33,C  32)     -0.2030         0.027349   
    649. D(C  48,C  49,C  33,C  34)     -0.1517         0.027349   
    650. D(C  48,C  49,C  33,C  32)   -138.3900         0.027349   
    651. D(C  51,C  50,C  49,C  48)    142.8093         0.018247   
    652. D(C  51,C  50,C  49,C  33)      0.1996         0.018247   
    653. D(C  46,C  50,C  49,C  48)      0.1183         0.018247   
    654. D(C  46,C  50,C  49,C  33)   -142.4915         0.018247   
    655. D(C  51,C  50,C  46,C  47)   -142.8137         0.018245   
    656. D(C  51,C  50,C  46,C  45)     -0.1802         0.018245   
    657. D(C  49,C  50,C  46,C  47)     -0.1217         0.018245   
    658. D(C  49,C  50,C  46,C  45)    142.5118         0.018245   
    659. D(C  52,C  51,C  50,C  49)   -138.2625         0.027446   
    660. D(C  52,C  51,C  50,C  46)     -0.0058         0.027446   
    661. D(C  31,C  51,C  50,C  49)      0.0062         0.027446   
    662. D(C  31,C  51,C  50,C  46)    138.2629         0.027446   
    663. D(C  52,C  51,C  31,C  32)    142.4948         0.018249   
    664. D(C  52,C  51,C  31,C  30)     -0.1204         0.018249   
    665. D(C  50,C  51,C  31,C  32)     -0.2086         0.018249   
    666. D(C  50,C  51,C  31,C  30)   -142.8238         0.018249   
    667. D(C  53,C  52,C  51,C  50)    142.8205         0.018243   
    668. D(C  53,C  52,C  51,C  31)      0.1180         0.018243   
    669. D(C  44,C  52,C  51,C  50)      0.1870         0.018243   
    670. D(C  44,C  52,C  51,C  31)   -142.5154         0.018243   
    671. D(C  53,C  52,C  44,C  45)   -138.3874         0.027355   
    672. D(C  53,C  52,C  44,C  43)     -0.1657         0.027355   
    673. D(C  51,C  52,C  44,C  45)     -0.1822         0.027355   
    674. D(C  51,C  52,C  44,C  43)    138.0396         0.027355   
    675. D(C  54,C  53,C  52,C  51)   -142.6700         0.018290   
    676. D(C  54,C  53,C  52,C  44)     -0.0474         0.018290   
    677. D(C  30,C  53,C  52,C  51)     -0.0705         0.018290   
    678. D(C  30,C  53,C  52,C  44)    142.5521         0.018290   
    679. D(C  54,C  53,C  30,C  31)    142.5633         0.018109   
    680. D(C  54,C  53,C  30,C  29)      0.0007         0.018109   
    681. D(C  52,C  53,C  30,C  31)     -0.0039         0.018109   
    682. D(C  52,C  53,C  30,C  29)   -142.5665         0.018109   
    683. D(C  58,C  54,C  53,C  52)    138.1102         0.027395   
    684. D(C  58,C  54,C  53,C  30)     -0.0294         0.027395   
    685. D(C  55,C  54,C  53,C  52)      0.1970         0.027395   
    686. D(C  55,C  54,C  53,C  30)   -137.9426         0.027395   
    687. D(C  56,C  55,C  54,C  58)     -0.0462         0.018086   
    688. D(C  56,C  55,C  54,C  53)    142.3055         0.018086   
    689. D(C  43,C  55,C  54,C  58)   -142.4847         0.018086   
    690. D(C  43,C  55,C  54,C  53)     -0.1331         0.018086   
    691. D(C  56,C  55,C  43,C  44)   -138.0826         0.027508   
    692. D(C  56,C  55,C  43,C  42)      0.0848         0.027508   
    693. D(C  54,C  55,C  43,C  44)     -0.0801         0.027508   
    694. D(C  54,C  55,C  43,C  42)    138.0873         0.027508   
    695. D(C  57,C  56,C  55,C  54)     -0.0359         0.018356   
    696. D(C  57,C  56,C  55,C  43)    142.3959         0.018356   
    697. D(C  15,C  56,C  55,C  54)   -141.9552         0.018356   
    698. D(C  15,C  56,C  55,C  43)      0.4766         0.018356   
    699. D(C  57,C  56,C  15,C  16)   -138.2796         0.026873   
    700. D(C  57,C  56,C  15,C  14)      1.0751         0.026873   
    701. D(C  55,C  56,C  15,C  16)     -0.6193         0.026873   
    702. D(C  55,C  56,C  15,C  14)    138.7354         0.026873   
    703. D(C  58,C  57,C  56,C  55)      0.1044         0.019288   
    704. D(C  58,C  57,C  56,C  15)    142.4059         0.019288   
    705. D(C   0,C  57,C  56,C  55)   -142.3382         0.019288   
    706. D(C   0,C  57,C  56,C  15)     -0.0367         0.019288   
    707. D(C  58,C  57,C   0,C   4)      0.3486         0.027156   
    708. D(C  58,C  57,C   0,C   1)   -140.3365         0.027156   
    709. D(C  56,C  57,C   0,C   4)    138.3728         0.027156   
    710. D(C  56,C  57,C   0,C   1)     -2.3123         0.027156   
    711. D(C  59,C  58,C  57,C  56)   -142.5339         0.018203   
    712. D(C  59,C  58,C  57,C   0)     -0.4031         0.018203   
    713. D(C  54,C  58,C  57,C  56)     -0.1329         0.018203   
    714. D(C  54,C  58,C  57,C   0)    141.9979         0.018203   
    715. D(C  59,C  58,C  54,C  55)    142.4520         0.018332   
    716. D(C  59,C  58,C  54,C  53)      0.0353         0.018332   
    717. D(C  57,C  58,C  54,C  55)      0.1101         0.018332   
    718. D(C  57,C  58,C  54,C  53)   -142.3066         0.018332   
    719. D(C  29,C  59,C  58,C  57)    137.8114         0.027669   
    720. D(C  29,C  59,C  58,C  54)     -0.0124         0.027669   
    721. D(C   5,C  59,C  58,C  57)      0.0118         0.027669   
    722. D(C   5,C  59,C  58,C  54)   -137.8121         0.027669   
    723. D(C  58,C  59,C  29,C  30)     -0.0162         0.018326   
    724. D(C  58,C  59,C  29,C  28)   -142.4229         0.018326   
    725. D(C   5,C  59,C  29,C  30)    142.2997         0.018326   
    726. D(C   5,C  59,C  29,C  28)     -0.1070         0.018326   
    727. D(C  58,C  59,C   5,C   6)    142.5121         0.018232   
    728. D(C  58,C  59,C   5,C   4)      0.4352         0.018232   
    729. D(C  29,C  59,C   5,C   6)      0.1165         0.018232   
    730. D(C  29,C  59,C   5,C   4)   -141.9604         0.018232   
    731. D(C  62,C  60,C  11,C  12)    152.0456         0.013450   
    732. D(C  62,C  60,C  11,C  10)     -7.9744         0.013450   
    733. D(C  62,C  60,C  11,C   2)   -108.4081         0.013450   
    734. D(C  61,C  60,C  11,C  12)      9.7555         0.013450   
    735. D(C  61,C  60,C  11,C  10)   -150.2645         0.013450   
    736. D(C  61,C  60,C  11,C   2)    109.3019         0.013450   
    737. D(C   2,C  60,C  11,C  12)    -99.5463         0.013450   
    738. D(C   2,C  60,C  11,C  10)    100.4337         0.013450   
    739. D(C  62,C  60,C   2,C  11)    107.9428         0.013715   
    740. D(C  62,C  60,C   2,C   3)      7.4901         0.013715   
    741. D(C  62,C  60,C   2,C   1)   -152.1432         0.013715   
    742. D(C  61,C  60,C   2,C  11)   -109.6860         0.013715   
    743. D(C  61,C  60,C   2,C   3)    149.8613         0.013715   
    744. D(C  61,C  60,C   2,C   1)     -9.7720         0.013715   
    745. D(C  11,C  60,C   2,C   3)   -100.4527         0.013715   
    746. D(C  11,C  60,C   2,C   1)     99.9140         0.013715   
    747. D(H  75,C  61,C  60,C  62)   -167.5120         0.012113   
    748. D(H  75,C  61,C  60,C  11)    -24.4924         0.012113   
    749. D(H  75,C  61,C  60,C   2)     49.2749         0.012113   
    750. D(H  74,C  61,C  60,C  62)    -49.6688         0.012113   
    751. D(H  74,C  61,C  60,C  11)     93.3508         0.012113   
    752. D(H  74,C  61,C  60,C   2)    167.1180         0.012113   
    753. D(C  73,C  61,C  60,C  62)     71.1907         0.012113   
    754. D(C  73,C  61,C  60,C  11)   -145.7897         0.012113   
    755. D(C  73,C  61,C  60,C   2)    -72.0225         0.012113   
    756. D(C  67,C  62,C  60,C  61)     83.9181         0.013312   
    757. D(C  67,C  62,C  60,C  11)    -59.8156         0.013312   
    758. D(C  67,C  62,C  60,C   2)   -132.3707         0.013312   
    759. D(C  63,C  62,C  60,C  61)    -94.9854         0.013312   
    760. D(C  63,C  62,C  60,C  11)    121.2808         0.013312   
    761. D(C  63,C  62,C  60,C   2)     48.7257         0.013312   
    762. D(H  70,C  63,C  62,C  67)    179.9867         0.027358   
    763. D(H  70,C  63,C  62,C  60)     -1.1064         0.027358   
    764. D(C  64,C  63,C  62,C  67)      0.0330         0.027358   
    765. D(C  64,C  63,C  62,C  60)    178.9399         0.027358   
    766. D(H  68,C  64,C  63,H  70)      0.1026         0.028478   
    767. D(H  68,C  64,C  63,C  62)   -179.9438         0.028478   
    768. D(C  65,C  64,C  63,H  70)   -179.9349         0.028478   
    769. D(C  65,C  64,C  63,C  62)      0.0187         0.028478   
    770. D(H  69,C  65,C  64,H  68)     -0.0121         0.028264   
    771. D(H  69,C  65,C  64,C  63)   -179.9745         0.028264   
    772. D(C  66,C  65,C  64,H  68)    179.9141         0.028264   
    773. D(C  66,C  65,C  64,C  63)     -0.0482         0.028264   
    774. D(H  72,C  66,C  65,H  69)     -0.0561         0.028194   
    775. D(H  72,C  66,C  65,C  64)   -179.9824         0.028194   
    776. D(C  67,C  66,C  65,H  69)    179.9520         0.028194   
    777. D(C  67,C  66,C  65,C  64)      0.0258         0.028194   
    778. D(H  71,C  67,C  66,H  72)     -0.2749         0.028549   
    779. D(H  71,C  67,C  66,C  65)    179.7169         0.028549   
    780. D(C  62,C  67,C  66,H  72)   -179.9657         0.028549   
    781. D(C  62,C  67,C  66,C  65)      0.0262         0.028549   
    782. D(H  71,C  67,C  62,C  63)   -179.7483         0.027284   
    783. D(H  71,C  67,C  62,C  60)      1.3333         0.027284   
    784. D(C  66,C  67,C  62,C  63)     -0.0554         0.027284   
    785. D(C  66,C  67,C  62,C  60)   -178.9738         0.027284   
    786. D(H  78,C  73,C  61,H  75)    178.5316         0.011380   
    787. D(H  78,C  73,C  61,H  74)     60.1021         0.011380   
    788. D(H  78,C  73,C  61,C  60)    -60.0259         0.011380   
    789. D(C  77,C  73,C  61,H  75)     57.3970         0.011380   
    790. D(C  77,C  73,C  61,H  74)    -61.0325         0.011380   
    791. D(C  77,C  73,C  61,C  60)    178.8395         0.011380   
    792. D(H  76,C  73,C  61,H  75)    -63.3723         0.011380   
    793. D(H  76,C  73,C  61,H  74)    178.1982         0.011380   
    794. D(H  76,C  73,C  61,C  60)     58.0702         0.011380   
    795. D(C  81,C  77,C  73,H  78)     57.9424         0.011608   
    796. D(C  81,C  77,C  73,H  76)    -59.3769         0.011608   
    797. D(C  81,C  77,C  73,C  61)    179.4893         0.011608   
    798. D(H  80,C  77,C  73,H  78)    178.0337         0.011608   
    799. D(H  80,C  77,C  73,H  76)     60.7145         0.011608   
    800. D(H  80,C  77,C  73,C  61)    -60.4194         0.011608   
    801. D(H  79,C  77,C  73,H  78)    -62.7908         0.011608   
    802. D(H  79,C  77,C  73,H  76)    179.8900         0.011608   
    803. D(H  79,C  77,C  73,C  61)     58.7561         0.011608   
    804. D(O  83,C  81,C  77,H  80)     63.1566         0.011848   
    805. D(O  83,C  81,C  77,H  79)    -52.5772         0.011848   
    806. D(O  83,C  81,C  77,C  73)   -175.0310         0.011848   
    807. D(O  82,C  81,C  77,H  80)   -116.8722         0.011848   
    808. D(O  82,C  81,C  77,H  79)    127.3939         0.011848   
    809. D(O  82,C  81,C  77,C  73)      4.9402         0.011848   
    810. D(C  84,O  83,C  81,O  82)      0.3172         0.033622   
    811. D(C  84,O  83,C  81,C  77)   -179.7110         0.033622   
    812. D(H  87,C  84,O  83,C  81)    -56.2135         0.019606   
    813. D(H  86,C  84,O  83,C  81)     63.9558         0.019606   
    814. D(H  85,C  84,O  83,C  81)   -176.2067         0.019606   
    -----------------------------------------------------------------

Number of atoms                         .... 88
Number of degrees of freedom            .... 814

         *************************************************************
         *                GEOMETRY OPTIMIZATION CYCLE   1            *
         *************************************************************
---------------------------------
CARTESIAN COORDINATES (ANGSTROEM)
---------------------------------
  C      0.305590   -2.434780    1.239970
  C      0.715400   -2.315120   -0.128430
  C      1.482890   -1.064910   -0.283050
  C      1.270370   -0.334120    0.981110
  C      0.648730   -1.217070    1.922210
  C     -0.172970   -0.730130    2.931280
  C     -0.440100    0.676840    3.002410
  C      0.127950    1.529170    2.061230
  C      0.996000    1.016200    1.034960
  C      0.736180    1.773470   -0.182830
  C      0.760510    1.157090   -1.416140
  C      1.200160   -0.238520   -1.611250
  C      0.201310   -0.822530   -2.526680
  C     -0.354530   -2.071910   -2.338620
  C     -0.093120   -2.830490   -1.120740
  C     -1.303510   -3.526500   -0.773240
  C     -2.306190   -3.214840   -1.758640
  C     -1.720530   -2.316060   -2.719090
  C     -2.494390   -1.301630   -3.272240
  C     -1.927030    0.004380   -3.441700
  C     -0.613370    0.233590   -3.051110
  C     -0.268700    1.450950   -2.368760
  C     -1.249990    2.397520   -2.100520
  C     -1.260120    3.057710   -0.827710
  C     -0.288380    2.739060    0.115160
  C     -0.661870    2.593680    1.498410
  C     -1.982660    2.765780    1.888370
  C     -2.571820    1.872910    2.855280
  C     -1.813430    0.847820    3.402820
  C     -2.393230   -0.461380    3.579020
  C     -3.707400   -0.696350    3.198120
  C     -4.493770    0.369710    2.630890
  C     -3.936500    1.630600    2.464450
  C     -4.194650    2.379620    1.259180
  C     -2.989260    3.084140    0.906260
  C     -2.633630    3.228390   -0.427320
  C     -3.472260    2.670290   -1.459910
  C     -2.614810    2.156560   -2.497600
  C     -2.947280    0.982060   -3.156240
  C     -4.150950    0.272320   -2.804980
  C     -3.870530   -1.140830   -2.877770
  C     -4.430230   -2.006780   -1.948860
  C     -3.633950   -3.067170   -1.382670
  C     -4.012920   -3.218260    0.000250
  C     -5.033560   -2.244850    0.291100
  C     -5.291680   -1.495760   -0.914190
  C     -5.559220   -0.135160   -0.842020
  C     -4.977760    0.765760   -1.804820
  C     -4.632060    1.987120   -1.119800
  C     -5.000390    1.839680    0.265560
  C     -5.574950    0.528950    0.437180
  C     -5.326450   -0.191920    1.597080
  C     -5.052600   -1.605160    1.523330
  C     -4.052950   -1.917770    2.513110
  C     -3.071720   -2.859460    2.234110
  C     -3.050180   -3.521600    0.952660
  C     -1.674120   -3.683080    0.558080
  C     -0.849650   -3.123260    1.589200
  C     -1.708170   -2.614000    2.629450
  C     -1.376010   -1.439470    3.288280
  C      2.563340   -0.781850   -1.285120
  C      3.091860   -1.941000   -2.110650
  C      3.601420    0.219170   -0.889960
  C      4.234280    0.137670    0.343230
  C      5.208550    1.057490    0.687370
  C      5.557280    2.064460   -0.196240
  C      4.929390    2.149430   -1.427410
  C      3.955420    1.230520   -1.773550
  H      5.696440    0.986450    1.647970
  H      6.318180    2.781500    0.073470
  H      3.962570   -0.646800    1.034200
  H      3.460590    1.297420   -2.732130
  H      5.198730    2.933330   -2.119760
  C      3.947250   -2.881210   -1.264510
  H      3.689240   -1.537500   -2.932340
  H      2.257210   -2.497110   -2.540390
  H      3.358720   -3.258440   -0.426030
  C      4.454780   -4.060450   -2.085960
  H      4.799170   -2.338200   -0.852040
  H      5.047910   -3.719760   -2.937050
  H      3.620060   -4.643070   -2.483000
  C      5.312810   -4.988920   -1.257100
  O      5.513440   -4.891990   -0.076860
  O      5.835380   -5.957380   -2.021620
  C      6.661550   -6.905330   -1.358220
  H      7.047570   -7.564910   -2.130810
  H      6.078770   -7.470140   -0.627940
  H      7.478170   -6.398970   -0.840030

----------------------------
CARTESIAN COORDINATES (A.U.)
----------------------------
  NO LB      ZA    FRAG     MASS         X           Y           Z
   0 C     6.0000    0    12.011    0.577481   -4.601067    2.343204
   1 C     6.0000    0    12.011    1.351910   -4.374943   -0.242698
   2 C     6.0000    0    12.011    2.802256   -2.012388   -0.534887
   3 C     6.0000    0    12.011    2.400651   -0.631395    1.854029
   4 C     6.0000    0    12.011    1.225922   -2.299929    3.632450
   5 C     6.0000    0    12.011   -0.326866   -1.379746    5.539316
   6 C     6.0000    0    12.011   -0.831668    1.279042    5.673733
   7 C     6.0000    0    12.011    0.241790    2.889713    3.895160
   8 C     6.0000    0    12.011    1.882167    1.920340    1.955791
   9 C     6.0000    0    12.011    1.391179    3.351373   -0.345499
  10 C     6.0000    0    12.011    1.437156    2.186583   -2.676117
  11 C     6.0000    0    12.011    2.267974   -0.450737   -3.044821
  12 C     6.0000    0    12.011    0.380421   -1.554356   -4.774733
  13 C     6.0000    0    12.011   -0.669965   -3.915342   -4.419351
  14 C     6.0000    0    12.011   -0.175971   -5.348851   -2.117892
  15 C     6.0000    0    12.011   -2.463277   -6.664119   -1.461212
  16 C     6.0000    0    12.011   -4.358068   -6.075167   -3.323348
  17 C     6.0000    0    12.011   -3.251331   -4.376719   -5.138335
  18 C     6.0000    0    12.011   -4.713714   -2.459724   -6.183637
  19 C     6.0000    0    12.011   -3.641559    0.008277   -6.503870
  20 C     6.0000    0    12.011   -1.159101    0.441421   -5.765762
  21 C     6.0000    0    12.011   -0.507769    2.741898   -4.476308
  22 C     6.0000    0    12.011   -2.362139    4.530656   -3.969408
  23 C     6.0000    0    12.011   -2.381282    5.778234   -1.564145
  24 C     6.0000    0    12.011   -0.544959    5.176073    0.217621
  25 C     6.0000    0    12.011   -1.250753    4.901345    2.831585
  26 C     6.0000    0    12.011   -3.746684    5.226567    3.568502
  27 C     6.0000    0    12.011   -4.860035    3.539287    5.395697
  28 C     6.0000    0    12.011   -3.426886    1.602148    6.430398
  29 C     6.0000    0    12.011   -4.522549   -0.871882    6.763368
  30 C     6.0000    0    12.011   -7.005971   -1.315911    6.043571
  31 C     6.0000    0    12.011   -8.491995    0.698651    4.971662
  32 C     6.0000    0    12.011   -7.438907    3.081387    4.657136
  33 C     6.0000    0    12.011   -7.926740    4.496830    2.379505
  34 C     6.0000    0    12.011   -5.648883    5.828180    1.712583
  35 C     6.0000    0    12.011   -4.976839    6.100773   -0.807518
  36 C     6.0000    0    12.011   -6.561620    5.046117   -2.758830
  37 C     6.0000    0    12.011   -4.941275    4.075308   -4.719780
  38 C     6.0000    0    12.011   -5.569552    1.855824   -5.964429
  39 C     6.0000    0    12.011   -7.844159    0.514610   -5.300644
  40 C     6.0000    0    12.011   -7.314242   -2.155856   -5.438197
  41 C     6.0000    0    12.011   -8.371921   -3.792265   -3.682812
  42 C     6.0000    0    12.011   -6.867170   -5.796111   -2.612868
  43 C     6.0000    0    12.011   -7.583320   -6.081630    0.000472
  44 C     6.0000    0    12.011   -9.512050   -4.242152    0.550099
  45 C     6.0000    0    12.011   -9.999826   -2.826577   -1.727569
  46 C     6.0000    0    12.011  -10.505403   -0.255415   -1.591187
  47 C     6.0000    0    12.011   -9.406603    1.447077   -3.410616
  48 C     6.0000    0    12.011   -8.753325    3.755113   -2.116115
  49 C     6.0000    0    12.011   -9.449368    3.476491    0.501836
  50 C     6.0000    0    12.011  -10.535129    0.999571    0.826150
  51 C     6.0000    0    12.011  -10.065532   -0.362676    3.018044
  52 C     6.0000    0    12.011   -9.548030   -3.033313    2.878677
  53 C     6.0000    0    12.011   -7.658966   -3.624060    4.749090
  54 C     6.0000    0    12.011   -5.804710   -5.403596    4.221856
  55 C     6.0000    0    12.011   -5.764005   -6.654860    1.800266
  56 C     6.0000    0    12.011   -3.163628   -6.960013    1.054618
  57 C     6.0000    0    12.011   -1.605606   -5.902106    3.003153
  58 C     6.0000    0    12.011   -3.227973   -4.939744    4.968940
  59 C     6.0000    0    12.011   -2.600282   -2.720204    6.213949
  60 C     6.0000    0    12.011    4.844011   -1.477482   -2.428525
  61 C     6.0000    0    12.011    5.842769   -3.667958   -3.988550
  62 C     6.0000    0    12.011    6.805697    0.414171   -1.681781
  63 C     6.0000    0    12.011    8.001630    0.260159    0.648611
  64 C     6.0000    0    12.011    9.842733    1.998366    1.298941
  65 C     6.0000    0    12.011   10.501737    3.901264   -0.370840
  66 C     6.0000    0    12.011    9.315197    4.061834   -2.697414
  67 C     6.0000    0    12.011    7.474661    2.325346   -3.351524
  68 H     1.0000    0     1.008   10.764712    1.864120    3.114212
  69 H     1.0000    0     1.008   11.939630    5.256273    0.138838
  70 H     1.0000    0     1.008    7.488172   -1.222275    1.954355
  71 H     1.0000    0     1.008    6.539567    2.451768   -5.162977
  72 H     1.0000    0     1.008    9.824176    5.543190   -4.005766
  73 C     6.0000    0    12.011    7.459221   -5.444698   -2.389578
  74 H     1.0000    0     1.008    6.971653   -2.905454   -5.541320
  75 H     1.0000    0     1.008    4.265509   -4.718854   -4.800641
  76 H     1.0000    0     1.008    6.347061   -6.157559   -0.805080
  77 C     6.0000    0    12.011    8.418314   -7.673138   -3.941893
  78 H     1.0000    0     1.008    9.069117   -4.418558   -1.610122
  79 H     1.0000    0     1.008    9.539167   -7.029328   -5.550220
  80 H     1.0000    0     1.008    6.840922   -8.774131   -4.692190
  81 C     6.0000    0    12.011   10.039756   -9.427693   -2.375575
  82 O     8.0000    0    15.999   10.418892   -9.244521   -0.145244
  83 O     8.0000    0    15.999   11.027270  -11.257817   -3.820308
  84 C     6.0000    0    12.011   12.588505  -13.049183   -2.566664
  85 H     1.0000    0     1.008   13.317977  -14.295608   -4.026647
  86 H     1.0000    0     1.008   11.487211  -14.116519   -1.186635
  87 H     1.0000    0     1.008   14.131693  -12.092301   -1.587427

--------------------------------
INTERNAL COORDINATES (ANGSTROEM)
--------------------------------
[...]
      px      :     1.016782
      py      :     1.016797
      dz2     :     0.019337  d :     0.090098
      dxz     :     0.019481
      dyz     :     0.022120
      dx2y2   :     0.014257
      dxy     :     0.014903
 67 C s       :     2.861289  s :     2.861289
      pz      :     1.023364  p :     3.063781
      px      :     1.013178
      py      :     1.027238
      dz2     :     0.018058  d :     0.090231
      dxz     :     0.018134
      dyz     :     0.019236
      dx2y2   :     0.016972
      dxy     :     0.017831
 68 H s       :     0.903488  s :     0.903488
      pz      :     0.035169  p :     0.066790
      px      :     0.019546
      py      :     0.012075
 69 H s       :     0.904429  s :     0.904429
      pz      :     0.013109  p :     0.066692
      px      :     0.027791
      py      :     0.025792
 70 H s       :     0.901939  s :     0.901939
      pz      :     0.025026  p :     0.068244
      px      :     0.013985
      py      :     0.029234
 71 H s       :     0.905381  s :     0.905381
      pz      :     0.035049  p :     0.067383
      px      :     0.020023
      py      :     0.012312
 72 H s       :     0.904165  s :     0.904165
      pz      :     0.024306  p :     0.066696
      px      :     0.013752
      py      :     0.028638
 73 C s       :     2.834670  s :     2.834670
      pz      :     1.041318  p :     3.103230
      px      :     1.051164
      py      :     1.010747
      dz2     :     0.007755  d :     0.088669
      dxz     :     0.024144
      dyz     :     0.024233
      dx2y2   :     0.011073
      dxy     :     0.021465
 74 H s       :     0.905791  s :     0.905791
      pz      :     0.028084  p :     0.065261
      px      :     0.021437
      py      :     0.015740
 75 H s       :     0.906832  s :     0.906832
      pz      :     0.018938  p :     0.068247
      px      :     0.029960
      py      :     0.019349
 76 H s       :     0.904811  s :     0.904811
      pz      :     0.029364  p :     0.067208
      px      :     0.021715
      py      :     0.016129
 77 C s       :     2.846077  s :     2.846077
      pz      :     1.044317  p :     3.122050
      px      :     1.052797
      py      :     1.024936
      dz2     :     0.006208  d :     0.085836
      dxz     :     0.024065
      dyz     :     0.024679
      dx2y2   :     0.010767
      dxy     :     0.020118
 78 H s       :     0.906578  s :     0.906578
      pz      :     0.018742  p :     0.066277
      px      :     0.029018
      py      :     0.018518
 79 H s       :     0.893767  s :     0.893767
      pz      :     0.027963  p :     0.066893
      px      :     0.024261
      py      :     0.014669
 80 H s       :     0.890318  s :     0.890318
      pz      :     0.020241  p :     0.066563
      px      :     0.027750
      py      :     0.018572
 81 C s       :     2.847119  s :     2.847119
      pz      :     1.028253  p :     2.772052
      px      :     0.843575
      py      :     0.900224
      dz2     :     0.068389  d :     0.293608
      dxz     :     0.075199
      dyz     :     0.108931
      dx2y2   :     0.020466
      dxy     :     0.020624
 82 O s       :     3.544704  s :     3.544704
      pz      :     1.462353  p :     4.601406
      px      :     1.496100
      py      :     1.642952
      dz2     :     0.018129  d :     0.031721
      dxz     :     0.006936
      dyz     :     0.006588
      dx2y2   :     0.000024
      dxy     :     0.000045
 83 O s       :     3.452300  s :     3.452300
      pz      :     1.643125  p :     4.618056
      px      :     1.581495
      py      :     1.393437
      dz2     :     0.003774  d :     0.031502
      dxz     :     0.006090
      dyz     :     0.011011
      dx2y2   :     0.004322
      dxy     :     0.006306
 84 C s       :     2.849885  s :     2.849885
      pz      :     1.016439  p :     2.950659
      px      :     1.016591
      py      :     0.917628
      dz2     :     0.007326  d :     0.115807
      dxz     :     0.030910
      dyz     :     0.034063
      dx2y2   :     0.014041
      dxy     :     0.029467
 85 H s       :     0.912856  s :     0.912856
      pz      :     0.025428  p :     0.062954
      px      :     0.017812
      py      :     0.019714
 86 H s       :     0.913775  s :     0.913775
      pz      :     0.020748  p :     0.064559
      px      :     0.023823
      py      :     0.019989
 87 H s       :     0.913378  s :     0.913378
      pz      :     0.025264  p :     0.065296
      px      :     0.025812
      py      :     0.014219


                      *****************************
                      * MAYER POPULATION ANALYSIS *
                      *****************************

  NA   - Mulliken gross atomic population
  ZA   - Total nuclear charge
  QA   - Mulliken gross atomic charge
  VA   - Mayer's total valence
  BVA  - Mayer's bonded valence
  FA   - Mayer's free valence

  ATOM       NA         ZA         QA         VA         BVA        FA
  0 C      5.9816     6.0000     0.0184     3.9905     3.9905     0.0000
  1 C      5.9450     6.0000     0.0550     3.9693     3.9693     0.0000
  2 C      6.1626     6.0000    -0.1626     3.8014     3.8014    -0.0000
  3 C      5.9669     6.0000     0.0331     3.9841     3.9841    -0.0000
  4 C      5.9840     6.0000     0.0160     3.9875     3.9875    -0.0000
  5 C      6.0154     6.0000    -0.0154     3.9705     3.9705    -0.0000
  6 C      6.0036     6.0000    -0.0036     3.9965     3.9965    -0.0000
  7 C      5.9999     6.0000     0.0001     3.9823     3.9823     0.0000
  8 C      5.9898     6.0000     0.0102     3.9972     3.9972     0.0000
  9 C      5.9898     6.0000     0.0102     4.0088     4.0088     0.0000
 10 C      5.9589     6.0000     0.0411     3.9782     3.9782    -0.0000
 11 C      6.1391     6.0000    -0.1391     3.7989     3.7989     0.0000
 12 C      5.9516     6.0000     0.0484     3.9714     3.9714    -0.0000
 13 C      6.0171     6.0000    -0.0171     3.9970     3.9970     0.0000
 14 C      6.0236     6.0000    -0.0236     4.0019     4.0019    -0.0000
 15 C      5.9857     6.0000     0.0143     3.9893     3.9893     0.0000
 16 C      6.0039     6.0000    -0.0039     3.9931     3.9931     0.0000
 17 C      5.9915     6.0000     0.0085     3.9867     3.9867    -0.0000
 18 C      6.0120     6.0000    -0.0120     3.9912     3.9912    -0.0000
 19 C      6.0053     6.0000    -0.0053     3.9730     3.9730     0.0000
 20 C      6.0005     6.0000    -0.0005     3.9965     3.9965     0.0000
 21 C      5.9901     6.0000     0.0099     3.9824     3.9824     0.0000
 22 C      6.0067     6.0000    -0.0067     3.9677     3.9677    -0.0000
 23 C      6.0077     6.0000    -0.0077     3.9991     3.9991    -0.0000
 24 C      5.9925     6.0000     0.0075     3.9735     3.9735     0.0000
 25 C      6.0102     6.0000    -0.0102     3.9953     3.9953    -0.0000
 26 C      5.9964     6.0000     0.0036     3.9830     3.9830    -0.0000
 27 C      6.0006     6.0000    -0.0006     3.9930     3.9930     0.0000
 28 C      6.0069     6.0000    -0.0069     3.9885     3.9885     0.0000
 29 C      5.9924     6.0000     0.0076     3.9916     3.9916     0.0000
 30 C      6.0060     6.0000    -0.0060     3.9940     3.9940    -0.0000
 31 C      5.9957     6.0000     0.0043     3.9873     3.9873    -0.0000
 32 C      6.0050     6.0000    -0.0050     3.9969     3.9969    -0.0000
 33 C      6.0015     6.0000    -0.0015     3.9864     3.9864    -0.0000
 34 C      5.9989     6.0000     0.0011     3.9958     3.9958    -0.0000
 35 C      6.0096     6.0000    -0.0096     3.9945     3.9945    -0.0000
 36 C      6.0015     6.0000    -0.0015     3.9907     3.9907     0.0000
 37 C      6.0026     6.0000    -0.0026     3.9950     3.9950    -0.0000
 38 C      6.0049     6.0000    -0.0049     3.9911     3.9911     0.0000
 39 C      6.0032     6.0000    -0.0032     3.9878     3.9878    -0.0000
 40 C      5.9987     6.0000     0.0013     3.9971     3.9971     0.0000
 41 C      6.0069     6.0000    -0.0069     3.9936     3.9936     0.0000
 42 C      6.0052     6.0000    -0.0052     3.9881     3.9881     0.0000
 43 C      6.0018     6.0000    -0.0018     3.9876     3.9876     0.0000
 44 C      6.0017     6.0000    -0.0017     3.9945     3.9945    -0.0000
 45 C      6.0032     6.0000    -0.0032     3.9871     3.9871    -0.0000
 46 C      5.9967     6.0000     0.0033     3.9873     3.9873    -0.0000
 47 C      5.9991     6.0000     0.0009     3.9966     3.9966    -0.0000
 48 C      5.9996     6.0000     0.0004     3.9932     3.9932    -0.0000
 49 C      6.0011     6.0000    -0.0011     3.9943     3.9943    -0.0000
 50 C      6.0007     6.0000    -0.0007     3.9924     3.9924    -0.0000
 51 C      6.0054     6.0000    -0.0054     3.9919     3.9919    -0.0000
 52 C      6.0012     6.0000    -0.0012     3.9882     3.9882     0.0000
 53 C      6.0000     6.0000    -0.0000     3.9926     3.9926     0.0000
 54 C      5.9951     6.0000     0.0049     3.9841     3.9841     0.0000
 55 C      6.0008     6.0000    -0.0008     3.9990     3.9990    -0.0000
 56 C      6.0173     6.0000    -0.0173     3.9982     3.9982    -0.0000
 57 C      6.0123     6.0000    -0.0123     3.9714     3.9714     0.0000
 58 C      6.0009     6.0000    -0.0009     3.9933     3.9933     0.0000
 59 C      6.0055     6.0000    -0.0055     3.9916     3.9916    -0.0000
 60 C      6.0306     6.0000    -0.0306     3.8903     3.8903     0.0000
 61 C      5.7845     6.0000     0.2155     3.9867     3.9867    -0.0000
 62 C      5.9983     6.0000     0.0017     3.9642     3.9642    -0.0000
 63 C      5.9767     6.0000     0.0233     3.8337     3.8337    -0.0000
 64 C      5.9825     6.0000     0.0175     3.8442     3.8442    -0.0000
 65 C      5.9704     6.0000     0.0296     3.8202     3.8202     0.0000
 66 C      5.9869     6.0000     0.0131     3.8379     3.8379    -0.0000
 67 C      5.9762     6.0000     0.0238     3.8296     3.8296     0.0000
 68 H      1.0149     1.0000    -0.0149     0.9782     0.9782    -0.0000
 69 H      1.0113     1.0000    -0.0113     0.9782     0.9782     0.0000
 70 H      1.0072     1.0000    -0.0072     0.9899     0.9899    -0.0000
 71 H      1.0216     1.0000    -0.0216     0.9859     0.9859    -0.0000
 72 H      1.0138     1.0000    -0.0138     0.9781     0.9781     0.0000
 73 C      6.0308     6.0000    -0.0308     4.1202     4.1202    -0.0000
 74 H      1.0061     1.0000    -0.0061     0.9925     0.9925    -0.0000
 75 H      1.0085     1.0000    -0.0085     1.0076     1.0076    -0.0000
 76 H      0.9750     1.0000     0.0250     1.0063     1.0063    -0.0000
 77 C      5.9487     6.0000     0.0513     3.8735     3.8735    -0.0000
 78 H      0.9876     1.0000     0.0124     0.9984     0.9984    -0.0000
 79 H      0.9723     1.0000     0.0277     0.9975     0.9975    -0.0000
 80 H      0.9742     1.0000     0.0258     0.9993     0.9993    -0.0000
 81 C      5.8482     6.0000     0.1518     4.3252     4.3252     0.0000
 82 O      8.2318     8.0000    -0.2318     2.2551     2.2551    -0.0000
 83 O      8.3080     8.0000    -0.3080     2.1992     2.1992    -0.0000
 84 C      5.8114     6.0000     0.1886     3.9158     3.9158     0.0000
 85 H      0.9697     1.0000     0.0303     0.9885     0.9885    -0.0000
 86 H      0.9702     1.0000     0.0298     0.9952     0.9952     0.0000
 87 H      0.9691     1.0000     0.0309     0.9989     0.9989    -0.0000

  Mayer bond orders larger than 0.100000
B(  0-C ,  1-C ) :   1.2227 B(  0-C ,  4-C ) :   1.1920 B(  0-C , 57-C ) :   1.3976 
B(  1-C ,  2-C ) :   1.0491 B(  1-C , 14-C ) :   1.4962 B(  2-C ,  3-C ) :   1.0641 
B(  2-C , 11-C ) :   0.7457 B(  2-C , 60-C ) :   0.8355 B(  3-C ,  4-C ) :   1.2218 
B(  3-C ,  8-C ) :   1.4886 B(  4-C ,  5-C ) :   1.3963 B(  5-C ,  6-C ) :   1.2205 
B(  5-C , 59-C ) :   1.1802 B(  6-C ,  7-C ) :   1.4150 B(  6-C , 28-C ) :   1.1893 
B(  7-C ,  8-C ) :   1.2099 B(  7-C , 25-C ) :   1.1859 B(  8-C ,  9-C ) :   1.1226 
B(  9-C , 10-C ) :   1.4953 B(  9-C , 24-C ) :   1.2077 B( 10-C , 11-C ) :   1.0669 
B( 10-C , 21-C ) :   1.2199 B( 11-C , 12-C ) :   1.0543 B( 11-C , 60-C ) :   0.8317 
B( 12-C , 13-C ) :   1.4857 B( 12-C , 20-C ) :   1.2313 B( 13-C , 14-C ) :   1.1129 
B( 13-C , 17-C ) :   1.2165 B( 14-C , 15-C ) :   1.2088 B( 15-C , 16-C ) :   1.1855 
B( 15-C , 56-C ) :   1.4208 B( 16-C , 17-C ) :   1.1813 B( 16-C , 42-C ) :   1.4386 
B( 17-C , 18-C ) :   1.4189 B( 18-C , 19-C ) :   1.2105 B( 18-C , 40-C ) :   1.1897 
B( 19-C , 20-C ) :   1.3957 B( 19-C , 38-C ) :   1.1907 B( 20-C , 21-C ) :   1.1868 
B( 21-C , 22-C ) :   1.3974 B( 22-C , 23-C ) :   1.2134 B( 22-C , 37-C ) :   1.1821 
B( 23-C , 24-C ) :   1.4162 B( 23-C , 35-C ) :   1.1937 B( 24-C , 25-C ) :   1.1807 
B( 25-C , 26-C ) :   1.4403 B( 26-C , 27-C ) :   1.1812 B( 26-C , 34-C ) :   1.1849 
B( 27-C , 28-C ) :   1.4345 B( 27-C , 32-C ) :   1.2011 B( 28-C , 29-C ) :   1.1854 
B( 29-C , 30-C ) :   1.4343 B( 29-C , 59-C ) :   1.1945 B( 30-C , 31-C ) :   1.1914 
B( 30-C , 53-C ) :   1.1870 B( 31-C , 32-C ) :   1.4327 B( 31-C , 51-C ) :   1.1883 
B( 32-C , 33-C ) :   1.1803 B( 33-C , 34-C ) :   1.1922 B( 33-C , 49-C ) :   1.4366 
B( 34-C , 35-C ) :   1.4356 B( 35-C , 36-C ) :   1.1853 B( 36-C , 37-C ) :   1.1946 
B( 36-C , 48-C ) :   1.4350 B( 37-C , 38-C ) :   1.4397 B( 38-C , 39-C ) :   1.1845 
B( 39-C , 40-C ) :   1.1929 B( 39-C , 47-C ) :   1.4369 B( 40-C , 41-C ) :   1.4328 
B( 41-C , 42-C ) :   1.1891 B( 41-C , 45-C ) :   1.1941 B( 42-C , 43-C ) :   1.1825 
B( 43-C , 44-C ) :   1.1945 B( 43-C , 55-C ) :   1.4332 B( 44-C , 45-C ) :   1.1843 
B( 44-C , 52-C ) :   1.4333 B( 45-C , 46-C ) :   1.4300 B( 46-C , 47-C ) :   1.1877 
B( 46-C , 50-C ) :   1.1897 B( 47-C , 48-C ) :   1.1908 B( 48-C , 49-C ) :   1.1884 
B( 49-C , 50-C ) :   1.1887 B( 50-C , 51-C ) :   1.4339 B( 51-C , 52-C ) :   1.1889 
B( 52-C , 53-C ) :   1.1880 B( 53-C , 54-C ) :   1.4366 B( 54-C , 55-C ) :   1.1864 
B( 54-C , 58-C ) :   1.1857 B( 55-C , 56-C ) :   1.1948 B( 56-C , 57-C ) :   1.2093 
B( 57-C , 58-C ) :   1.1906 B( 58-C , 59-C ) :   1.4393 B( 60-C , 61-C ) :   1.0856 
B( 60-C , 62-C ) :   1.0022 B( 61-C , 73-C ) :   1.1007 B( 61-C , 74-H ) :   0.8997 
B( 61-C , 75-H ) :   0.8861 B( 62-C , 63-C ) :   1.3990 B( 62-C , 67-C ) :   1.3935 
B( 63-C , 64-C ) :   1.3646 B( 63-C , 70-H ) :   0.9747 B( 64-C , 65-C ) :   1.3851 
B( 64-C , 68-H ) :   0.9819 B( 65-C , 66-C ) :   1.3757 B( 65-C , 69-H ) :   0.9874 
B( 66-C , 67-C ) :   1.3718 B( 66-C , 72-H ) :   0.9827 B( 67-C , 71-H ) :   0.9800 
B( 73-C , 76-H ) :   0.9309 B( 73-C , 77-C ) :   1.0741 B( 73-C , 78-H ) :   0.9313 
B( 77-C , 79-H ) :   0.9226 B( 77-C , 80-H ) :   0.9121 B( 77-C , 81-C ) :   0.9778 
B( 81-C , 82-O ) :   2.0586 B( 81-C , 83-O ) :   1.1918 B( 83-O , 84-C ) :   0.9231 
B( 84-C , 85-H ) :   0.9792 B( 84-C , 86-H ) :   0.9753 B( 84-C , 87-H ) :   0.9732 


-------
TIMINGS
-------

Total SCF time: 0 days 0 hours 34 min 58 sec 

Total time                  ....    2098.356 sec
Sum of individual times     ....    2095.951 sec  ( 99.9%)

Fock matrix formation       ....    2042.570 sec  ( 97.3%)
  Split-RI-J                ....     231.741 sec  ( 11.3% of F)
  Chain of spheres X        ....    1754.956 sec  ( 85.9% of F)
  COS-X 1 center corr.      ....       0.000 sec  (  0.0% of F)
  XC integration            ....      55.278 sec  (  2.7% of F)
    Basis function eval.    ....      16.591 sec  ( 30.0% of XC)
    Density eval.           ....      18.929 sec  ( 34.2% of XC)
    XC-Functional eval.     ....       1.219 sec  (  2.2% of XC)
    XC-Potential eval.      ....      17.184 sec  ( 31.1% of XC)
Diagonalization             ....       0.425 sec  (  0.0%)
Density matrix formation    ....       1.014 sec  (  0.0%)
Population analysis         ....       0.249 sec  (  0.0%)
Initial guess               ....       0.612 sec  (  0.0%)
Orbital Transformation      ....       0.000 sec  (  0.0%)
Orbital Orthonormalization  ....       0.496 sec  (  0.0%)
DIIS solution               ....       0.115 sec  (  0.0%)
SOSCF solution              ....       2.144 sec  (  0.1%)
Grid generation             ....      48.823 sec  (  2.3%)


-------------------------------------------------------------------------------
                          DFT DISPERSION CORRECTION                            
                                                                               
                              DFTD3 V3.1  Rev 1                                
                          USING Becke-Johnson damping                          
-------------------------------------------------------------------------------
Gaussians B3LYP functional is recognized, using regular B3LYP params
Active option DFTDOPT                   ...         4   

molecular C6(AA) [au] = 142872.626675 


            DFT-D V3
 parameters
 s6 scaling factor         :     1.0000 
 a1 scaling factor         :     0.3981 
 s8 scaling factor         :     1.9889 
 a2 scaling factor         :     4.4211 
 ad hoc parameters k1-k3   :    16.0000     1.3333    -4.0000 

 Edisp/kcal,au: -244.696133070977  -0.389948067851 
 E6   /kcal   : -111.177197641 
 E8   /kcal   : -133.518935430 
 % E8         :  54.565200420 

-------------------------   ----------------
Dispersion correction           -0.389948068
-------------------------   ----------------


-------------------------   --------------------
FINAL SINGLE POINT ENERGY     -2900.643248526580
-------------------------   --------------------

                                *** OPTIMIZATION RUN DONE ***

                            ***************************************
                            *     ORCA property calculations      *
                            ***************************************

                                    ---------------------
                                    Active property flags
                                    ---------------------
   (+) Dipole Moment


------------------------------------------------------------------------------
                       ORCA ELECTRIC PROPERTIES CALCULATION
------------------------------------------------------------------------------

Dipole Moment Calculation                       ... on
Quadrupole Moment Calculation                   ... off
Polarizability Calculation                      ... off
GBWName                                         ... PCBM.gbw
Electron density file                           ... PCBM.scfp
The origin for moment calculation is the CENTER OF MASS  = (-1.357300, -1.145389 -0.327508)

-------------
DIPOLE MOMENT
-------------
                                X             Y             Z
Electronic contribution:    -71.85561      21.80274      13.78721
Nuclear contribution   :     73.30838     -22.06831     -14.55025
                        -----------------------------------------
Total Dipole Moment    :      1.45277      -0.26557      -0.76303
                        -----------------------------------------
Magnitude (a.u.)       :      1.66232
Magnitude (Debye)      :      4.22527



--------------------
Rotational spectrum 
--------------------
 
Rotational constants in cm-1:     0.002147     0.001169     0.001064 
Rotational constants in MHz :    64.362230    35.060479    31.902275 

 Dipole components along the rotational axes: 
x,y,z [a.u.] :     1.555663     0.238317     0.535178 
x,y,z [Debye]:     3.954181     0.605755     1.360314 

 

Timings for individual modules:

Sum of individual times         ...    32843.065 sec (= 547.384 min)
GTO integral calculation        ...       24.921 sec (=   0.415 min)   0.1 %
SCF iterations                  ...    26697.639 sec (= 444.961 min)  81.3 %
SCF Gradient evaluation         ...     6101.059 sec (= 101.684 min)  18.6 %
Geometry relaxation             ...       19.446 sec (=   0.324 min)   0.1 %
                             ****ORCA TERMINATED NORMALLY****
TOTAL RUN TIME: 0 days 9 hours 7 minutes 37 seconds 529 msec
