
                                 *****************
                                 * O   R   C   A *
                                 *****************

           --- An Ab Initio, DFT and Semiempirical electronic structure package ---

                  #######################################################
                  #                        -***-                        #
                  #          Department of theory and spectroscopy      #
                  #               Directorship: Frank Neese             #
                  #        Max Planck Institute fuer Kohlenforschung    #
                  #                Kaiser Wilhelm Platz 1               #
                  #                 D-45470 Muelheim/Ruhr               #
                  #                      Germany                        #
                  #                                                     #
                  #                  All rights reserved                #
                  #                        -***-                        #
                  #######################################################


                         Program Version 4.2.0 -  RELEASE  -


 With contributions from (in alphabetic order):
   Daniel Aravena         : Magnetic Suceptibility
   Michael Atanasov       : Ab Initio Ligand Field Theory (pilot matlab implementation)
   Alexander A. Auer      : GIAO ZORA, VPT2
   Ute Becker             : Parallelization
   Giovanni Bistoni       : ED, misc. LED, open-shell LED, HFLED
   Martin Brehm           : Molecular dynamics
   Dmytro Bykov           : SCF Hessian
   Vijay G. Chilkuri      : MRCI spin determinant printing, contributions to CSF-ICE
   Dipayan Datta          : RHF DLPNO-CCSD density
   Achintya Kumar Dutta   : EOM-CC, STEOM-CC
   Dmitry Ganyushin       : Spin-Orbit,Spin-Spin,Magnetic field MRCI
   Miquel Garcia          : C-PCM Hessian, Gaussian charge scheme
   Yang Guo               : DLPNO-NEVPT2, CIM, IAO-localization
   Andreas Hansen         : Spin unrestricted coupled pair/coupled cluster methods
   Benjamin Helmich-Paris : CASSCF linear response (MC-RPA)
   Lee Huntington         : MR-EOM, pCC
   Robert Izsak           : Overlap fitted RIJCOSX, COSX-SCS-MP3, EOM
   Christian Kollmar      : KDIIS, OOCD, Brueckner-CCSD(T), CCSD density
   Simone Kossmann        : Meta GGA functionals, TD-DFT gradient, OOMP2, MP2 Hessian
   Martin Krupicka        : AUTO-CI
   Lucas Lang             : DCDCAS
   Dagmar Lenk            : GEPOL surface, SMD
   Dimitrios Liakos       : Extrapolation schemes; Compound Job, initial MDCI parallelization
   Dimitrios Manganas     : Further ROCIS development; embedding schemes
   Dimitrios Pantazis     : SARC Basis sets
   Taras Petrenko         : DFT Hessian,TD-DFT gradient, ASA, ECA, R-Raman, ABS, FL, XAS/XES, NRVS
   Peter Pinski           : DLPNO-MP2, DLPNO-MP2 Gradient
   Christoph Reimann      : Effective Core Potentials
   Marius Retegan         : Local ZFS, SOC
   Christoph Riplinger    : Optimizer, TS searches, QM/MM, DLPNO-CCSD(T), (RO)-DLPNO pert. Triples
   Tobias Risthaus        : Range-separated hybrids, TD-DFT gradient, RPA, STAB
   Michael Roemelt        : Original ROCIS implementation
   Masaaki Saitow         : Open-shell DLPNO-CCSD energy and density
   Barbara Sandhoefer     : DKH picture change effects
   Avijit Sen             : IP-ROCIS
   Kantharuban Sivalingam : CASSCF convergence, NEVPT2, FIC-MRCI
   Bernardo de Souza      : ESD, SOC TD-DFT
   Georgi Stoychev        : AutoAux, RI-MP2 NMR
   Willem Van den Heuvel  : Paramagnetic NMR
   Boris Wezisla          : Elementary symmetry handling
   Frank Wennmohs         : Technical directorship


 We gratefully acknowledge several colleagues who have allowed us to
 interface, adapt or use parts of their codes:
   Stefan Grimme, W. Hujo, H. Kruse,             : VdW corrections, initial TS optimization,
                  C. Bannwarth                     DFT functionals, gCP, sTDA/sTD-DF
   Ed Valeev, F. Pavosevic, A. Kumar             : LibInt (2-el integral package), F12 methods
   Garnet Chan, S. Sharma, J. Yang, R. Olivares  : DMRG
   Ulf Ekstrom                                   : XCFun DFT Library
   Mihaly Kallay                                 : mrcc  (arbitrary order and MRCC methods)
   Andreas Klamt, Michael Diedenhofen            : otool_cosmo (COSMO solvation model)
   Jiri Pittner, Ondrej Demel                    : Mk-CCSD
   Frank Weinhold                                : gennbo (NPA and NBO analysis)
   Christopher J. Cramer and Donald G. Truhlar   : smd solvation model
   Lars Goerigk                                  : TD-DFT with DH, B97 family of functionals
   V. Asgeirsson, H. Jonsson                     : NEB implementation
   FAccTs GmbH                                   : IRC, NEB, NEB-TS, Multilevel, MM, QM/MM, CI optimization
   S Lehtola, MJT Oliveira, MAL Marques          : LibXC Library


 Your calculation uses the libint2 library for the computation of 2-el integrals
 For citations please refer to: http://libint.valeyev.net

 Your ORCA version has been built with support for libXC version: 4.2.3
 For citations please refer to: https://tddft.org/programs/libxc/

 This ORCA versions uses:
   CBLAS   interface :  Fast vector & matrix operations
   LAPACKE interface :  Fast linear algebra routines
   SCALAPACK package :  Parallel linear algebra routines


Your calculation utilizes the atom-pairwise dispersion correction
with the Becke-Johnson damping scheme (D3BJ)
Cite in your paper:
S.Grimme, S.Ehrlich, L.Goerigk, J Comput Chem, (2011), 32, 1456–1465 
S.Grimme, J.Antony, S.Ehrlich and H.Krieg, J.Chem.Phys., 132, (2010), 154104 
   

----- Orbital basis set information -----
Your calculation utilizes the basis: def2-SVP
   F. Weigend and R. Ahlrichs, Phys. Chem. Chem. Phys. 7, 3297 (2005).

----- AuxJ basis set information -----
Your calculation utilizes the auxiliary basis: def2/J
   F. Weigend, Phys. Chem. Chem. Phys. 8, 1057 (2006).

================================================================================
                                        WARNINGS
                       Please study these warnings very carefully!
================================================================================


WARNING: Geometry Optimization
  ===> : Switching off AutoStart
         For restart on a previous wavefunction, please use MOREAD

INFO   : the flag for use of LIBINT has been found!

================================================================================
                                       INPUT FILE
================================================================================
NAME = SeTIC4Cl.inp
|  1> # ORCA input file
|  2> # SCF done       -241.240580563662          0.000672263094
|  3> ! B3LYP/G D3BJ Opt RIJCOSX def2-SVP def2/J
|  4> * xyz 0 1
|  5>    C        0.81537        -0.27587         0.55228
|  6>    C        2.07006        -0.87940         0.56457
|  7>    C        3.16542        -0.05676         0.44756
|  8>    C        3.00739         1.34305         0.31808
|  9>    C        1.75222         1.94669         0.30654
| 10>    C        0.65707         1.12322         0.41586
| 11>    C        4.63224        -0.44024         0.39263
| 12>    C        5.27517         0.90957         0.21048
| 13>    C        4.31426         1.90862         0.19195
| 14>    C       -0.81263         1.50176         0.42145
| 15>    C       -1.45508         0.15182         0.60377
| 16>    C       -0.49275        -0.84460         0.65266
| 17>    C        5.17016        -1.03049         1.68418
| 18>    C        4.83042        -1.37185        -0.78932
| 19>    C       -1.06192         2.46648         1.56389
| 20>    C       -1.30710         2.04005        -0.91136
| 21>    C       -2.76217        -0.32571         0.66744
| 22>    C       -2.86594        -1.72809         0.77668
| 23>   Se       -1.18804        -2.57206         0.80501
| 24>    S       -4.31317         0.41125         0.64968
| 25>    C       -5.09984        -1.16045         0.72810
| 26>    C       -4.17315        -2.19025         0.80206
| 27>    C        6.58329         1.37251         0.08216
| 28>    C        6.68563         2.77606        -0.05245
| 29>   Se        5.00785         3.63387        -0.00401
| 30>    S        8.12140         0.60574         0.03076
| 31>    C        8.91204         2.16363        -0.17826
| 32>    C        7.98621         3.21239        -0.19829
| 33>    C        4.49617        -0.88187         2.88747
| 34>    C        5.04170        -1.37675         4.05874
| 35>    C        6.27479        -2.01369         4.06028
| 36>    C        6.94888        -2.14947         2.85287
| 37>    C        6.40694        -1.66454         1.67898
| 38>    C        4.63490        -2.73845        -0.63505
| 39>    C        4.76037        -3.59040        -1.71538
| 40>    C        5.08102        -3.10301        -2.97596
| 41>    C        5.26555        -1.73557        -3.12588
| 42>    C        5.13834        -0.87805        -2.04869
| 43>    C       -1.44157         2.01216         2.81860
| 44>    C       -1.62149         2.90224         3.86157
| 45>    C       -1.42023         4.26368         3.68139
| 46>    C       -1.02726         4.71160         2.42652
| 47>    C       -0.84886         3.82714         1.38046
| 48>    C       -0.61504         1.79948        -2.08952
| 49>    C       -1.12675         2.23086        -3.29967
| 50>    C       -2.34299         2.89661        -3.36612
| 51>    C       -3.03360         3.12814        -2.18342
| 52>    C       -2.52667         2.70279        -0.97087
| 53>    C       -6.50582        -1.20902         0.77066
| 54>    C       -7.34853        -2.26346         0.55763
| 55>    C       -7.17168        -3.56176        -0.05015
| 56>    C       -8.30212        -4.39171         0.36694
| 57>    C       -9.25078        -3.57538         1.00881
| 58>    C       -8.73392        -2.19075         1.08969
| 59>    C       -8.55153        -5.74320         0.20334
| 60>    C       -9.75163        -6.26036         0.68002
| 61>    C      -10.69728        -5.43945         1.30398
| 62>    C      -10.44677        -4.08279         1.47268
| 63>   Cl      -12.17475        -6.10857         1.86791
| 64>   Cl      -10.06733        -7.93777         0.49451
| 65>    O       -9.29354        -1.21451         1.53178
| 66>    C       -6.27975        -3.89344        -1.03812
| 67>    C       -6.21594        -5.16267        -1.64806
| 68>    C       -5.37876        -2.97967        -1.62046
| 69>    N       -6.10159        -6.18514        -2.15698
| 70>    N       -4.65743        -2.26316        -2.15335
| 71>    C        6.84773        -2.58450         5.32534
| 72>    C        6.44778        -4.05346         5.47821
| 73>    C        5.17030        -4.02592        -4.15653
| 74>    C        3.79832        -4.18071        -4.81618
| 75>    C       -1.57024         5.22287         4.82640
| 76>    C       -0.23632         5.39376         5.55636
| 77>    C       -2.87823         3.39203        -4.67811
| 78>    C       -2.38580         4.81397        -4.95517
| 79>    C       10.28636         2.39220        -0.31804
| 80>    C       11.34401         1.51494        -0.31241
| 81>    C       12.73939         1.87410        -0.47256
| 82>    C       13.52210         0.64244        -0.36609
| 83>    C       12.64455        -0.43566        -0.16015
| 84>    C       11.25520         0.06332        -0.12460
| 85>    C       14.88578         0.41029        -0.43337
| 86>    C       15.34855        -0.89425        -0.29331
| 87>    C       14.46597        -1.96000        -0.08897
| 88>    C       13.09726        -1.73116        -0.02145
| 89>   Cl       15.07245        -3.55764         0.08018
| 90>   Cl       17.03822        -1.18974        -0.37432
| 91>    O       10.25533        -0.61295         0.03254
| 92>    C       13.26423         3.12147        -0.69346
| 93>    C       14.64284         3.38439        -0.84224
| 94>    C       12.53038         4.32054        -0.81139
| 95>    N       12.01598         5.34193        -0.92235
| 96>    N       15.74645         3.67232        -0.97174
| 97>    H        2.16251        -1.95131         0.66056
| 98>    H        1.65990         3.01794         0.20416
| 99>    H       -4.44468        -3.22497         0.91619
|100>    H        8.28158         4.24051        -0.31664
|101>    H        3.54062        -0.37803         2.91469
|102>    H        4.50116        -1.25737         4.98708
|103>    H        7.91388        -2.63416         2.82976
|104>    H        6.94765        -1.78218         0.75167
|105>    H        4.39681        -3.13960         0.33950
|106>    H        4.60989        -4.65156        -1.57678
|107>    H        5.51339        -1.33412        -4.09816
|108>    H        5.28198         0.18296        -2.19405
|109>    H       -1.60019         0.95645         2.98616
|110>    H       -1.92508         2.53156         4.83024
|111>    H       -0.86276         5.76740         2.26503
|112>    H       -0.55677         4.19744         0.40845
|113>    H        0.32663         1.27025        -2.06603
|114>    H       -0.57473         2.03629        -4.20802
|115>    H       -3.98473         3.63986        -2.21134
|116>    H       -3.08018         2.88978        -0.06187
|117>    H       -7.00021        -0.29483         1.08587
|118>    H       -7.84372        -6.40396        -0.27027
|119>    H      -11.16841        -3.44080         1.95246
|120>    H        6.48271        -2.02042         6.18596
|121>    H        7.93676        -2.50936         5.30358
|122>    H        5.36477        -4.14851         5.51657
|123>    H        6.86567        -4.46872         6.39231
|124>    H        6.81247        -4.63424         4.63393
|125>    H        5.52722        -5.00617        -3.83454
|126>    H        5.87766        -3.62698        -4.88618
|127>    H        3.08086        -4.58788        -4.10723
|128>    H        3.86036        -4.84995        -5.67099
|129>    H        3.43083        -3.21507        -5.15645
|130>    H       -2.31903         4.84935         5.52757
|131>    H       -1.90359         6.19387         4.45494
|132>    H        0.10741         4.43776         5.94520
|133>    H       -0.34281         6.08859         6.38599
|134>    H        0.52087         5.77758         4.87625
|135>    H       -3.96961         3.38673        -4.65718
|136>    H       -2.54848         2.73351        -5.48388
|137>    H       -2.71875         5.48961        -4.17038
|138>    H       -2.77104         5.17095        -5.90738
|139>    H       -1.29881         4.83817        -4.98905
|140>    H       10.52774         3.44031        -0.44770
|141>    H       15.59796         1.20357        -0.58940
|142>    H       12.40431        -2.54259         0.13508
|143> *
|144> 
|145>                          ****END OF INPUT****
================================================================================

                       *****************************
                       * Geometry Optimization Run *
                       *****************************

Geometry optimization settings:
Update method            Update   .... BFGS
Choice of coordinates    CoordSys .... Z-matrix Internals
Initial Hessian          InHess   .... Almoef's Model

Convergence Tolerances:
Energy Change            TolE     ....  5.0000e-06 Eh
Max. Gradient            TolMAXG  ....  3.0000e-04 Eh/bohr
RMS Gradient             TolRMSG  ....  1.0000e-04 Eh/bohr
Max. Displacement        TolMAXD  ....  4.0000e-03 bohr
RMS Displacement         TolRMSD  ....  2.0000e-03 bohr
Strict Convergence                ....  False
------------------------------------------------------------------------------
                        ORCA OPTIMIZATION COORDINATE SETUP
------------------------------------------------------------------------------

The optimization will be done in new redundant internal coordinates
Making redundant internal coordinates   ...  (new redundants) done
Evaluating the initial hessian          ...  (Almloef) done
Evaluating the coordinates              ...  done
Calculating the B-matrix                .... done
Calculating the G-matrix                .... done
Diagonalizing the G-matrix              .... done
Small eigenvalue found = 2.999e-04
Small eigenvalue found = 5.419e-04
Small eigenvalue found = 9.498e-04
Small eigenvalue found = 1.048e-03
Small eigenvalue found = 1.289e-03
Small eigenvalue found = 1.369e-03
Small eigenvalue found = 1.701e-03
Small eigenvalue found = 2.098e-03
Small eigenvalue found = 2.562e-03
Small eigenvalue found = 2.864e-03
Small eigenvalue found = 3.039e-03
Small eigenvalue found = 3.890e-03
Small eigenvalue found = 4.165e-03
Small eigenvalue found = 4.966e-03
Small eigenvalue found = 8.279e-03
Small eigenvalue found = 8.620e-03
Small eigenvalue found = 1.097e-02
Small eigenvalue found = 1.387e-02
Small eigenvalue found = 1.546e-02
Small eigenvalue found = 1.568e-02
Small eigenvalue found = 1.873e-02
Small eigenvalue found = 2.122e-02
Small eigenvalue found = 2.272e-02
Small eigenvalue found = 2.421e-02
Small eigenvalue found = 2.504e-02
Small eigenvalue found = 2.720e-02
Small eigenvalue found = 2.749e-02
The first mode is                       ....  405
The number of degrees of freedom        ....  408

    -----------------------------------------------------------------
                    Redundant Internal Coordinates


    -----------------------------------------------------------------
         Definition                    Initial Value    Approx d2E/dq
    -----------------------------------------------------------------
      1. B(C   1,C   0)                  1.3924         0.619419   
      2. B(C   2,C   1)                  1.3749         0.660530   
      3. B(C   3,C   2)                  1.4146         0.570725   
      4. B(C   4,C   3)                  1.3928         0.618342   
      5. B(C   5,C   4)                  1.3746         0.661267   
      6. B(C   5,C   0)                  1.4146         0.570788   
      7. B(C   6,C   2)                  1.5171         0.391684   
      8. B(C   7,C   6)                  1.5062         0.407764   
      9. B(C   8,C   7)                  1.3863         0.633377   
     10. B(C   8,C   3)                  1.4296         0.540254   
     11. B(C   9,C   5)                  1.5177         0.390876   
     12. B(C  10,C   9)                  1.5061         0.407866   
     13. B(C  11,C   0)                  1.4299         0.539546   
     14. B(C  11,C  10)                  1.3861         0.633771   
     15. B(C  12,C   6)                  1.5185         0.389689   
     16. B(C  13,C   6)                  1.5180         0.390480   
     17. B(C  14,C   9)                  1.5159         0.393413   
     18. B(C  15,C   9)                  1.5201         0.387442   
     19. B(C  16,C  10)                  1.3930         0.617847   
     20. B(C  17,C  16)                  1.4105         0.579576   
     21. B(Se 18,C  17)                  1.8784         0.504132   
     22. B(Se 18,C  11)                  1.8684         0.523105   
     23. B(S  19,C  16)                  1.7173         0.506248   
     24. B(C  20,S  19)                  1.7593         0.433775   
     25. B(C  21,C  20)                  1.3873         0.630932   
     26. B(C  21,C  17)                  1.3867         0.632336   
     27. B(C  22,C   7)                  1.3935         0.616721   
     28. B(C  23,C  22)                  1.4137         0.572701   
     29. B(Se 24,C  23)                  1.8850         0.492125   
     30. B(Se 24,C   8)                  1.8697         0.520439   
     31. B(S  25,C  22)                  1.7194         0.502294   
     32. B(C  26,S  25)                  1.7595         0.433512   
     33. B(C  27,C  26)                  1.3991         0.604271   
     34. B(C  27,C  23)                  1.3796         0.649245   
     35. B(C  28,C  12)                  1.3872         0.631312   
     36. B(C  29,C  28)                  1.3836         0.639632   
     37. B(C  30,C  29)                  1.3879         0.629686   
     38. B(C  31,C  30)                  1.3895         0.625976   
     39. B(C  32,C  31)                  1.3809         0.646046   
     40. B(C  32,C  12)                  1.3898         0.625151   
     41. B(C  33,C  13)                  1.3891         0.626846   
     42. B(C  34,C  33)                  1.3815         0.644501   
     43. B(C  35,C  34)                  1.3890         0.627008   
     44. B(C  36,C  35)                  1.3880         0.629508   
     45. B(C  37,C  36)                  1.3827         0.641777   
     46. B(C  37,C  13)                  1.3873         0.630970   
     47. B(C  38,C  14)                  1.3874         0.630827   
     48. B(C  39,C  38)                  1.3829         0.641318   
     49. B(C  40,C  39)                  1.3880         0.629449   
     50. B(C  41,C  40)                  1.3892         0.626735   
     51. B(C  42,C  41)                  1.3814         0.644789   
     52. B(C  42,C  14)                  1.3894         0.626171   
     53. B(C  43,C  15)                  1.3874         0.630790   
     54. B(C  44,C  43)                  1.3829         0.641319   
     55. B(C  45,C  44)                  1.3881         0.629125   
     56. B(C  46,C  45)                  1.3890         0.627090   
     57. B(C  47,C  46)                  1.3814         0.644926   
     58. B(C  47,C  15)                  1.3893         0.626436   
     59. B(C  48,C  20)                  1.4075         0.585974   
     60. B(C  49,C  48)                  1.3665         0.681074   
     61. B(C  50,C  49)                  1.4444         0.511643   
     62. B(C  51,C  50)                  1.4631         0.477644   
     63. B(C  52,C  51)                  1.4065         0.587969   
     64. B(C  53,C  52)                  1.4802         0.448629   
     65. B(C  53,C  49)                  1.4858         0.439394   
     66. B(C  54,C  51)                  1.3840         0.638687   
     67. B(C  55,C  54)                  1.3910         0.622475   
     68. B(C  56,C  55)                  1.3991         0.604261   
     69. B(C  57,C  56)                  1.3899         0.625093   
     70. B(C  57,C  52)                  1.3795         0.649357   
     71. B(Cl 58,C  56)                  1.7172         0.421467   
     72. B(Cl 59,C  55)                  1.7169         0.421860   
     73. B(O  60,C  53)                  1.2090         1.088082   
     74. B(C  61,C  50)                  1.3717         0.668177   
     75. B(C  62,C  61)                  1.4096         0.581337   
     76. B(C  63,C  61)                  1.4092         0.582220   
     77. B(N  64,C  62)                  1.1478         1.362190   
     78. B(N  65,C  63)                  1.1479         1.361852   
     79. B(C  66,C  30)                  1.5015         0.414829   
     80. B(C  67,C  66)                  1.5301         0.373452   
     81. B(C  68,C  35)                  1.5012         0.415328   
     82. B(C  69,C  68)                  1.5302         0.373338   
     83. B(C  70,C  40)                  1.5012         0.415268   
     84. B(C  71,C  70)                  1.5302         0.373356   
     85. B(C  72,C  45)                  1.5011         0.415449   
     86. B(C  73,C  72)                  1.5301         0.373457   
     87. B(C  74,C  26)                  1.4002         0.601835   
     88. B(C  75,C  74)                  1.3741         0.662299   
     89. B(C  76,C  75)                  1.4497         0.501691   
     90. B(C  77,C  76)                  1.4632         0.477475   
     91. B(C  78,C  77)                  1.4053         0.590696   
     92. B(C  79,C  78)                  1.4767         0.454434   
     93. B(C  79,C  75)                  1.4664         0.471878   
     94. B(C  80,C  77)                  1.3849         0.636532   
     95. B(C  81,C  80)                  1.3913         0.621917   
     96. B(C  82,C  81)                  1.3988         0.605013   
     97. B(C  83,C  82)                  1.3894         0.626290   
     98. B(C  83,C  78)                  1.3793         0.649814   
     99. B(Cl 84,C  82)                  1.7172         0.421364   
    100. B(Cl 85,C  81)                  1.7172         0.421374   
    101. B(O  86,C  79)                  1.2173         1.055448   
    102. B(C  87,C  76)                  1.3712         0.669476   
    103. B(C  88,C  87)                  1.4113         0.577726   
    104. B(C  89,C  87)                  1.4107         0.578942   
    105. B(N  90,C  89)                  1.1490         1.356457   
    106. B(N  91,C  88)                  1.1479         1.361953   
    107. B(H  92,C   1)                  1.0802         0.373351   
    108. B(H  93,C   4)                  1.0801         0.373460   
    109. B(H  94,C  21)                  1.0758         0.379348   
    110. B(H  95,C  27)                  1.0762         0.378778   
    111. B(H  96,C  28)                  1.0806         0.372768   
    112. B(H  97,C  29)                  1.0809         0.372401   
    113. B(H  98,C  31)                  1.0801         0.373395   
    114. B(H  99,C  32)                  1.0799         0.373759   
    115. B(H  99,O  86)                  3.5812         0.000034   
    116. B(H 100,C  33)                  1.0804         0.372968   
    117. B(H 101,C  34)                  1.0807         0.372614   
    118. B(H 102,C  36)                  1.0807         0.372614   
    119. B(H 103,C  37)                  1.0805         0.372874   
    120. B(H 104,C  38)                  1.0806         0.372712   
    121. B(H 105,C  39)                  1.0807         0.372628   
    122. B(H 106,C  41)                  1.0807         0.372653   
    123. B(H 107,C  42)                  1.0804         0.373040   
    124. B(H 108,C  43)                  1.0805         0.372954   
    125. B(H 109,C  44)                  1.0806         0.372760   
    126. B(H 110,C  46)                  1.0804         0.373013   
    127. B(H 111,C  47)                  1.0806         0.372801   
    128. B(H 112,C  48)                  1.0861         0.365353   
    129. B(H 113,C  54)                  1.0779         0.376444   
    130. B(H 114,C  57)                  1.0785         0.375676   
    131. B(H 115,C  66)                  1.0918         0.357687   
    132. B(H 116,C  66)                  1.0918         0.357679   
    133. B(H 117,C  67)                  1.0878         0.362956   
    134. B(H 118,C  67)                  1.0875         0.363425   
    135. B(H 119,C  67)                  1.0877         0.363142   
    136. B(H 120,C  68)                  1.0918         0.357767   
    137. B(H 121,C  68)                  1.0917         0.357803   
    138. B(H 122,C  69)                  1.0877         0.363122   
    139. B(H 123,C  69)                  1.0874         0.363561   
    140. B(H 124,C  69)                  1.0878         0.363032   
    141. B(H 125,C  70)                  1.0917         0.357838   
    142. B(H 126,C  70)                  1.0918         0.357776   
    143. B(H 127,C  71)                  1.0878         0.363038   
    144. B(H 128,C  71)                  1.0874         0.363571   
    145. B(H 129,C  71)                  1.0878         0.363086   
    146. B(H 130,C  72)                  1.0916         0.357998   
    147. B(H 131,C  72)                  1.0916         0.357954   
    148. B(H 132,C  73)                  1.0878         0.363064   
    149. B(H 133,C  73)                  1.0875         0.363489   
    150. B(H 134,C  73)                  1.0878         0.363039   
    151. B(H 135,C  74)                  1.0833         0.369028   
    152. B(H 136,C  80)                  1.0774         0.377129   
    153. B(H 137,C  83)                  1.0785         0.375679   
    154. A(C   5,C   0,C  11)          107.3235         0.417179   
    155. A(C   1,C   0,C   5)          122.0322         0.427595   
    156. A(C   1,C   0,C  11)          130.6430         0.423309   
    157. A(C   0,C   1,C   2)          117.2469         0.438973   
    158. A(C   0,C   1,H  92)          120.5347         0.355020   
    159. A(C   2,C   1,H  92)          122.2183         0.358917   
    160. A(C   1,C   2,C   6)          128.4721         0.404488   
    161. A(C   3,C   2,C   6)          110.7820         0.394223   
    162. A(C   1,C   2,C   3)          120.7212         0.432547   
    163. A(C   4,C   3,C   8)          130.6644         0.423276   
    164. A(C   2,C   3,C   4)          122.0242         0.427453   
    165. A(C   2,C   3,C   8)          107.3031         0.417268   
    166. A(C   3,C   4,H  93)          120.5081         0.354933   
    167. A(C   5,C   4,H  93)          122.2503         0.359003   
    168. A(C   3,C   4,C   5)          117.2382         0.438923   
    169. A(C   4,C   5,C   9)          128.4926         0.404420   
    170. A(C   0,C   5,C   4)          120.7318         0.432642   
    171. A(C   0,C   5,C   9)          110.7748         0.394088   
    172. A(C  12,C   6,C  13)          112.1767         0.368775   
    173. A(C   7,C   6,C  12)          107.4577         0.371531   
    174. A(C   2,C   6,C  12)          114.2021         0.368970   
    175. A(C   2,C   6,C   7)          100.9857         0.371858   
    176. A(C   7,C   6,C  13)          113.5857         0.371661   
    177. A(C   2,C   6,C  13)          108.0323         0.369099   
    178. A(C   8,C   7,C  22)          114.2065         0.435321   
    179. A(C   6,C   7,C   8)          110.5844         0.404363   
    180. A(C   6,C   7,C  22)          135.1987         0.402467   
    181. A(C   7,C   8,Se 24)          114.1574         0.458582   
    182. A(C   3,C   8,Se 24)          135.5128         0.445516   
    183. A(C   3,C   8,C   7)          110.3264         0.425099   
    184. A(C   5,C   9,C  14)          108.7086         0.369442   
    185. A(C  14,C   9,C  15)          112.4534         0.368883   
    186. A(C   5,C   9,C  10)          100.9509         0.371742   
    187. A(C  10,C   9,C  15)          106.5461         0.371178   
    188. A(C   5,C   9,C  15)          113.5847         0.368473   
    189. A(C  10,C   9,C  14)          114.1441         0.372156   
    190. A(C   9,C  10,C  16)          135.4823         0.402614   
    191. A(C   9,C  10,C  11)          110.6369         0.404425   
    192. A(C  11,C  10,C  16)          113.7904         0.435513   
    193. A(C   0,C  11,C  10)          110.2875         0.425046   
    194. A(C   0,C  11,Se 18)          135.5532         0.445823   
    195. A(C  10,C  11,Se 18)          114.1520         0.459062   
    196. A(C   6,C  12,C  32)          119.2996         0.400221   
    197. A(C  28,C  12,C  32)          118.9787         0.436130   
    198. A(C   6,C  12,C  28)          121.6030         0.400913   
    199. A(C   6,C  13,C  37)          121.1554         0.401018   
    200. A(C  33,C  13,C  37)          118.8308         0.436301   
    201. A(C   6,C  13,C  33)          119.9294         0.400555   
    202. A(C   9,C  14,C  38)          121.2092         0.401531   
    203. A(C   9,C  14,C  42)          119.9019         0.401007   
    204. A(C  38,C  14,C  42)          118.8193         0.436198   
    205. A(C   9,C  15,C  43)          121.3929         0.400446   
    206. A(C  43,C  15,C  47)          118.9616         0.436227   
    207. A(C   9,C  15,C  47)          119.4748         0.399959   
    208. A(C  17,C  16,S  19)          111.1642         0.436390   
    209. A(C  10,C  16,S  19)          134.4162         0.441454   
    210. A(C  10,C  16,C  17)          114.4190         0.428573   
    211. A(Se 18,C  17,C  21)          133.7897         0.455792   
    212. A(C  16,C  17,C  21)          113.7118         0.430359   
    213. A(C  16,C  17,Se 18)          112.4687         0.448630   
    214. A(C  11,Se 18,C  17)           85.1682         0.478669   
    215. A(C  16,S  19,C  20)           91.1465         0.437177   
    216. A(S  19,C  20,C  48)          118.6102         0.425286   
    217. A(C  21,C  20,C  48)          129.7941         0.431036   
    218. A(S  19,C  20,C  21)          111.5198         0.430960   
    219. A(C  17,C  21,C  20)          112.4141         0.436982   
    220. A(C  17,C  21,H  94)          124.0834         0.357231   
    221. A(C  20,C  21,H  94)          123.4349         0.357096   
    222. A(C  23,C  22,S  25)          112.0332         0.434838   
    223. A(C   7,C  22,C  23)          113.9877         0.427517   
    224. A(C   7,C  22,S  25)          133.9738         0.440684   
    225. A(C  22,C  23,Se 24)          112.6393         0.445709   
    226. A(C  22,C  23,C  27)          113.0994         0.431478   
    227. A(Se 24,C  23,C  27)          134.2597         0.455982   
    228. A(C   8,Se 24,C  23)           85.0069         0.476101   
    229. A(C  22,S  25,C  26)           90.6116         0.436512   
    230. A(S  25,C  26,C  74)          126.6875         0.427279   
    231. A(C  27,C  26,C  74)          121.7163         0.429764   
    232. A(S  25,C  26,C  27)          111.5958         0.427588   
    233. A(C  26,C  27,H  95)          122.4152         0.354399   
    234. A(C  23,C  27,H  95)          124.9252         0.358746   
    235. A(C  23,C  27,C  26)          112.6596         0.435663   
    236. A(C  12,C  28,C  29)          120.2931         0.437934   
    237. A(C  12,C  28,H  96)          120.0964         0.356073   
    238. A(C  29,C  28,H  96)          119.6106         0.356866   
    239. A(C  28,C  29,H  97)          119.3665         0.356806   
    240. A(C  30,C  29,H  97)          119.6080         0.355858   
    241. A(C  28,C  29,C  30)          121.0237         0.437731   
    242. A(C  29,C  30,C  66)          120.9592         0.405173   
    243. A(C  29,C  30,C  31)          118.3536         0.436031   
    244. A(C  31,C  30,C  66)          120.6548         0.404751   
    245. A(C  32,C  31,H  98)          119.3417         0.357573   
    246. A(C  30,C  31,H  98)          119.7270         0.355662   
    247. A(C  30,C  31,C  32)          120.9298         0.438052   
    248. A(C  31,C  32,H  99)          119.6850         0.357633   
    249. A(C  12,C  32,H  99)          119.8999         0.355641   
    250. A(C  12,C  32,C  31)          120.4149         0.437948   
    251. A(C  34,C  33,H 100)          119.7613         0.357358   
    252. A(C  13,C  33,H 100)          119.7658         0.355677   
    253. A(C  13,C  33,C  34)          120.4672         0.437973   
    254. A(C  35,C  34,H 101)          119.5426         0.355635   
    255. A(C  33,C  34,H 101)          119.5103         0.357301   
    256. A(C  33,C  34,C  35)          120.9468         0.437993   
    257. A(C  34,C  35,C  68)          120.7782         0.404954   
    258. A(C  36,C  35,C  68)          120.8543         0.405239   
    259. A(C  34,C  35,C  36)          118.3212         0.436139   
    260. A(C  37,C  36,H 102)          119.4465         0.357044   
    261. A(C  35,C  36,H 102)          119.5807         0.355875   
    262. A(C  35,C  36,C  37)          120.9728         0.437973   
    263. A(C  36,C  37,H 103)          119.4688         0.357086   
    264. A(C  13,C  37,H 103)          120.0755         0.356057   
    265. A(C  13,C  37,C  36)          120.4557         0.438156   
    266. A(C  39,C  38,H 104)          119.5216         0.357016   
    267. A(C  14,C  38,H 104)          120.0205         0.356017   
    268. A(C  14,C  38,C  39)          120.4578         0.438082   
    269. A(C  40,C  39,H 105)          119.5733         0.355872   
    270. A(C  38,C  39,H 105)          119.4587         0.357002   
    271. A(C  38,C  39,C  40)          120.9679         0.437909   
    272. A(C  39,C  40,C  41)          118.3306         0.436097   
    273. A(C  41,C  40,C  70)          120.7467         0.404913   
    274. A(C  39,C  40,C  70)          120.8791         0.405222   
    275. A(C  40,C  41,H 106)          119.5425         0.355615   
    276. A(C  40,C  41,C  42)          120.9387         0.437994   
    277. A(C  42,C  41,H 106)          119.5183         0.357334   
    278. A(C  41,C  42,H 107)          119.7846         0.357397   
    279. A(C  14,C  42,H 107)          119.7286         0.355623   
    280. A(C  14,C  42,C  41)          120.4797         0.437923   
    281. A(C  44,C  43,H 108)          119.6248         0.357056   
    282. A(C  15,C  43,H 108)          120.0805         0.356053   
    283. A(C  15,C  43,C  44)          120.2944         0.438077   
    284. A(C  43,C  44,H 109)          119.3670         0.357024   
    285. A(C  43,C  44,C  45)          121.0449         0.437868   
    286. A(C  45,C  44,H 109)          119.5848         0.355862   
    287. A(C  44,C  45,C  46)          118.3475         0.436101   
    288. A(C  46,C  45,C  72)          120.7915         0.404985   
    289. A(C  44,C  45,C  72)          120.8338         0.405216   
    290. A(C  47,C  46,H 110)          119.4452         0.357406   
    291. A(C  45,C  46,H 110)          119.6467         0.355707   
    292. A(C  45,C  46,C  47)          120.9058         0.438055   
    293. A(C  46,C  47,H 111)          119.8119         0.357371   
    294. A(C  15,C  47,H 111)          119.7477         0.355610   
    295. A(C  15,C  47,C  46)          120.4400         0.437973   
    296. A(C  20,C  48,H 112)          115.7512         0.350414   
    297. A(C  20,C  48,C  49)          129.6388         0.437008   
    298. A(C  49,C  48,H 112)          114.4586         0.359466   
    299. A(C  50,C  49,C  53)          107.9887         0.394614   
    300. A(C  48,C  49,C  53)          118.7777         0.415055   
    301. A(C  48,C  49,C  50)          133.1311         0.426486   
    302. A(C  49,C  50,C  51)          107.1770         0.400443   
    303. A(C  51,C  50,C  61)          124.7881         0.419839   
    304. A(C  49,C  50,C  61)          126.8715         0.425028   
    305. A(C  52,C  51,C  54)          119.9433         0.432247   
    306. A(C  50,C  51,C  54)          131.2586         0.416476   
    307. A(C  50,C  51,C  52)          108.7827         0.410401   
    308. A(C  53,C  52,C  57)          128.9355         0.413077   
    309. A(C  51,C  52,C  57)          121.6491         0.433537   
    310. A(C  51,C  52,C  53)          109.4110         0.405874   
    311. A(C  49,C  53,C  52)          105.0845         0.385657   
    312. A(C  52,C  53,O  60)          127.8584         0.450243   
    313. A(C  49,C  53,O  60)          127.0168         0.448547   
    314. A(C  55,C  54,H 113)          119.2871         0.355814   
    315. A(C  51,C  54,H 113)          122.1540         0.357371   
    316. A(C  51,C  54,C  55)          118.5559         0.436706   
    317. A(C  56,C  55,Cl 59)          119.8115         0.421569   
    318. A(C  54,C  55,Cl 59)          119.0024         0.423812   
    319. A(C  54,C  55,C  56)          121.1861         0.432373   
    320. A(C  55,C  56,Cl 58)          119.9590         0.421499   
    321. A(C  55,C  56,C  57)          120.3333         0.432699   
    322. A(C  57,C  56,Cl 58)          119.7076         0.424060   
    323. A(C  56,C  57,H 114)          120.9604         0.355944   
    324. A(C  52,C  57,H 114)          120.7140         0.358255   
    325. A(C  52,C  57,C  56)          118.3255         0.438344   
    326. A(C  62,C  61,C  63)          112.0921         0.424269   
    327. A(C  50,C  61,C  63)          123.8187         0.435002   
    328. A(C  50,C  61,C  62)          123.9724         0.434883   
    329. L(C  61,C  62,N  64,C  63, 2) 177.2570         0.492048   
    330. L(C  61,C  62,N  64,C  63, 1) 177.1956         0.492048   
    331. L(C  61,C  63,N  65,C  62, 2) 176.7085         0.492164   
    332. L(C  61,C  63,N  65,C  62, 1) 177.3077         0.492164   
    333. A(C  30,C  66,C  67)          110.4513         0.369913   
    334. A(H 115,C  66,H 116)          108.2772         0.290225   
    335. A(C  67,C  66,H 116)          109.1947         0.323942   
    336. A(C  30,C  66,H 116)          109.7336         0.329597   
    337. A(C  67,C  66,H 115)          109.2601         0.323944   
    338. A(C  30,C  66,H 115)          109.8856         0.329598   
    339. A(H 118,C  67,H 119)          108.6455         0.291645   
    340. A(H 117,C  67,H 119)          108.3311         0.291586   
    341. A(C  66,C  67,H 119)          110.3300         0.324750   
    342. A(H 117,C  67,H 118)          108.6360         0.291622   
    343. A(C  66,C  67,H 118)          110.4952         0.324791   
    344. A(C  66,C  67,H 117)          110.3426         0.324722   
    345. A(H 120,C  68,H 121)          108.2632         0.290251   
    346. A(C  69,C  68,H 121)          109.2557         0.323945   
    347. A(C  35,C  68,H 121)          109.8453         0.329681   
    348. A(C  69,C  68,H 120)          109.2346         0.323939   
    349. A(C  35,C  68,H 120)          109.8465         0.329676   
    350. A(C  35,C  68,C  69)          110.3587         0.369970   
    351. A(H 123,C  69,H 124)          108.6456         0.291648   
    352. A(C  68,C  69,H 124)          110.3624         0.324717   
    353. A(H 122,C  69,H 123)          108.6395         0.291660   
    354. A(C  68,C  69,H 123)          110.4867         0.324795   
    355. A(C  68,C  69,H 122)          110.3832         0.324731   
    356. A(H 122,C  69,H 124)          108.2609         0.291593   
    357. A(C  71,C  70,H 126)          109.2176         0.323943   
    358. A(C  40,C  70,H 126)          109.8326         0.329669   
    359. A(C  71,C  70,H 125)          109.2530         0.323952   
    360. A(C  40,C  70,H 125)          109.8648         0.329679   
    361. A(H 125,C  70,H 126)          108.2640         0.290257   
    362. A(C  40,C  70,C  71)          110.3716         0.369964   
    363. A(H 127,C  71,H 129)          108.2790         0.291589   
    364. A(C  70,C  71,H 129)          110.3630         0.324728   
    365. A(H 127,C  71,H 128)          108.6505         0.291650   
    366. A(C  70,C  71,H 128)          110.4847         0.324799   
    367. A(C  70,C  71,H 127)          110.3552         0.324721   
    368. A(H 128,C  71,H 129)          108.6468         0.291657   
    369. A(H 130,C  72,H 131)          108.2544         0.290300   
    370. A(C  45,C  72,H 131)          109.7762         0.329720   
    371. A(C  73,C  72,H 130)          109.2538         0.323990   
    372. A(C  45,C  72,H 130)          109.7635         0.329727   
    373. A(C  45,C  72,C  73)          110.5011         0.370009   
    374. A(C  73,C  72,H 131)          109.2527         0.323984   
    375. A(H 132,C  73,H 133)          108.6273         0.291643   
    376. A(C  72,C  73,H 133)          110.4637         0.324801   
    377. A(C  72,C  73,H 132)          110.3697         0.324739   
    378. A(H 133,C  73,H 134)          108.6281         0.291640   
    379. A(H 132,C  73,H 134)          108.3315         0.291587   
    380. A(C  72,C  73,H 134)          110.3595         0.324735   
    381. A(C  26,C  74,C  75)          130.6049         0.436910   
    382. A(C  75,C  74,H 135)          116.5288         0.358370   
    383. A(C  26,C  74,H 135)          112.8660         0.352596   
    384. A(C  76,C  75,C  79)          108.5229         0.398211   
    385. A(C  74,C  75,C  79)          125.8653         0.418272   
    386. A(C  74,C  75,C  76)          125.6065         0.422869   
    387. A(C  77,C  76,C  87)          124.9397         0.419958   
    388. A(C  75,C  76,C  87)          127.7035         0.423685   
    389. A(C  75,C  76,C  77)          107.3554         0.399037   
    390. A(C  78,C  77,C  80)          119.5646         0.432344   
    391. A(C  76,C  77,C  80)          131.6275         0.416200   
    392. A(C  76,C  77,C  78)          108.8079         0.410712   
    393. A(C  79,C  78,C  83)          128.5915         0.414073   
    394. A(C  77,C  78,C  83)          122.0284         0.433953   
    395. A(C  77,C  78,C  79)          109.3801         0.407130   
    396. A(C  78,C  79,O  86)          126.0298         0.448808   
    397. A(C  75,C  79,O  86)          128.0416         0.451888   
    398. A(C  75,C  79,C  78)          105.9285         0.391364   
    399. A(C  77,C  80,C  81)          118.6729         0.436370   
    400. A(C  81,C  80,H 136)          119.0187         0.355870   
    401. A(C  77,C  80,H 136)          122.3084         0.357277   
    402. A(C  82,C  81,Cl 85)          119.7775         0.421576   
    403. A(C  80,C  81,Cl 85)          118.9397         0.423657   
    404. A(C  80,C  81,C  82)          121.2828         0.432400   
    405. A(C  83,C  82,Cl 84)          119.7607         0.424187   
    406. A(C  81,C  82,Cl 84)          120.0272         0.421575   
    407. A(C  81,C  82,C  83)          120.2121         0.432945   
    408. A(C  78,C  83,C  82)          118.2392         0.438551   
    409. A(C  82,C  83,H 137)          121.0718         0.356060   
    410. A(C  78,C  83,H 137)          120.6890         0.358298   
    411. A(C  88,C  87,C  89)          109.9363         0.423369   
    412. A(C  76,C  87,C  89)          125.9839         0.434712   
    413. A(C  76,C  87,C  88)          124.0794         0.434547   
    414. L(C  87,C  88,N  91,C  89, 2) 179.9211         0.491464   
    415. L(C  87,C  88,N  91,C  89, 1) 176.1743         0.491464   
    416. L(C  87,C  89,N  90,C  88, 2) 179.8721         0.491288   
    417. L(C  87,C  89,N  90,C  88, 1) 175.2250         0.491288   
    418. D(C   2,C   1,C   0,C  11)    179.9895         0.026547   
    419. D(C   2,C   1,C   0,C   5)      0.4585         0.026547   
    420. D(H  92,C   1,C   0,C  11)      0.1223         0.026547   
    421. D(H  92,C   1,C   0,C   5)   -179.4086         0.026547   
    422. D(C   3,C   2,C   1,C   0)     -0.1232         0.030448   
    423. D(C   6,C   2,C   1,C   0)   -178.1370         0.030448   
    424. D(C   3,C   2,C   1,H  92)    179.7416         0.030448   
    425. D(C   6,C   2,C   1,H  92)      1.7278         0.030448   
    426. D(C   8,C   3,C   2,C   1)   -178.8885         0.022346   
    427. D(C   8,C   3,C   2,C   6)     -0.5516         0.022346   
    428. D(C   4,C   3,C   2,C   1)      0.1651         0.022346   
    429. D(C   4,C   3,C   2,C   6)    178.5019         0.022346   
    430. D(C   5,C   4,C   3,C   2)     -0.5216         0.026449   
    431. D(H  93,C   4,C   3,C   2)   -179.8638         0.026449   
    432. D(C   5,C   4,C   3,C   8)    178.2871         0.026449   
    433. D(H  93,C   4,C   3,C   8)     -1.0551         0.026449   
    434. D(C   9,C   5,C   0,C  11)     -0.1689         0.022352   
    435. D(C   4,C   5,C   0,C   1)     -0.8488         0.022352   
    436. D(C   9,C   5,C   4,H  93)     -0.1935         0.030521   
    437. D(C   0,C   5,C   4,H  93)   -179.8266         0.030521   
    438. D(C   0,C   5,C   4,C   3)      0.8435         0.030521   
    439. D(C   9,C   5,C   4,C   3)   -179.5234         0.030521   
    440. D(C   4,C   5,C   0,C  11)    179.5240         0.022352   
    441. D(C   9,C   5,C   0,C   1)    179.4583         0.022352   
    442. D(C  12,C   6,C   2,C   1)    -67.1075         0.011409   
    443. D(C  13,C   6,C   2,C   1)     58.4510         0.011409   
    444. D(C  12,C   6,C   2,C   3)    114.7187         0.011409   
    445. D(C  13,C   6,C   2,C   3)   -119.7228         0.011409   
    446. D(C   7,C   6,C   2,C   1)    177.9125         0.011409   
    447. D(C   7,C   6,C   2,C   3)     -0.2612         0.011409   
    448. D(C   8,C   7,C   6,C   2)      1.0239         0.012320   
    449. D(C   8,C   7,C   6,C  13)    116.4171         0.012320   
    450. D(C  22,C   7,C   6,C  13)    -64.8670         0.012320   
    451. D(C  22,C   7,C   6,C  12)     59.8177         0.012320   
    452. D(C  22,C   7,C   6,C   2)    179.7398         0.012320   
    453. D(C   8,C   7,C   6,C  12)   -118.8982         0.012320   
    454. D(Se 24,C   8,C   7,C  22)      0.1096         0.027834   
    455. D(Se 24,C   8,C   3,C   4)      1.5560         0.019944   
    456. D(Se 24,C   8,C   7,C   6)    179.1176         0.027834   
    457. D(C   3,C   8,C   7,C   6)     -1.4488         0.027834   
    458. D(C   3,C   8,C   7,C  22)    179.5433         0.027834   
    459. D(C   7,C   8,C   3,C   2)      1.2356         0.019944   
    460. D(Se 24,C   8,C   3,C   2)   -179.5019         0.019944   
    461. D(C   7,C   8,C   3,C   4)   -177.7066         0.019944   
    462. D(C  10,C   9,C   5,C   0)      1.0408         0.011364   
    463. D(C  15,C   9,C   5,C   0)   -112.5986         0.011364   
    464. D(C  15,C   9,C   5,C   4)     67.7387         0.011364   
    465. D(C  14,C   9,C   5,C   4)    -58.2649         0.011364   
    466. D(C  14,C   9,C   5,C   0)    121.3978         0.011364   
    467. D(C  10,C   9,C   5,C   4)   -178.6219         0.011364   
    468. D(C  16,C  10,C   9,C  15)    -58.9341         0.012326   
    469. D(C  16,C  10,C   9,C  14)     65.8019         0.012326   
    470. D(C  16,C  10,C   9,C   5)   -177.7904         0.012326   
    471. D(C  11,C  10,C   9,C  15)    117.2647         0.012326   
    472. D(C  11,C  10,C   9,C  14)   -117.9993         0.012326   
    473. D(C  11,C  10,C   9,C   5)     -1.5916         0.012326   
    474. D(Se 18,C  11,C   0,C   5)    178.0293         0.019890   
    475. D(Se 18,C  11,C  10,C   9)   -177.5509         0.027871   
    476. D(C   0,C  11,C  10,C  16)    178.7130         0.027871   
    477. D(C   0,C  11,C  10,C   9)      1.6248         0.027871   
    478. D(Se 18,C  11,C   0,C   1)     -1.5542         0.019890   
    479. D(C  10,C  11,C   0,C   1)    179.5200         0.019890   
    480. D(C  10,C  11,C   0,C   5)     -0.8965         0.019890   
    481. D(Se 18,C  11,C  10,C  16)     -0.4626         0.027871   
    482. D(C  32,C  12,C   6,C  13)     43.7044         0.011299   
    483. D(C  32,C  12,C   6,C   7)    -81.8262         0.011299   
    484. D(C  28,C  12,C   6,C  13)   -140.2993         0.011299   
    485. D(C  28,C  12,C   6,C   7)     94.1701         0.011299   
    486. D(C  28,C  12,C   6,C   2)    -16.9526         0.011299   
    487. D(C  32,C  12,C   6,C   2)    167.0511         0.011299   
    488. D(C  37,C  13,C   6,C  12)   -143.4410         0.011342   
    489. D(C  37,C  13,C   6,C   7)    -21.3369         0.011342   
    490. D(C  37,C  13,C   6,C   2)     89.8128         0.011342   
    491. D(C  33,C  13,C   6,C  12)     39.9378         0.011342   
    492. D(C  33,C  13,C   6,C   7)    162.0419         0.011342   
    493. D(C  33,C  13,C   6,C   2)    -86.8084         0.011342   
    494. D(C  42,C  14,C   9,C  15)    -41.1716         0.011504   
    495. D(C  42,C  14,C   9,C  10)   -162.7006         0.011504   
    496. D(C  42,C  14,C   9,C   5)     85.4856         0.011504   
    497. D(C  38,C  14,C   9,C  15)    141.8967         0.011504   
    498. D(C  38,C  14,C   9,C  10)     20.3677         0.011504   
    499. D(C  38,C  14,C   9,C   5)    -91.4461         0.011504   
    500. D(C  47,C  15,C   9,C  14)    -41.3929         0.011176   
    501. D(C  47,C  15,C   9,C  10)     84.3733         0.011176   
    502. D(C  43,C  15,C   9,C  14)    143.4066         0.011176   
    503. D(C  47,C  15,C   9,C   5)   -165.3877         0.011176   
    504. D(C  43,C  15,C   9,C   5)     19.4118         0.011176   
    505. D(C  43,C  15,C   9,C  10)    -90.8272         0.011176   
    506. D(S  19,C  16,C  10,C  11)   -179.9674         0.026404   
    507. D(S  19,C  16,C  10,C   9)     -3.8552         0.026404   
    508. D(C  17,C  16,C  10,C  11)      0.3225         0.026404   
    509. D(C  17,C  16,C  10,C   9)    176.4347         0.026404   
    510. D(C  21,C  17,C  16,S  19)      1.8921         0.023077   
    511. D(Se 18,C  17,C  16,S  19)   -179.8169         0.023077   
    512. D(Se 18,C  17,C  16,C  10)     -0.0390         0.023077   
    513. D(C  21,C  17,C  16,C  10)   -178.3299         0.023077   
    514. D(C  11,Se 18,C  17,C  21)    177.6607         0.003382   
    515. D(C  11,Se 18,C  17,C  16)     -0.1715         0.003382   
    516. D(C  17,Se 18,C  11,C  10)      0.3537         0.003529   
    517. D(C  17,Se 18,C  11,C   0)   -178.5421         0.003529   
    518. D(C  20,S  19,C  16,C  17)     -1.9669         0.005303   
    519. D(C  20,S  19,C  16,C  10)    178.3162         0.005303   
    520. D(C  48,C  20,S  19,C  16)    178.7745         0.004253   
    521. D(C  21,C  20,S  19,C  16)      1.6348         0.004253   
    522. D(H  94,C  21,C  20,C  48)     -0.4701         0.027606   
    523. D(H  94,C  21,C  20,S  19)    176.2613         0.027606   
    524. D(C  17,C  21,C  20,C  48)   -177.5865         0.027606   
    525. D(C  17,C  21,C  20,S  19)     -0.8550         0.027606   
    526. D(H  94,C  21,C  17,Se 18)      4.4422         0.027737   
    527. D(H  94,C  21,C  17,C  16)   -177.7458         0.027737   
    528. D(C  20,C  21,C  17,Se 18)   -178.4633         0.027737   
    529. D(C  20,C  21,C  17,C  16)     -0.6513         0.027737   
    530. D(S  25,C  22,C   7,C   8)   -179.4959         0.026302   
    531. D(S  25,C  22,C   7,C   6)      1.8221         0.026302   
    532. D(C  23,C  22,C   7,C   8)     -0.4147         0.026302   
    533. D(C  23,C  22,C   7,C   6)   -179.0967         0.026302   
    534. D(C  27,C  23,C  22,S  25)      0.2039         0.022508   
    535. D(C  27,C  23,C  22,C   7)   -179.0828         0.022508   
    536. D(Se 24,C  23,C  22,S  25)    179.8137         0.022508   
    537. D(Se 24,C  23,C  22,C   7)      0.5270         0.022508   
    538. D(C   8,Se 24,C  23,C  27)    179.1278         0.003291   
    539. D(C   8,Se 24,C  23,C  22)     -0.3711         0.003291   
    540. D(C  23,Se 24,C   8,C   7)      0.1495         0.003508   
    541. D(C  23,Se 24,C   8,C   3)   -179.0926         0.003508   
    542. D(C  26,S  25,C  22,C  23)     -0.2115         0.005241   
    543. D(C  26,S  25,C  22,C   7)    178.8829         0.005241   
    544. D(C  27,C  26,S  25,C  22)      0.1732         0.004249   
    545. D(C  74,C  26,S  25,C  22)   -179.5754         0.004249   
    546. D(H  95,C  27,C  26,C  74)     -0.2904         0.025192   
    547. D(H  95,C  27,C  26,S  25)    179.9467         0.025192   
    548. D(C  23,C  27,C  26,C  74)    179.6728         0.025192   
    549. D(C  23,C  27,C  26,S  25)     -0.0902         0.025192   
    550. D(H  95,C  27,C  23,Se 24)      0.3945         0.029344   
    551. D(H  95,C  27,C  23,C  22)    179.8916         0.029344   
    552. D(C  26,C  27,C  23,Se 24)   -179.5676         0.029344   
    553. D(C  26,C  27,C  23,C  22)     -0.0705         0.029344   
    554. D(H  96,C  28,C  12,C  32)    179.0412         0.027641   
    555. D(H  96,C  28,C  12,C   6)      3.0323         0.027641   
    556. D(C  29,C  28,C  12,C  32)     -0.9588         0.027641   
    557. D(C  29,C  28,C  12,C   6)   -176.9677         0.027641   
    558. D(H  97,C  29,C  28,H  96)      0.3302         0.028424   
    559. D(H  97,C  29,C  28,C  12)   -179.6698         0.028424   
    560. D(C  30,C  29,C  28,H  96)   -179.1744         0.028424   
    561. D(C  30,C  29,C  28,C  12)      0.8256         0.028424   
    562. D(C  66,C  30,C  29,H  97)      2.2418         0.027490   
    563. D(C  66,C  30,C  29,C  28)   -178.2548         0.027490   
    564. D(C  31,C  30,C  29,H  97)   -179.8130         0.027490   
    565. D(C  31,C  30,C  29,C  28)     -0.3096         0.027490   
    566. D(H  98,C  31,C  30,C  66)     -2.5576         0.027147   
    567. D(H  98,C  31,C  30,C  29)    179.4908         0.027147   
    568. D(C  32,C  31,C  30,C  66)    177.8982         0.027147   
    569. D(C  32,C  31,C  30,C  29)     -0.0534         0.027147   
    570. D(H  99,C  32,C  31,H  98)      0.5350         0.029036   
    571. D(H  99,C  32,C  31,C  30)   -179.9191         0.029036   
    572. D(C  12,C  32,C  31,H  98)   -179.6431         0.029036   
    573. D(H  99,C  32,C  12,C  28)   -179.5782         0.027071   
    574. D(H  99,C  32,C  12,C   6)     -3.4759         0.027071   
    575. D(C  31,C  32,C  12,C  28)      0.6003         0.027071   
    576. D(C  12,C  32,C  31,C  30)     -0.0972         0.029036   
    577. D(C  31,C  32,C  12,C   6)    176.7025         0.027071   
    578. D(H 100,C  33,C  13,C  37)    179.8518         0.027227   
    579. D(H 100,C  33,C  13,C   6)     -3.4487         0.027227   
    580. D(C  34,C  33,C  13,C  37)      0.7235         0.027227   
    581. D(C  34,C  33,C  13,C   6)    177.4231         0.027227   
    582. D(H 101,C  34,C  33,H 100)      0.5581         0.028888   
    583. D(H 101,C  34,C  33,C  13)    179.6864         0.028888   
    584. D(C  35,C  34,C  33,H 100)   -179.2475         0.028888   
    585. D(C  35,C  34,C  33,C  13)     -0.1192         0.028888   
    586. D(C  68,C  35,C  34,H 101)      2.3024         0.027242   
    587. D(C  68,C  35,C  34,C  33)   -177.8921         0.027242   
    588. D(C  36,C  35,C  34,H 101)    179.8470         0.027242   
    589. D(C  36,C  35,C  34,C  33)     -0.3475         0.027242   
    590. D(H 102,C  36,C  35,C  68)     -2.3192         0.027473   
    591. D(H 102,C  36,C  35,C  34)   -179.8618         0.027473   
    592. D(C  37,C  36,C  35,C  68)    177.7477         0.027473   
    593. D(C  37,C  36,C  35,C  34)      0.2050         0.027473   
    594. D(H 103,C  37,C  36,H 102)      0.3965         0.028627   
    595. D(H 103,C  37,C  36,C  35)   -179.6703         0.028627   
    596. D(C  13,C  37,C  36,H 102)   -179.5274         0.028627   
    597. D(C  13,C  37,C  36,C  35)      0.4058         0.028627   
    598. D(H 103,C  37,C  13,C  33)    179.2117         0.027610   
    599. D(H 103,C  37,C  13,C   6)      2.5542         0.027610   
    600. D(C  36,C  37,C  13,C  33)     -0.8649         0.027610   
    601. D(C  36,C  37,C  13,C   6)   -177.5224         0.027610   
    602. D(H 104,C  38,C  14,C  42)   -179.2220         0.027596   
    603. D(H 104,C  38,C  14,C   9)     -2.2578         0.027596   
    604. D(C  39,C  38,C  14,C  42)      0.8628         0.027596   
    605. D(C  39,C  38,C  14,C   9)    177.8270         0.027596   
    606. D(H 105,C  39,C  38,H 104)     -0.4051         0.028584   
    607. D(H 105,C  39,C  38,C  14)    179.5106         0.028584   
    608. D(C  40,C  39,C  38,H 104)    179.7124         0.028584   
    609. D(C  40,C  39,C  38,C  14)     -0.3720         0.028584   
    610. D(C  70,C  40,C  39,H 105)      2.2331         0.027468   
    611. D(C  70,C  40,C  39,C  38)   -177.8845         0.027468   
    612. D(C  41,C  40,C  39,H 105)    179.8517         0.027468   
    613. D(C  41,C  40,C  39,C  38)     -0.2659         0.027468   
    614. D(H 106,C  41,C  40,C  70)     -2.2334         0.027217   
    615. D(H 106,C  41,C  40,C  39)   -179.8553         0.027217   
    616. D(C  42,C  41,C  40,C  70)    178.0268         0.027217   
    617. D(C  42,C  41,C  40,C  39)      0.4049         0.027217   
    618. D(H 107,C  42,C  41,H 106)     -0.6229         0.028915   
    619. D(H 107,C  42,C  41,C  40)    179.1169         0.028915   
    620. D(C  14,C  42,C  41,H 106)   -179.6476         0.028915   
    621. D(C  14,C  42,C  41,C  40)      0.0922         0.028915   
    622. D(H 107,C  42,C  14,C  38)   -179.7502         0.027165   
    623. D(H 107,C  42,C  14,C   9)      3.2449         0.027165   
    624. D(C  41,C  42,C  14,C  38)     -0.7249         0.027165   
    625. D(C  41,C  42,C  14,C   9)   -177.7298         0.027165   
    626. D(H 108,C  43,C  15,C  47)   -178.9248         0.027593   
    627. D(H 108,C  43,C  15,C   9)     -3.7003         0.027593   
    628. D(C  44,C  43,C  15,C  47)      0.8742         0.027593   
    629. D(C  44,C  43,C  15,C   9)    176.0987         0.027593   
    630. D(H 109,C  44,C  43,H 108)     -0.2607         0.028584   
    631. D(H 109,C  44,C  43,C  15)    179.9394         0.028584   
    632. D(C  45,C  44,C  43,H 108)    179.0745         0.028584   
    633. D(C  45,C  44,C  43,C  15)     -0.7254         0.028584   
    634. D(C  72,C  45,C  44,H 109)     -2.1546         0.027438   
    635. D(C  72,C  45,C  44,C  43)    178.5117         0.027438   
    636. D(C  46,C  45,C  44,H 109)    179.7301         0.027438   
    637. D(C  46,C  45,C  44,C  43)      0.3964         0.027438   
    638. D(H 110,C  46,C  45,C  72)      2.2055         0.027250   
    639. D(H 110,C  46,C  45,C  44)   -179.6783         0.027250   
    640. D(C  47,C  46,C  45,C  72)   -178.3545         0.027250   
    641. D(C  47,C  46,C  45,C  44)     -0.2384         0.027250   
    642. D(H 111,C  47,C  46,H 110)     -0.3801         0.028928   
    643. D(H 111,C  47,C  46,C  45)   -179.8212         0.028928   
    644. D(C  15,C  47,C  46,H 110)    179.8501         0.028928   
    645. D(C  15,C  47,C  46,C  45)      0.4091         0.028928   
    646. D(H 111,C  47,C  15,C  43)    179.5107         0.027189   
    647. D(H 111,C  47,C  15,C   9)      4.1930         0.027189   
    648. D(C  46,C  47,C  15,C  43)     -0.7193         0.027189   
    649. D(C  46,C  47,C  15,C   9)   -176.0371         0.027189   
    650. D(H 112,C  48,C  20,C  21)    156.6448         0.023613   
    651. D(H 112,C  48,C  20,S  19)    -19.8914         0.023613   
    652. D(C  49,C  48,C  20,C  21)    -18.5844         0.023613   
    653. D(C  49,C  48,C  20,S  19)    164.8794         0.023613   
    654. D(C  53,C  49,C  48,H 112)    -15.4820         0.032524   
    655. D(C  53,C  49,C  48,C  20)    159.7975         0.032524   
    656. D(C  50,C  49,C  48,H 112)    168.6961         0.032524   
    657. D(C  50,C  49,C  48,C  20)    -16.0244         0.032524   
    658. D(C  61,C  50,C  49,C  53)    155.2003         0.017842   
    659. D(C  61,C  50,C  49,C  48)    -28.6495         0.017842   
    660. D(C  51,C  50,C  49,C  53)    -12.8516         0.017842   
    661. D(C  51,C  50,C  49,C  48)    163.2986         0.017842   
    662. D(C  54,C  51,C  50,C  61)     19.9516         0.015533   
    663. D(C  54,C  51,C  50,C  49)   -171.6824         0.015533   
    664. D(C  52,C  51,C  50,C  61)   -158.5874         0.015533   
    665. D(C  52,C  51,C  50,C  49)      9.7786         0.015533   
    666. D(C  57,C  52,C  51,C  54)     -0.8277         0.023782   
    667. D(C  57,C  52,C  51,C  50)    177.9048         0.023782   
    668. D(C  53,C  52,C  51,C  54)    178.4684         0.023782   
    669. D(C  53,C  52,C  51,C  50)     -2.7991         0.023782   
    670. D(O  60,C  53,C  49,C  48)     12.0358         0.013175   
    671. D(C  52,C  53,C  49,C  50)     11.0066         0.013175   
    672. D(C  52,C  53,C  49,C  48)   -165.7887         0.013175   
    673. D(O  60,C  53,C  52,C  57)     -3.5826         0.013721   
    674. D(O  60,C  53,C  52,C  51)    177.1877         0.013721   
    675. D(C  49,C  53,C  52,C  57)    174.2172         0.013721   
    676. D(C  49,C  53,C  52,C  51)     -5.0124         0.013721   
    677. D(O  60,C  53,C  49,C  50)   -171.1689         0.013175   
    678. D(H 113,C  54,C  51,C  52)   -179.1004         0.028334   
    679. D(H 113,C  54,C  51,C  50)      2.4959         0.028334   
    680. D(C  55,C  54,C  51,C  52)      0.2649         0.028334   
    681. D(C  55,C  54,C  51,C  50)   -178.1388         0.028334   
    682. D(Cl 59,C  55,C  54,H 113)     -0.1262         0.026825   
    683. D(Cl 59,C  55,C  54,C  51)   -179.5100         0.026825   
    684. D(C  56,C  55,C  54,H 113)    179.8499         0.026825   
    685. D(C  56,C  55,C  54,C  51)      0.4660         0.026825   
    686. D(Cl 58,C  56,C  55,Cl 59)     -0.5822         0.025191   
    687. D(Cl 58,C  56,C  55,C  54)    179.4419         0.025191   
    688. D(C  57,C  56,C  55,Cl 59)    179.3096         0.025191   
    689. D(C  57,C  56,C  55,C  54)     -0.6663         0.025191   
    690. D(H 114,C  57,C  56,Cl 58)     -0.0898         0.027065   
    691. D(H 114,C  57,C  56,C  55)   -179.9819         0.027065   
    692. D(C  52,C  57,C  56,Cl 58)   -179.9959         0.027065   
    693. D(C  52,C  57,C  56,C  55)      0.1121         0.027065   
    694. D(H 114,C  57,C  52,C  53)      1.5739         0.029355   
    695. D(H 114,C  57,C  52,C  51)   -179.2796         0.029355   
    696. D(C  56,C  57,C  52,C  53)   -178.5199         0.029355   
    697. D(C  56,C  57,C  52,C  51)      0.6266         0.029355   
    698. D(C  63,C  61,C  50,C  51)    166.0076         0.031211   
    699. D(C  63,C  61,C  50,C  49)     -0.0565         0.031211   
    700. D(C  62,C  61,C  50,C  51)     -9.7496         0.031211   
    701. D(C  62,C  61,C  50,C  49)   -175.8137         0.031211   
    702. D(H 116,C  66,C  30,C  31)     34.5857         0.012735   
    703. D(H 116,C  66,C  30,C  29)   -147.5164         0.012735   
    704. D(H 115,C  66,C  30,C  31)    153.5364         0.012735   
    705. D(H 115,C  66,C  30,C  29)    -28.5657         0.012735   
    706. D(C  67,C  66,C  30,C  31)    -85.8493         0.012735   
    707. D(C  67,C  66,C  30,C  29)     92.0486         0.012735   
    708. D(H 119,C  67,C  66,H 115)   -179.4009         0.011137   
    709. D(H 119,C  67,C  66,C  30)     59.6117         0.011137   
    710. D(H 118,C  67,C  66,H 116)     59.0191         0.011137   
    711. D(H 118,C  67,C  66,H 115)    -59.2366         0.011137   
    712. D(H 118,C  67,C  66,C  30)    179.7761         0.011137   
    713. D(H 117,C  67,C  66,H 116)    179.1797         0.011137   
    714. D(H 117,C  67,C  66,H 115)     60.9241         0.011137   
    715. D(H 119,C  67,C  66,H 116)    -61.1453         0.011137   
    716. D(H 117,C  67,C  66,C  30)    -60.0633         0.011137   
    717. D(H 121,C  68,C  35,C  36)     30.9591         0.012764   
    718. D(H 121,C  68,C  35,C  34)   -151.5588         0.012764   
    719. D(H 120,C  68,C  35,C  36)    149.9372         0.012764   
    720. D(H 120,C  68,C  35,C  34)    -32.5807         0.012764   
    721. D(C  69,C  68,C  35,C  36)    -89.5646         0.012764   
    722. D(C  69,C  68,C  35,C  34)     87.9175         0.012764   
    723. D(H 124,C  69,C  68,H 121)    -60.9838         0.011130   
    724. D(H 124,C  69,C  68,H 120)   -179.2432         0.011130   
    725. D(H 124,C  69,C  68,C  35)     59.8925         0.011130   
    726. D(H 123,C  69,C  68,H 121)     59.1962         0.011130   
    727. D(H 123,C  69,C  68,H 120)    -59.0632         0.011130   
    728. D(H 123,C  69,C  68,C  35)   -179.9275         0.011130   
    729. D(H 122,C  69,C  68,H 121)    179.3820         0.011130   
    730. D(H 122,C  69,C  68,H 120)     61.1226         0.011130   
    731. D(H 122,C  69,C  68,C  35)    -59.7417         0.011130   
    732. D(H 126,C  70,C  40,C  41)     32.5853         0.012761   
    733. D(H 126,C  70,C  40,C  39)   -149.8537         0.012761   
    734. D(H 125,C  70,C  40,C  41)    151.5679         0.012761   
    735. D(H 125,C  70,C  40,C  39)    -30.8711         0.012761   
    736. D(C  71,C  70,C  40,C  41)    -87.8910         0.012761   
    737. D(C  71,C  70,C  40,C  39)     89.6700         0.012761   
    738. D(H 129,C  71,C  70,H 126)    -61.0469         0.011131   
    739. D(H 129,C  71,C  70,H 125)   -179.2958         0.011131   
    740. D(H 129,C  71,C  70,C  40)     59.7973         0.011131   
    741. D(H 128,C  71,C  70,H 126)     59.1337         0.011131   
    742. D(H 128,C  71,C  70,H 125)    -59.1153         0.011131   
    743. D(H 128,C  71,C  70,C  40)    179.9779         0.011131   
    744. D(H 127,C  71,C  70,H 126)    179.3138         0.011131   
    745. D(H 127,C  71,C  70,H 125)     61.0649         0.011131   
    746. D(H 127,C  71,C  70,C  40)    -59.8420         0.011131   
    747. D(H 131,C  72,C  45,C  46)   -150.8579         0.012771   
    748. D(H 131,C  72,C  45,C  44)     31.0730         0.012771   
    749. D(H 130,C  72,C  45,C  46)    -31.9834         0.012771   
    750. D(H 130,C  72,C  45,C  44)    149.9475         0.012771   
    751. D(C  73,C  72,C  45,C  46)     88.5759         0.012771   
    752. D(C  73,C  72,C  45,C  44)    -89.4932         0.012771   
    753. D(H 134,C  73,C  72,H 131)    -61.2192         0.011137   
    754. D(H 134,C  73,C  72,H 130)   -179.4774         0.011137   
    755. D(H 134,C  73,C  72,C  45)     59.6592         0.011137   
    756. D(H 133,C  73,C  72,H 131)     58.9223         0.011137   
    757. D(H 133,C  73,C  72,H 130)    -59.3359         0.011137   
    758. D(H 133,C  73,C  72,C  45)    179.8007         0.011137   
    759. D(H 132,C  73,C  72,H 131)    179.0693         0.011137   
    760. D(H 132,C  73,C  72,H 130)     60.8110         0.011137   
    761. D(H 132,C  73,C  72,C  45)    -60.0523         0.011137   
    762. D(H 135,C  74,C  26,C  27)     -0.5356         0.024978   
    763. D(H 135,C  74,C  26,S  25)    179.1895         0.024978   
    764. D(C  75,C  74,C  26,C  27)    179.2804         0.024978   
    765. D(C  75,C  74,C  26,S  25)     -0.9945         0.024978   
    766. D(C  79,C  75,C  74,H 135)    178.6480         0.030624   
    767. D(C  79,C  75,C  74,C  26)     -1.1625         0.030624   
    768. D(C  76,C  75,C  74,H 135)     -0.4094         0.030624   
    769. D(C  76,C  75,C  74,C  26)    179.7800         0.030624   
    770. D(C  87,C  76,C  75,C  79)    178.8304         0.017145   
    771. D(C  87,C  76,C  75,C  74)     -1.9751         0.017145   
    772. D(C  77,C  76,C  75,C  79)     -0.7362         0.017145   
    773. D(C  77,C  76,C  75,C  74)    178.4582         0.017145   
    774. D(C  80,C  77,C  76,C  87)      0.9296         0.015522   
    775. D(C  80,C  77,C  76,C  75)   -179.4886         0.015522   
    776. D(C  78,C  77,C  76,C  87)   -179.0920         0.015522   
    777. D(C  78,C  77,C  76,C  75)      0.4897         0.015522   
    778. D(C  83,C  78,C  77,C  80)     -0.0198         0.024015   
    779. D(C  83,C  78,C  77,C  76)    179.9988         0.024015   
    780. D(C  79,C  78,C  77,C  80)    179.9276         0.024015   
    781. D(C  79,C  78,C  77,C  76)     -0.0538         0.024015   
    782. D(O  86,C  79,C  78,C  83)     -0.3331         0.014072   
    783. D(O  86,C  79,C  78,C  77)    179.7239         0.014072   
    784. D(C  75,C  79,C  78,C  83)    179.5478         0.014072   
    785. D(C  75,C  79,C  78,C  77)     -0.3951         0.014072   
    786. D(O  86,C  79,C  75,C  76)   -179.4270         0.015162   
    787. D(O  86,C  79,C  75,C  74)      1.3812         0.015162   
    788. D(C  78,C  79,C  75,C  76)      0.6952         0.015162   
    789. D(C  78,C  79,C  75,C  74)   -178.4966         0.015162   
    790. D(H 136,C  80,C  77,C  78)   -179.9825         0.028131   
    791. D(H 136,C  80,C  77,C  76)     -0.0060         0.028131   
    792. D(C  81,C  80,C  77,C  78)     -0.0221         0.028131   
    793. D(C  81,C  80,C  77,C  76)    179.9543         0.028131   
    794. D(Cl 85,C  81,C  80,H 136)      0.0111         0.026774   
    795. D(Cl 85,C  81,C  80,C  77)   -179.9506         0.026774   
    796. D(C  82,C  81,C  80,H 136)    179.9995         0.026774   
    797. D(C  82,C  81,C  80,C  77)      0.0378         0.026774   
    798. D(Cl 84,C  82,C  81,Cl 85)      0.0057         0.025257   
    799. D(Cl 84,C  82,C  81,C  80)   -179.9826         0.025257   
    800. D(C  83,C  82,C  81,Cl 85)    179.9764         0.025257   
    801. D(C  83,C  82,C  81,C  80)     -0.0120         0.025257   
    802. D(H 137,C  83,C  82,Cl 84)     -0.0629         0.027176   
    803. D(H 137,C  83,C  82,C  81)    179.9664         0.027176   
    804. D(C  78,C  83,C  82,Cl 84)    179.9414         0.027176   
    805. D(C  78,C  83,C  82,C  81)     -0.0294         0.027176   
    806. D(H 137,C  83,C  78,C  79)      0.1132         0.029399   
    807. D(H 137,C  83,C  78,C  77)   -179.9503         0.029399   
    808. D(C  82,C  83,C  78,C  79)   -179.8911         0.029399   
    809. D(C  82,C  83,C  78,C  77)      0.0454         0.029399   
    810. D(C  89,C  87,C  76,C  77)    179.4126         0.031342   
    811. D(C  89,C  87,C  76,C  75)     -0.0828         0.031342   
    812. D(C  88,C  87,C  76,C  77)     -0.3192         0.031342   
    813. D(C  88,C  87,C  76,C  75)   -179.8146         0.031342   
    -----------------------------------------------------------------

Number of atoms                         .... 138
Number of degrees of freedom            .... 813

         *************************************************************
         *                GEOMETRY OPTIMIZATION CYCLE   1            *
         *************************************************************
---------------------------------
CARTESIAN COORDINATES (ANGSTROEM)
---------------------------------
  C      0.815370   -0.275870    0.552280
  C      2.070060   -0.879400    0.564570
  C      3.165420   -0.056760    0.447560
  C      3.007390    1.343050    0.318080
  C      1.752220    1.946690    0.306540
  C      0.657070    1.123220    0.415860
  C      4.632240   -0.440240    0.392630
  C      5.275170    0.909570    0.210480
  C      4.314260    1.908620    0.191950
  C     -0.812630    1.501760    0.421450
  C     -1.455080    0.151820    0.603770
  C     -0.492750   -0.844600    0.652660
  C      5.170160   -1.030490    1.684180
  C      4.830420   -1.371850   -0.789320
  C     -1.061920    2.466480    1.563890
  C     -1.307100    2.040050   -0.911360
  C     -2.762170   -0.325710    0.667440
  C     -2.865940   -1.728090    0.776680
  Se    -1.188040   -2.572060    0.805010
  S     -4.313170    0.411250    0.649680
  C     -5.099840   -1.160450    0.728100
  C     -4.173150   -2.190250    0.802060
  C      6.583290    1.372510    0.082160
  C      6.685630    2.776060   -0.052450
  Se     5.007850    3.633870   -0.004010
  S      8.121400    0.605740    0.030760
  C      8.912040    2.163630   -0.178260
  C      7.986210    3.212390   -0.198290
  C      4.496170   -0.881870    2.887470
  C      5.041700   -1.376750    4.058740
  C      6.274790   -2.013690    4.060280
  C      6.948880   -2.149470    2.852870
  C      6.406940   -1.664540    1.678980
  C      4.634900   -2.738450   -0.635050
  C      4.760370   -3.590400   -1.715380
  C      5.081020   -3.103010   -2.975960
  C      5.265550   -1.735570   -3.125880
  C      5.138340   -0.878050   -2.048690
  C     -1.441570    2.012160    2.818600
  C     -1.621490    2.902240    3.861570
  C     -1.420230    4.263680    3.681390
  C     -1.027260    4.711600    2.426520
  C     -0.848860    3.827140    1.380460
  C     -0.615040    1.799480   -2.089520
  C     -1.126750    2.230860   -3.299670
  C     -2.342990    2.896610   -3.366120
  C     -3.033600    3.128140   -2.183420
  C     -2.526670    2.702790   -0.970870
  C     -6.505820   -1.209020    0.770660
  C     -7.348530   -2.263460    0.557630
  C     -7.171680   -3.561760   -0.050150
  C     -8.302120   -4.391710    0.366940
  C     -9.250780   -3.575380    1.008810
  C     -8.733920   -2.190750    1.089690
  C     -8.551530   -5.743200    0.203340
  C     -9.751630   -6.260360    0.680020
  C    -10.697280   -5.439450    1.303980
  C    -10.446770   -4.082790    1.472680
  Cl   -12.174750   -6.108570    1.867910
  Cl   -10.067330   -7.937770    0.494510
  O     -9.293540   -1.214510    1.531780
  C     -6.279750   -3.893440   -1.038120
  C     -6.215940   -5.162670   -1.648060
  C     -5.378760   -2.979670   -1.620460
  N     -6.101590   -6.185140   -2.156980
  N     -4.657430   -2.263160   -2.153350
  C      6.847730   -2.584500    5.325340
  C      6.447780   -4.053460    5.478210
  C      5.170300   -4.025920   -4.156530
  C      3.798320   -4.180710   -4.816180
  C     -1.570240    5.222870    4.826400
  C     -0.236320    5.393760    5.556360
  C     -2.878230    3.392030   -4.678110
  C     -2.385800    4.813970   -4.955170
  C     10.286360    2.392200   -0.318040
  C     11.344010    1.514940   -0.312410
  C     12.739390    1.874100   -0.472560
  C     13.522100    0.642440   -0.366090
  C     12.644550   -0.435660   -0.160150
  C     11.255200    0.063320   -0.124600
  C     14.885780    0.410290   -0.433370
  C     15.348550   -0.894250   -0.293310
  C     14.465970   -1.960000   -0.088970
  C     13.097260   -1.731160   -0.021450
  Cl    15.072450   -3.557640    0.080180
  Cl    17.038220   -1.189740   -0.374320
  O     10.255330   -0.612950    0.032540
  C     13.264230    3.121470   -0.693460
  C     14.642840    3.384390   -0.842240
  C     12.530380    4.320540   -0.811390
  N     12.015980    5.341930   -0.922350
  N     15.746450    3.672320   -0.971740
  H      2.162510   -1.951310    0.660560
  H      1.659900    3.017940    0.204160
  H     -4.444680   -3.224970    0.916190
  H      8.281580    4.240510   -0.316640
  H      3.540620   -0.378030    2.914690
  H      4.501160   -1.257370    4.987080
  H      7.913880   -2.634160    2.829760
  H      6.947650   -1.782180    0.751670
  H      4.396810   -3.139600    0.339500
  H      4.609890   -4.651560   -1.576780
  H      5.513390   -1.334120   -4.098160
  H      5.281980    0.182960   -2.194050
  H     -1.600190    0.956450    2.986160
  H     -1.925080    2.531560    4.830240
  H     -0.862760    5.767400    2.265030
  H     -0.556770    4.197440    0.408450
  H      0.326630    1.270250   -2.066030
  H     -0.574730    2.036290   -4.208020
  H     -3.984730    3.639860   -2.211340
  H     -3.080180    2.889780   -0.061870
  H     -7.000210   -0.294830    1.085870
  H     -7.843720   -6.403960   -0.270270
  H    -11.168410   -3.440800    1.952460
  H      6.482710   -2.020420    6.185960
  H      7.936760   -2.509360    5.303580
  H      5.364770   -4.148510    5.516570
  H      6.865670   -4.468720    6.392310
  H      6.812470   -4.634240    4.633930
  H      5.527220   -5.006170   -3.834540
  H      5.877660   -3.626980   -4.886180
  H      3.080860   -4.587880   -4.107230
  H      3.860360   -4.849950   -5.670990
  H      3.430830   -3.215070   -5.156450
  H     -2.319030    4.849350    5.527570
  H     -1.903590    6.193870    4.454940
  H      0.107410    4.437760    5.945200
  H     -0.342810    6.088590    6.385990
  H      0.520870    5.777580    4.876250
  H     -3.969610    3.386730   -4.657180
  H     -2.548480    2.733510   -5.483880
  H     -2.718750    5.489610   -4.170380
  H     -2.771040    5.170950   -5.907380
  H     -1.298810    4.838170   -4.989050
  H     10.527740    3.440310   -0.447700
  H     15.597960    1.203570   -0.589400
  H     12.404310   -2.542590    0.135080

----------------------------
CARTESIAN COORDINATES (A.U.)
----------------------------
  NO LB      ZA    FRAG     MASS         X           Y           Z
   0 C     6.0000    0    12.011    1.540826   -0.521319    1.043658
   1 C     6.0000    0    12.011    3.911846   -1.661825    1.066883
   2 C     6.0000    0    12.011    5.981777   -0.107261    0.845766
   3 C     6.0000    0    12.011    5.683143    2.537997    0.601084
   4 C     6.0000    0    12.011    3.311216    3.678711    0.579277
   5 C     6.0000    0    12.011    1.241682    2.122578    0.785862
   6 C     6.0000    0    12.011    8.753665   -0.831933    0.741963
   7 C     6.0000    0    12.011    9.968627    1.718838    0.397750
[...]


                      *****************************
                      * MAYER POPULATION ANALYSIS *
                      *****************************

  NA   - Mulliken gross atomic population
  ZA   - Total nuclear charge
  QA   - Mulliken gross atomic charge
  VA   - Mayer's total valence
  BVA  - Mayer's bonded valence
  FA   - Mayer's free valence

  ATOM       NA         ZA         QA         VA         BVA        FA
  0 C      5.9074     6.0000     0.0926     3.8470     3.8470     0.0000
  1 C      6.0865     6.0000    -0.0865     3.7402     3.7402    -0.0000
  2 C      5.9855     6.0000     0.0145     3.8492     3.8492    -0.0000
  3 C      5.9287     6.0000     0.0713     3.8525     3.8525     0.0000
  4 C      6.0877     6.0000    -0.0877     3.7384     3.7384    -0.0000
  5 C      5.9936     6.0000     0.0064     3.8457     3.8457     0.0000
  6 C      5.9717     6.0000     0.0283     3.5838     3.5838    -0.0000
  7 C      6.0276     6.0000    -0.0276     4.0860     4.0860    -0.0000
  8 C      6.0870     6.0000    -0.0870     3.7876     3.7876    -0.0000
  9 C      5.9614     6.0000     0.0386     3.5791     3.5791    -0.0000
 10 C      6.0315     6.0000    -0.0315     4.0938     4.0938    -0.0000
 11 C      6.0978     6.0000    -0.0978     3.7886     3.7886    -0.0000
 12 C      5.9307     6.0000     0.0693     3.8071     3.8071    -0.0000
 13 C      5.9439     6.0000     0.0561     3.8418     3.8418    -0.0000
 14 C      5.9437     6.0000     0.0563     3.8331     3.8331     0.0000
 15 C      5.9430     6.0000     0.0570     3.8233     3.8233     0.0000
 16 C      6.0391     6.0000    -0.0391     3.9590     3.9590     0.0000
 17 C      6.0731     6.0000    -0.0731     3.9217     3.9217     0.0000
 18 Se    33.7628    34.0000     0.2372     2.3504     2.3504    -0.0000
 19 S     15.8251    16.0000     0.1749     2.4670     2.4670     0.0000
 20 C      6.0968     6.0000    -0.0968     3.8367     3.8367     0.0000
 21 C      5.9752     6.0000     0.0248     3.9271     3.9271    -0.0000
 22 C      6.0543     6.0000    -0.0543     3.9128     3.9128    -0.0000
 23 C      6.0296     6.0000    -0.0296     3.8056     3.8056     0.0000
 24 Se    33.7680    34.0000     0.2320     2.3422     2.3422    -0.0000
 25 S     15.7854    16.0000     0.2146     2.4983     2.4983    -0.0000
 26 C      6.0422     6.0000    -0.0422     3.8296     3.8296    -0.0000
 27 C      6.0453     6.0000    -0.0453     3.8976     3.8976    -0.0000
 28 C      6.0088     6.0000    -0.0088     3.8181     3.8181     0.0000
 29 C      6.0078     6.0000    -0.0078     3.8373     3.8373    -0.0000
 30 C      6.0119     6.0000    -0.0119     3.9150     3.9150     0.0000
 31 C      6.0138     6.0000    -0.0138     3.8445     3.8445    -0.0000
 32 C      6.0238     6.0000    -0.0238     3.8247     3.8247    -0.0000
 33 C      6.0193     6.0000    -0.0193     3.8224     3.8224     0.0000
 34 C      6.0218     6.0000    -0.0218     3.8409     3.8409     0.0000
 35 C      6.0024     6.0000    -0.0024     3.9082     3.9082    -0.0000
 36 C      6.0077     6.0000    -0.0077     3.8301     3.8301    -0.0000
 37 C      6.0047     6.0000    -0.0047     3.8169     3.8169    -0.0000
 38 C      6.0008     6.0000    -0.0008     3.8138     3.8138     0.0000
 39 C      6.0074     6.0000    -0.0074     3.8286     3.8286    -0.0000
 40 C      6.0087     6.0000    -0.0087     3.9228     3.9228     0.0000
 41 C      6.0191     6.0000    -0.0191     3.8418     3.8418    -0.0000
 42 C      6.0186     6.0000    -0.0186     3.8265     3.8265    -0.0000
 43 C      5.9981     6.0000     0.0019     3.8075     3.8075    -0.0000
 44 C      6.0061     6.0000    -0.0061     3.8352     3.8352     0.0000
 45 C      6.0109     6.0000    -0.0109     3.9238     3.9238    -0.0000
 46 C      6.0160     6.0000    -0.0160     3.8455     3.8455    -0.0000
 47 C      6.0236     6.0000    -0.0236     3.8078     3.8078     0.0000
 48 C      5.9231     6.0000     0.0769     3.8608     3.8608    -0.0000
 49 C      6.1299     6.0000    -0.1299     3.7649     3.7649    -0.0000
 50 C      5.7720     6.0000     0.2280     3.8317     3.8317     0.0000
 51 C      5.9742     6.0000     0.0258     3.7755     3.7755    -0.0000
 52 C      5.9847     6.0000     0.0153     3.6645     3.6645    -0.0000
 53 C      5.8590     6.0000     0.1410     4.1140     4.1140    -0.0000
 54 C      6.0151     6.0000    -0.0151     3.7966     3.7966    -0.0000
 55 C      5.9504     6.0000     0.0496     3.9738     3.9738    -0.0000
 56 C      5.9437     6.0000     0.0563     3.9259     3.9259     0.0000
 57 C      6.0309     6.0000    -0.0309     3.8305     3.8305    -0.0000
 58 Cl    17.0467    17.0000    -0.0467     1.1989     1.1989    -0.0000
 59 Cl    17.0400    17.0000    -0.0400     1.2102     1.2102    -0.0000
 60 O      8.1607     8.0000    -0.1607     2.3768     2.3768     0.0000
 61 C      6.3075     6.0000    -0.3075     4.0446     4.0446     0.0000
 62 C      6.1371     6.0000    -0.1371     4.1515     4.1515     0.0000
 63 C      6.1643     6.0000    -0.1643     4.2197     4.2197    -0.0000
 64 N      6.8979     7.0000     0.1021     3.1270     3.1270     0.0000
 65 N      6.8732     7.0000     0.1268     3.1534     3.1534     0.0000
 66 C      5.9228     6.0000     0.0772     4.0017     4.0017    -0.0000
 67 C      5.9883     6.0000     0.0117     4.0175     4.0175    -0.0000
 68 C      5.9300     6.0000     0.0700     4.0137     4.0137    -0.0000
 69 C      5.9947     6.0000     0.0053     4.0154     4.0154     0.0000
 70 C      5.9342     6.0000     0.0658     4.0155     4.0155     0.0000
 71 C      5.9808     6.0000     0.0192     4.0143     4.0143     0.0000
 72 C      5.9126     6.0000     0.0874     3.9898     3.9898    -0.0000
 73 C      5.9900     6.0000     0.0100     4.0192     4.0192     0.0000
 74 C      6.0432     6.0000    -0.0432     3.8587     3.8587    -0.0000
 75 C      6.0566     6.0000    -0.0566     3.6209     3.6209     0.0000
 76 C      5.7286     6.0000     0.2714     3.8559     3.8559    -0.0000
 77 C      5.9640     6.0000     0.0360     3.7387     3.7387    -0.0000
 78 C      6.0103     6.0000    -0.0103     3.6832     3.6832    -0.0000
 79 C      5.8534     6.0000     0.1466     4.0910     4.0910    -0.0000
 80 C      6.0084     6.0000    -0.0084     3.7758     3.7758     0.0000
 81 C      5.9575     6.0000     0.0425     3.9713     3.9713    -0.0000
 82 C      5.9378     6.0000     0.0622     3.9146     3.9146    -0.0000
 83 C      6.0243     6.0000    -0.0243     3.8188     3.8188    -0.0000
 84 Cl    17.0508    17.0000    -0.0508     1.1946     1.1946     0.0000
 85 Cl    17.0396    17.0000    -0.0396     1.2121     1.2121    -0.0000
 86 O      8.1798     8.0000    -0.1798     2.3514     2.3514     0.0000
 87 C      6.3172     6.0000    -0.3172     4.0119     4.0119    -0.0000
 88 C      6.1422     6.0000    -0.1422     4.1734     4.1734    -0.0000
 89 C      6.1451     6.0000    -0.1451     4.1773     4.1773     0.0000
 90 N      6.9109     7.0000     0.0891     3.1235     3.1235    -0.0000
 91 N      6.8954     7.0000     0.1046     3.1229     3.1229    -0.0000
 92 H      1.0348     1.0000    -0.0348     1.0069     1.0069    -0.0000
 93 H      1.0356     1.0000    -0.0356     1.0032     1.0032    -0.0000
 94 H      0.9980     1.0000     0.0020     0.9994     0.9994    -0.0000
 95 H      0.9853     1.0000     0.0147     0.9951     0.9951    -0.0000
 96 H      1.0111     1.0000    -0.0111     0.9842     0.9842     0.0000
 97 H      1.0364     1.0000    -0.0364     0.9850     0.9850    -0.0000
 98 H      1.0273     1.0000    -0.0273     0.9853     0.9853     0.0000
 99 H      1.0049     1.0000    -0.0049     0.9960     0.9960    -0.0000
100 H      1.0137     1.0000    -0.0137     0.9931     0.9931    -0.0000
101 H      1.0305     1.0000    -0.0305     0.9864     0.9864    -0.0000
102 H      1.0300     1.0000    -0.0300     0.9865     0.9865     0.0000
103 H      1.0155     1.0000    -0.0155     0.9863     0.9863    -0.0000
104 H      1.0118     1.0000    -0.0118     0.9842     0.9842     0.0000
105 H      1.0330     1.0000    -0.0330     0.9855     0.9855    -0.0000
106 H      1.0280     1.0000    -0.0280     0.9855     0.9855     0.0000
107 H      1.0145     1.0000    -0.0145     0.9937     0.9937    -0.0000
108 H      1.0124     1.0000    -0.0124     0.9853     0.9853    -0.0000
109 H      1.0334     1.0000    -0.0334     0.9859     0.9859     0.0000
110 H      1.0284     1.0000    -0.0284     0.9857     0.9857    -0.0000
111 H      1.0165     1.0000    -0.0165     0.9966     0.9966     0.0000
112 H      0.9790     1.0000     0.0210     1.0132     1.0132    -0.0000
113 H      0.9991     1.0000     0.0009     1.0503     1.0503     0.0000
114 H      1.0003     1.0000    -0.0003     1.0126     1.0126    -0.0000
115 H      1.0063     1.0000    -0.0063     0.9849     0.9849    -0.0000
116 H      0.9916     1.0000     0.0084     0.9775     0.9775     0.0000
117 H      0.9895     1.0000     0.0105     0.9874     0.9874    -0.0000
118 H      0.9883     1.0000     0.0117     0.9829     0.9829     0.0000
119 H      0.9872     1.0000     0.0128     0.9940     0.9940    -0.0000
120 H      0.9955     1.0000     0.0045     0.9786     0.9786    -0.0000
121 H      1.0008     1.0000    -0.0008     0.9832     0.9832    -0.0000
122 H      0.9890     1.0000     0.0110     0.9933     0.9933    -0.0000
123 H      0.9781     1.0000     0.0219     0.9823     0.9823    -0.0000
124 H      0.9874     1.0000     0.0126     0.9899     0.9899    -0.0000
125 H      0.9991     1.0000     0.0009     0.9826     0.9826    -0.0000
126 H      0.9969     1.0000     0.0031     0.9791     0.9791    -0.0000
127 H      0.9919     1.0000     0.0081     0.9899     0.9899    -0.0000
128 H      0.9832     1.0000     0.0168     0.9822     0.9822     0.0000
129 H      0.9890     1.0000     0.0110     0.9940     0.9940    -0.0000
130 H      0.9885     1.0000     0.0115     0.9782     0.9782     0.0000
131 H      1.0078     1.0000    -0.0078     0.9861     0.9861     0.0000
132 H      0.9882     1.0000     0.0118     0.9933     0.9933    -0.0000
133 H      0.9886     1.0000     0.0114     0.9831     0.9831    -0.0000
134 H      0.9912     1.0000     0.0088     0.9875     0.9875    -0.0000
135 H      0.9908     1.0000     0.0092     1.0423     1.0423     0.0000
136 H      1.0022     1.0000    -0.0022     1.0595     1.0595     0.0000
137 H      1.0044     1.0000    -0.0044     1.0134     1.0134    -0.0000

  Mayer bond orders larger than 0.100000
B(  0-C ,  1-C ) :   1.2559 B(  0-C ,  5-C ) :   1.3417 B(  0-C , 11-C ) :   1.0693 
B(  1-C ,  2-C ) :   1.4270 B(  1-C , 92-H ) :   0.9884 B(  2-C ,  3-C ) :   1.3382 
B(  2-C ,  6-C ) :   0.9015 B(  3-C ,  4-C ) :   1.2576 B(  3-C ,  8-C ) :   1.0716 
B(  4-C ,  5-C ) :   1.4258 B(  4-C , 93-H ) :   0.9914 B(  5-C ,  9-C ) :   0.8949 
B(  6-C ,  7-C ) :   0.9563 B(  6-C , 12-C ) :   0.9218 B(  6-C , 13-C ) :   0.9326 
B(  7-C ,  8-C ) :   1.5302 B(  7-C , 22-C ) :   1.3194 B(  8-C , 24-Se) :   1.0484 
B(  9-C , 10-C ) :   0.9640 B(  9-C , 14-C ) :   0.9221 B(  9-C , 15-C ) :   0.9291 
B( 10-C , 11-C ) :   1.5328 B( 10-C , 16-C ) :   1.3103 B( 11-C , 18-Se) :   1.0476 
B( 12-C , 28-C ) :   1.3963 B( 12-C , 32-C ) :   1.3758 B( 13-C , 33-C ) :   1.3774 
B( 13-C , 37-C ) :   1.4078 B( 14-C , 38-C ) :   1.4060 B( 14-C , 42-C ) :   1.3814 
B( 15-C , 43-C ) :   1.3989 B( 15-C , 47-C ) :   1.3768 B( 16-C , 17-C ) :   1.3607 
B( 16-C , 19-S ) :   1.1083 B( 17-C , 18-Se) :   1.0337 B( 17-C , 21-C ) :   1.3399 
B( 19-S , 20-C ) :   1.0651 B( 20-C , 21-C ) :   1.3964 B( 20-C , 48-C ) :   1.1867 
B( 21-C , 94-H ) :   0.9832 B( 22-C , 23-C ) :   1.3235 B( 22-C , 25-S ) :   1.0723 
B( 23-C , 24-Se) :   1.0282 B( 23-C , 27-C ) :   1.3179 B( 25-S , 26-C ) :   1.0593 
B( 26-C , 27-C ) :   1.3262 B( 26-C , 74-C ) :   1.3066 B( 27-C , 95-H ) :   1.0016 
B( 28-C , 29-C ) :   1.3545 B( 28-C , 96-H ) :   0.9764 B( 29-C , 30-C ) :   1.3884 
B( 29-C , 97-H ) :   0.9817 B( 30-C , 31-C ) :   1.3679 B( 30-C , 66-C ) :   1.0418 
B( 31-C , 32-C ) :   1.3762 B( 31-C , 98-H ) :   0.9839 B( 32-C , 99-H ) :   0.9859 
B( 33-C , 34-C ) :   1.3687 B( 33-C ,100-H ) :   0.9793 B( 34-C , 35-C ) :   1.3679 
B( 34-C ,101-H ) :   0.9858 B( 35-C , 36-C ) :   1.3893 B( 35-C , 68-C ) :   1.0423 
B( 36-C , 37-C ) :   1.3459 B( 36-C ,102-H ) :   0.9824 B( 37-C ,103-H ) :   0.9779 
B( 38-C , 39-C ) :   1.3459 B( 38-C ,104-H ) :   0.9752 B( 39-C , 40-C ) :   1.3875 
B( 39-C ,105-H ) :   0.9829 B( 40-C , 41-C ) :   1.3741 B( 40-C , 70-C ) :   1.0446 
B( 41-C , 42-C ) :   1.3677 B( 41-C ,106-H ) :   0.9837 B( 42-C ,107-H ) :   0.9834 
B( 43-C , 44-C ) :   1.3496 B( 43-C ,108-H ) :   0.9786 B( 44-C , 45-C ) :   1.3893 
B( 44-C ,109-H ) :   0.9824 B( 45-C , 46-C ) :   1.3747 B( 45-C , 72-C ) :   1.0379 
B( 46-C , 47-C ) :   1.3671 B( 46-C ,110-H ) :   0.9837 B( 47-C ,111-H ) :   0.9841 
B( 48-C , 49-C ) :   1.6013 B( 48-C ,112-H ) :   0.9116 B( 49-C , 50-C ) :   1.0700 
B( 49-C , 53-C ) :   0.9524 B( 50-C , 51-C ) :   1.0082 B( 50-C , 61-C ) :   1.5863 
B( 51-C , 52-C ) :   1.3162 B( 51-C , 54-C ) :   1.3333 B( 52-C , 53-C ) :   0.9278 
B( 52-C , 57-C ) :   1.3365 B( 53-C , 60-O ) :   2.2008 B( 54-C , 55-C ) :   1.3484 
B( 54-C ,113-H ) :   0.9813 B( 55-C , 56-C ) :   1.3873 B( 55-C , 59-Cl) :   1.0673 
B( 56-C , 57-C ) :   1.3364 B( 56-C , 58-Cl) :   1.0426 B( 57-C ,114-H ) :   1.0069 
B( 61-C , 62-C ) :   1.1265 B( 61-C , 63-C ) :   1.1714 B( 62-C , 64-N ) :   2.9399 
B( 63-C , 65-N ) :   2.9691 B( 66-C , 67-C ) :   1.1029 B( 66-C ,115-H ) :   0.9304 
B( 66-C ,116-H ) :   0.9275 B( 67-C ,117-H ) :   0.9674 B( 67-C ,118-H ) :   0.9644 
B( 67-C ,119-H ) :   0.9711 B( 68-C , 69-C ) :   1.1026 B( 68-C ,120-H ) :   0.9297 
B( 68-C ,121-H ) :   0.9318 B( 69-C ,122-H ) :   0.9694 B( 69-C ,123-H ) :   0.9663 
B( 69-C ,124-H ) :   0.9667 B( 70-C , 71-C ) :   1.1041 B( 70-C ,125-H ) :   0.9319 
B( 70-C ,126-H ) :   0.9267 B( 71-C ,127-H ) :   0.9660 B( 71-C ,128-H ) :   0.9649 
B( 71-C ,129-H ) :   0.9698 B( 72-C , 73-C ) :   1.0994 B( 72-C ,130-H ) :   0.9277 
B( 72-C ,131-H ) :   0.9308 B( 73-C ,132-H ) :   0.9719 B( 73-C ,133-H ) :   0.9651 
B( 73-C ,134-H ) :   0.9680 B( 74-C , 75-C ) :   1.4334 B( 74-C ,135-H ) :   0.9309 
B( 75-C , 76-C ) :   1.1148 B( 75-C , 79-C ) :   0.9785 B( 76-C , 77-C ) :   0.9926 
B( 76-C , 87-C ) :   1.5668 B( 77-C , 78-C ) :   1.3177 B( 77-C , 80-C ) :   1.3299 
B( 78-C , 79-C ) :   0.9514 B( 78-C , 83-C ) :   1.3313 B( 79-C , 86-O ) :   2.1371 
B( 80-C , 81-C ) :   1.3420 B( 80-C ,136-H ) :   0.9811 B( 81-C , 82-C ) :   1.3905 
B( 81-C , 85-Cl) :   1.0740 B( 82-C , 83-C ) :   1.3295 B( 82-C , 84-Cl) :   1.0375 
B( 83-C ,137-H ) :   1.0091 B( 87-C , 88-C ) :   1.1463 B( 87-C , 89-C ) :   1.1493 
B( 88-C , 91-N ) :   2.9274 B( 89-C , 90-N ) :   2.9166 

-------
TIMINGS
-------

Total SCF time: 0 days 0 hours 44 min 14 sec 

Total time                  ....    2654.229 sec
Sum of individual times     ....    2643.564 sec  ( 99.6%)

Fock matrix formation       ....    2534.823 sec  ( 95.5%)
  Split-RI-J                ....     318.568 sec  ( 12.6% of F)
  Chain of spheres X        ....    2166.340 sec  ( 85.5% of F)
  COS-X 1 center corr.      ....       0.000 sec  (  0.0% of F)
  XC integration            ....      48.781 sec  (  1.9% of F)
    Basis function eval.    ....      15.238 sec  ( 31.2% of XC)
    Density eval.           ....      15.947 sec  ( 32.7% of XC)
    XC-Functional eval.     ....       1.860 sec  (  3.8% of XC)
    XC-Potential eval.      ....      14.021 sec  ( 28.7% of XC)
Diagonalization             ....       1.424 sec  (  0.1%)
Density matrix formation    ....       2.935 sec  (  0.1%)
Population analysis         ....       0.746 sec  (  0.0%)
Initial guess               ....       2.232 sec  (  0.1%)
Orbital Transformation      ....       0.000 sec  (  0.0%)
Orbital Orthonormalization  ....       1.851 sec  (  0.1%)
DIIS solution               ....       0.377 sec  (  0.0%)
SOSCF solution              ....       5.309 sec  (  0.2%)
Grid generation             ....      95.718 sec  (  3.6%)


-------------------------------------------------------------------------------
                          DFT DISPERSION CORRECTION                            
                                                                               
                              DFTD3 V3.1  Rev 1                                
                          USING Becke-Johnson damping                          
-------------------------------------------------------------------------------
Gaussians B3LYP functional is recognized, using regular B3LYP params
Active option DFTDOPT                   ...         4   

molecular C6(AA) [au] = 333344.338105 


            DFT-D V3
 parameters
 s6 scaling factor         :     1.0000 
 a1 scaling factor         :     0.3981 
 s8 scaling factor         :     1.9889 
 a2 scaling factor         :     4.4211 
 ad hoc parameters k1-k3   :    16.0000     1.3333    -4.0000 

 Edisp/kcal,au: -270.984167482182  -0.431840712813 
 E6   /kcal   : -122.978392123 
 E8   /kcal   : -148.005775359 
 % E8         :  54.617868171 

-------------------------   ----------------
Dispersion correction           -0.431840713
-------------------------   ----------------


-------------------------   --------------------
FINAL SINGLE POINT ENERGY    -10806.385126663656
-------------------------   --------------------

                                *** OPTIMIZATION RUN DONE ***

                            ***************************************
                            *     ORCA property calculations      *
                            ***************************************

                                    ---------------------
                                    Active property flags
                                    ---------------------
   (+) Dipole Moment


------------------------------------------------------------------------------
                       ORCA ELECTRIC PROPERTIES CALCULATION
------------------------------------------------------------------------------

Dipole Moment Calculation                       ... on
Quadrupole Moment Calculation                   ... off
Polarizability Calculation                      ... off
GBWName                                         ... SeTIC4Cl.gbw
Electron density file                           ... SeTIC4Cl.scfp
The origin for moment calculation is the CENTER OF MASS  = ( 4.062221, -0.884106  0.164331)

-------------
DIPOLE MOMENT
-------------
                                X             Y             Z
Electronic contribution:      4.04513     -33.56485     -16.78920
Nuclear contribution   :     -5.48219      33.15914      18.36935
                        -----------------------------------------
Total Dipole Moment    :     -1.43705      -0.40570       1.58016
                        -----------------------------------------
Magnitude (a.u.)       :      2.17408
Magnitude (Debye)      :      5.52607



--------------------
Rotational spectrum 
--------------------
 
Rotational constants in cm-1:     0.000942     0.000175     0.000165 
Rotational constants in MHz :    28.243245     5.243131     4.935903 

 Dipole components along the rotational axes: 
x,y,z [a.u.] :    -1.514754     0.095407    -1.556608 
x,y,z [Debye]:    -3.850200     0.242505    -3.956583 

 

Timings for individual modules:

Sum of individual times         ...   118779.000 sec (=1979.650 min)
GTO integral calculation        ...      114.622 sec (=   1.910 min)   0.1 %
SCF iterations                  ...    96311.072 sec (=1605.185 min)  81.1 %
SCF Gradient evaluation         ...    22281.869 sec (= 371.364 min)  18.8 %
Geometry relaxation             ...       71.437 sec (=   1.191 min)   0.1 %
                             ****ORCA TERMINATED NORMALLY****
TOTAL RUN TIME: 1 days 9 hours 0 minutes 34 seconds 715 msec
