
                                 *****************
                                 * O   R   C   A *
                                 *****************

           --- An Ab Initio, DFT and Semiempirical electronic structure package ---

                  #######################################################
                  #                        -***-                        #
                  #          Department of theory and spectroscopy      #
                  #               Directorship: Frank Neese             #
                  #        Max Planck Institute fuer Kohlenforschung    #
                  #                Kaiser Wilhelm Platz 1               #
                  #                 D-45470 Muelheim/Ruhr               #
                  #                      Germany                        #
                  #                                                     #
                  #                  All rights reserved                #
                  #                        -***-                        #
                  #######################################################


                         Program Version 4.2.0 -  RELEASE  -


 With contributions from (in alphabetic order):
   Daniel Aravena         : Magnetic Suceptibility
   Michael Atanasov       : Ab Initio Ligand Field Theory (pilot matlab implementation)
   Alexander A. Auer      : GIAO ZORA, VPT2
   Ute Becker             : Parallelization
   Giovanni Bistoni       : ED, misc. LED, open-shell LED, HFLED
   Martin Brehm           : Molecular dynamics
   Dmytro Bykov           : SCF Hessian
   Vijay G. Chilkuri      : MRCI spin determinant printing, contributions to CSF-ICE
   Dipayan Datta          : RHF DLPNO-CCSD density
   Achintya Kumar Dutta   : EOM-CC, STEOM-CC
   Dmitry Ganyushin       : Spin-Orbit,Spin-Spin,Magnetic field MRCI
   Miquel Garcia          : C-PCM Hessian, Gaussian charge scheme
   Yang Guo               : DLPNO-NEVPT2, CIM, IAO-localization
   Andreas Hansen         : Spin unrestricted coupled pair/coupled cluster methods
   Benjamin Helmich-Paris : CASSCF linear response (MC-RPA)
   Lee Huntington         : MR-EOM, pCC
   Robert Izsak           : Overlap fitted RIJCOSX, COSX-SCS-MP3, EOM
   Christian Kollmar      : KDIIS, OOCD, Brueckner-CCSD(T), CCSD density
   Simone Kossmann        : Meta GGA functionals, TD-DFT gradient, OOMP2, MP2 Hessian
   Martin Krupicka        : AUTO-CI
   Lucas Lang             : DCDCAS
   Dagmar Lenk            : GEPOL surface, SMD
   Dimitrios Liakos       : Extrapolation schemes; Compound Job, initial MDCI parallelization
   Dimitrios Manganas     : Further ROCIS development; embedding schemes
   Dimitrios Pantazis     : SARC Basis sets
   Taras Petrenko         : DFT Hessian,TD-DFT gradient, ASA, ECA, R-Raman, ABS, FL, XAS/XES, NRVS
   Peter Pinski           : DLPNO-MP2, DLPNO-MP2 Gradient
   Christoph Reimann      : Effective Core Potentials
   Marius Retegan         : Local ZFS, SOC
   Christoph Riplinger    : Optimizer, TS searches, QM/MM, DLPNO-CCSD(T), (RO)-DLPNO pert. Triples
   Tobias Risthaus        : Range-separated hybrids, TD-DFT gradient, RPA, STAB
   Michael Roemelt        : Original ROCIS implementation
   Masaaki Saitow         : Open-shell DLPNO-CCSD energy and density
   Barbara Sandhoefer     : DKH picture change effects
   Avijit Sen             : IP-ROCIS
   Kantharuban Sivalingam : CASSCF convergence, NEVPT2, FIC-MRCI
   Bernardo de Souza      : ESD, SOC TD-DFT
   Georgi Stoychev        : AutoAux, RI-MP2 NMR
   Willem Van den Heuvel  : Paramagnetic NMR
   Boris Wezisla          : Elementary symmetry handling
   Frank Wennmohs         : Technical directorship


 We gratefully acknowledge several colleagues who have allowed us to
 interface, adapt or use parts of their codes:
   Stefan Grimme, W. Hujo, H. Kruse,             : VdW corrections, initial TS optimization,
                  C. Bannwarth                     DFT functionals, gCP, sTDA/sTD-DF
   Ed Valeev, F. Pavosevic, A. Kumar             : LibInt (2-el integral package), F12 methods
   Garnet Chan, S. Sharma, J. Yang, R. Olivares  : DMRG
   Ulf Ekstrom                                   : XCFun DFT Library
   Mihaly Kallay                                 : mrcc  (arbitrary order and MRCC methods)
   Andreas Klamt, Michael Diedenhofen            : otool_cosmo (COSMO solvation model)
   Jiri Pittner, Ondrej Demel                    : Mk-CCSD
   Frank Weinhold                                : gennbo (NPA and NBO analysis)
   Christopher J. Cramer and Donald G. Truhlar   : smd solvation model
   Lars Goerigk                                  : TD-DFT with DH, B97 family of functionals
   V. Asgeirsson, H. Jonsson                     : NEB implementation
   FAccTs GmbH                                   : IRC, NEB, NEB-TS, Multilevel, MM, QM/MM, CI optimization
   S Lehtola, MJT Oliveira, MAL Marques          : LibXC Library


 Your calculation uses the libint2 library for the computation of 2-el integrals
 For citations please refer to: http://libint.valeyev.net

 Your ORCA version has been built with support for libXC version: 4.2.3
 For citations please refer to: https://tddft.org/programs/libxc/

 This ORCA versions uses:
   CBLAS   interface :  Fast vector & matrix operations
   LAPACKE interface :  Fast linear algebra routines
   SCALAPACK package :  Parallel linear algebra routines


Your calculation utilizes the atom-pairwise dispersion correction
with the Becke-Johnson damping scheme (D3BJ)
Cite in your paper:
S.Grimme, S.Ehrlich, L.Goerigk, J Comput Chem, (2011), 32, 1456–1465 
S.Grimme, J.Antony, S.Ehrlich and H.Krieg, J.Chem.Phys., 132, (2010), 154104 
   

----- Orbital basis set information -----
Your calculation utilizes the basis: def2-SVP
   F. Weigend and R. Ahlrichs, Phys. Chem. Chem. Phys. 7, 3297 (2005).

----- AuxJ basis set information -----
Your calculation utilizes the auxiliary basis: def2/J
   F. Weigend, Phys. Chem. Chem. Phys. 8, 1057 (2006).

================================================================================
                                        WARNINGS
                       Please study these warnings very carefully!
================================================================================


WARNING: Geometry Optimization
  ===> : Switching off AutoStart
         For restart on a previous wavefunction, please use MOREAD

INFO   : the flag for use of LIBINT has been found!

================================================================================
                                       INPUT FILE
================================================================================
NAME = Y2.inp
|  1> # ORCA input file
|  2> # SCF done       -164.031515929867          0.000855962811
|  3> ! B3LYP/G D3BJ Opt RIJCOSX def2-SVP def2/J
|  4> * xyz 0 1
|  5>    C        4.48978         1.94151        -0.72963
|  6>    O        5.42205         2.62976        -1.07605
|  7>    C        3.06089         2.28321        -0.67749
|  8>    C        2.27182         3.34007        -0.99445
|  9>    S        0.61747         2.99500        -0.64613
| 10>    C        0.99212         1.41719        -0.05621
| 11>    C        2.32774         1.17535        -0.13773
| 12>    C        3.25754         0.11769         0.21433
| 13>    C        2.96746        -0.90630         1.08128
| 14>    C        1.65805        -1.11452         1.55719
| 15>    N        0.59053        -1.30372         1.93416
| 16>    C        3.92564        -1.76931         1.64160
| 17>    N        4.68217        -2.46816         2.14916
| 18>    C        4.55050         0.51233        -0.30160
| 19>    C        5.70758        -0.18270        -0.50877
| 20>    C        5.90786        -1.57483        -0.57834
| 21>    S        7.54361        -2.19985        -0.41220
| 22>    C        6.99016        -3.81111        -0.65983
| 23>    C        5.60365        -3.83893        -0.90029
| 24>    C        5.00220        -2.58958        -0.84450
| 25>    S        4.97882        -5.44590        -1.17726
| 26>    C        6.57533        -6.07516        -0.94480
| 27>    C        7.54027        -5.09438        -0.68535
| 28>    N        8.75788        -5.68086        -0.47960
| 29>    C        9.85090        -4.85763        -0.01737
| 30>    C       10.50215        -4.08025        -1.16170
| 31>    C        8.60574        -7.05272        -0.61170
| 32>    C        7.22603        -7.31034        -0.88640
| 33>    C        6.72608        -8.62435        -0.98067
| 34>    N        5.50803        -9.11465        -1.21624
| 35>    N        5.66792       -10.41210        -1.13494
| 36>    C        4.56892       -11.31838        -1.30395
| 37>    C        3.62931       -11.25160        -0.10455
| 38>    N        6.87694       -10.83803        -0.86644
| 39>    C        7.59723        -9.71960        -0.75974
| 40>    C        8.96875        -9.48139        -0.53981
| 41>    C        9.50337        -8.15305        -0.51997
| 42>    N       10.87955        -8.25699        -0.40571
| 43>    C       11.94877        -7.29353        -0.53033
| 44>    C       12.59477        -6.97590         0.81864
| 45>    C       11.20320        -9.58310        -0.32042
| 46>    C       10.04180       -10.36283        -0.39144
| 47>    S       10.33785       -12.06859        -0.31718
| 48>    C       12.05341       -11.73221        -0.20803
| 49>    C       12.36263       -10.35541        -0.22676
| 50>    S       14.06133       -10.07172        -0.13746
| 51>    C       14.36180       -11.80450        -0.06438
| 52>    C       13.17108       -12.53574        -0.11286
| 53>    C       15.61191       -12.42655         0.02896
| 54>    C       16.87705       -11.89252         0.07214
| 55>    C       18.10217       -12.66637         0.16299
| 56>    C       18.25960       -14.02602         0.25232
| 57>    C       19.54223       -14.60579         0.33538
| 58>    N       20.57948       -15.09277         0.40179
| 59>    C       17.22976       -14.98506         0.27728
| 60>    N       16.44091       -15.82030         0.30291
| 61>    C       19.20069       -11.71835         0.14935
| 62>    C       20.56028       -11.73828         0.19244
| 63>    S       21.20100       -10.13704         0.12997
| 64>    C       19.62925        -9.43048         0.04427
| 65>    C       18.67078       -10.39032         0.06417
| 66>    C       17.20642       -10.45924         0.01957
| 67>    O       16.42847        -9.52280        -0.04726
| 68>    H        2.54814         4.29094        -1.40371
| 69>    H        0.20295         0.78362         0.29614
| 70>    H        6.57591         0.43497        -0.71893
| 71>    H        3.95883        -2.41648        -1.03533
| 72>    H       10.56996        -5.47272         0.51450
| 73>    H        9.43692        -4.13952         0.69900
| 74>    H       11.38266        -3.55846        -0.79778
| 75>    H        9.80722        -3.34502        -1.55851
| 76>    H       10.79385        -4.73845        -1.97769
| 77>    H        4.99731       -12.31585        -1.41368
| 78>    H        4.03363       -11.03893        -2.21508
| 79>    H        4.15168       -11.54494         0.80278
| 80>    H        2.78790       -11.92134        -0.25653
| 81>    H        3.25686       -10.23745         0.01573
| 82>    H       11.57624        -6.40060        -1.02344
| 83>    H       12.71158        -7.73693        -1.17949
| 84>    H       11.85188        -6.70526         1.56642
| 85>    H       13.29809        -6.15605         0.70467
| 86>    H       13.13908        -7.84186         1.18465
| 87>    H       13.15345       -13.61009        -0.08042
| 88>    H       15.54313       -13.50735         0.06785
| 89>    H       21.23168       -12.57087         0.25564
| 90>    H       19.51990        -8.36621        -0.01419
| 91> *
| 92> 
| 93>                          ****END OF INPUT****
================================================================================

                       *****************************
                       * Geometry Optimization Run *
                       *****************************

Geometry optimization settings:
Update method            Update   .... BFGS
Choice of coordinates    CoordSys .... Z-matrix Internals
Initial Hessian          InHess   .... Almoef's Model

Convergence Tolerances:
Energy Change            TolE     ....  5.0000e-06 Eh
Max. Gradient            TolMAXG  ....  3.0000e-04 Eh/bohr
RMS Gradient             TolRMSG  ....  1.0000e-04 Eh/bohr
Max. Displacement        TolMAXD  ....  4.0000e-03 bohr
RMS Displacement         TolRMSD  ....  2.0000e-03 bohr
Strict Convergence                ....  False
------------------------------------------------------------------------------
                        ORCA OPTIMIZATION COORDINATE SETUP
------------------------------------------------------------------------------

The optimization will be done in new redundant internal coordinates
Making redundant internal coordinates   ...  (new redundants) done
Evaluating the initial hessian          ...  (Almloef) done
Evaluating the coordinates              ...  done
Calculating the B-matrix                .... done
Calculating the G-matrix                .... done
Diagonalizing the G-matrix              .... done
Small eigenvalue found = 5.180e-04
Small eigenvalue found = 1.156e-03
Small eigenvalue found = 1.558e-03
Small eigenvalue found = 3.609e-03
Small eigenvalue found = 4.533e-03
Small eigenvalue found = 4.815e-03
Small eigenvalue found = 5.800e-03
Small eigenvalue found = 6.977e-03
Small eigenvalue found = 8.917e-03
Small eigenvalue found = 1.020e-02
Small eigenvalue found = 1.106e-02
Small eigenvalue found = 1.333e-02
Small eigenvalue found = 1.858e-02
Small eigenvalue found = 2.034e-02
Small eigenvalue found = 2.240e-02
Small eigenvalue found = 2.421e-02
The first mode is                       ....  260
The number of degrees of freedom        ....  252

    -----------------------------------------------------------------
                    Redundant Internal Coordinates


    -----------------------------------------------------------------
         Definition                    Initial Value    Approx d2E/dq
    -----------------------------------------------------------------
      1. B(O   1,C   0)                  1.2095         1.086167   
      2. B(C   2,C   0)                  1.4701         0.465520   
      3. B(C   3,C   2)                  1.3565         0.706662   
      4. B(S   4,C   3)                  1.7255         0.491216   
      5. B(C   5,S   4)                  1.7256         0.490914   
      6. B(C   6,C   2)                  1.4339         0.531648   
      7. B(C   6,C   5)                  1.3598         0.698146   
      8. B(C   7,C   6)                  1.4516         0.498279   
      9. B(C   8,C   7)                  1.3727         0.665795   
     10. B(C   9,C   8)                  1.4087         0.583343   
     11. B(N  10,C   9)                  1.1478         1.362230   
     12. B(C  11,C   8)                  1.4060         0.589117   
     13. B(N  12,C  11)                  1.1482         1.360391   
     14. B(C  13,C   7)                  1.4470         0.506845   
     15. B(C  13,C   0)                  1.4931         0.427753   
     16. B(C  14,C  13)                  1.3656         0.683427   
     17. B(C  15,C  14)                  1.4082         0.584426   
     18. B(S  16,C  15)                  1.7590         0.434369   
     19. B(C  17,S  16)                  1.7216         0.498328   
     20. B(C  18,C  17)                  1.4075         0.585932   
     21. B(C  19,C  18)                  1.3877         0.630082   
     22. B(C  19,C  15)                  1.3859         0.634228   
     23. B(S  20,C  18)                  1.7463         0.455084   
     24. B(C  21,S  20)                  1.7317         0.480082   
     25. B(C  22,C  21)                  1.4001         0.601981   
     26. B(C  22,C  17)                  1.3964         0.610181   
     27. B(N  23,C  22)                  1.3671         0.608790   
     28. B(C  24,N  23)                  1.4443         0.458367   
     29. B(C  25,C  24)                  1.5290         0.374906   
     30. B(C  26,N  23)                  1.3866         0.566678   
     31. B(C  27,C  21)                  1.3973         0.608229   
     32. B(C  27,C  26)                  1.4302         0.539047   
     33. B(C  28,C  27)                  1.4091         0.582538   
     34. B(N  29,C  28)                  1.3340         0.687438   
     35. B(N  30,N  29)                  1.3098         0.672948   
     36. B(C  31,N  30)                  1.4345         0.475252   
     37. B(C  32,C  31)                  1.5251         0.380380   
     38. B(N  33,N  30)                  1.3097         0.673244   
     39. B(C  34,N  33)                  1.3346         0.685968   
     40. B(C  34,C  28)                  1.4168         0.566242   
     41. B(C  35,C  34)                  1.4093         0.581991   
     42. B(C  36,C  35)                  1.4320         0.535412   
     43. B(C  36,C  26)                  1.4230         0.553499   
     44. B(N  37,C  36)                  1.3848         0.570345   
     45. B(C  38,N  37)                  1.4447         0.457808   
     46. B(C  39,C  38)                  1.5290         0.374912   
     47. B(C  40,N  37)                  1.3677         0.607380   
     48. B(C  41,C  40)                  1.4007         0.600783   
     49. B(C  41,C  35)                  1.3966         0.609914   
     50. B(S  42,C  41)                  1.7329         0.478087   
     51. B(C  43,S  42)                  1.7516         0.446218   
     52. B(C  44,C  43)                  1.4112         0.577938   
     53. B(C  44,C  40)                  1.3962         0.610615   
     54. B(S  45,C  44)                  1.7245         0.492913   
     55. B(C  46,S  45)                  1.7602         0.432460   
     56. B(C  47,C  46)                  1.3982         0.606325   
     57. B(C  47,C  43)                  1.3798         0.648604   
     58. B(C  48,C  46)                  1.3994         0.603500   
     59. B(C  49,C  48)                  1.3739         0.662838   
     60. B(C  50,C  49)                  1.4519         0.497714   
     61. B(C  51,C  50)                  1.3716         0.668377   
     62. B(C  52,C  51)                  1.4100         0.580482   
     63. B(N  53,C  52)                  1.1478         1.362349   
     64. B(C  54,C  51)                  1.4075         0.585974   
     65. B(N  55,C  54)                  1.1492         1.355568   
     66. B(C  56,C  50)                  1.4511         0.499191   
     67. B(C  57,C  56)                  1.3604         0.696520   
     68. B(S  58,C  57)                  1.7258         0.490631   
     69. B(C  59,S  58)                  1.7254         0.491375   
     70. B(C  60,C  59)                  1.3566         0.706370   
     71. B(C  60,C  56)                  1.4324         0.534709   
     72. B(C  61,C  60)                  1.4667         0.471448   
     73. B(C  61,C  49)                  1.4716         0.463007   
     74. B(O  62,C  61)                  1.2193         1.047809   
     75. B(H  63,C   3)                  1.0714         0.385498   
     76. B(H  64,C   5)                  1.0716         0.385266   
     77. B(H  65,C  14)                  1.0861         0.365255   
     78. B(H  66,C  19)                  1.0747         0.380906   
     79. B(H  67,C  24)                  1.0855         0.366128   
     80. B(H  68,C  24)                  1.0956         0.352822   
     81. B(H  69,C  25)                  1.0863         0.365057   
     82. B(H  70,C  25)                  1.0867         0.364472   
     83. B(H  71,C  25)                  1.0882         0.362503   
     84. B(H  72,C  31)                  1.0911         0.358644   
     85. B(H  73,C  31)                  1.0931         0.356071   
     86. B(H  74,C  32)                  1.0873         0.363723   
     87. B(H  75,C  32)                  1.0861         0.365292   
     88. B(H  76,C  32)                  1.0871         0.364018   
     89. B(H  77,C  38)                  1.0859         0.365515   
     90. B(H  78,C  38)                  1.0954         0.353033   
     91. B(H  79,C  39)                  1.0883         0.362411   
     92. B(H  80,C  39)                  1.0862         0.365180   
     93. B(H  81,O  62)                  3.8940         0.000011   
     94. B(H  81,C  39)                  1.0863         0.364981   
     95. B(H  82,C  47)                  1.0750         0.380522   
     96. B(H  83,C  48)                  1.0837         0.368552   
     97. B(H  84,C  57)                  1.0714         0.385512   
     98. B(H  85,C  59)                  1.0715         0.385468   
     99. A(O   1,C   0,C   2)          128.8358         0.453133   
    100. A(O   1,C   0,C  13)          126.5438         0.446226   
    101. A(C   2,C   0,C  13)          104.5862         0.386337   
    102. A(C   0,C   2,C   6)          109.3126         0.401336   
    103. A(C   0,C   2,C   3)          137.5783         0.422115   
    104. A(C   3,C   2,C   6)          113.1091         0.432282   
    105. A(C   2,C   3,H  63)          129.0997         0.365067   
    106. A(S   4,C   3,H  63)          120.1225         0.361103   
    107. A(C   2,C   3,S   4)          110.7777         0.449863   
    108. A(C   3,S   4,C   5)           92.5049         0.444632   
    109. A(S   4,C   5,H  64)          119.5445         0.361028   
    110. A(S   4,C   5,C   6)          110.8161         0.448824   
    111. A(C   6,C   5,H  64)          129.6359         0.364273   
    112. A(C   5,C   6,C   7)          138.0906         0.426355   
    113. A(C   2,C   6,C   7)          109.0702         0.406180   
    114. A(C   2,C   6,C   5)          112.7900         0.431341   
    115. A(C   6,C   7,C  13)          106.6884         0.402769   
    116. A(C   6,C   7,C   8)          124.1488         0.422752   
    117. A(C   8,C   7,C  13)          128.1322         0.424042   
    118. A(C   7,C   8,C   9)          121.3362         0.434873   
    119. A(C   9,C   8,C  11)          114.0855         0.425426   
    120. A(C   7,C   8,C  11)          124.4408         0.435645   
    121. L(C   8,C   9,N  10,C  11, 2) 181.8990         0.492365   
    122. L(C   8,C   9,N  10,C  11, 1) 179.5921         0.492365   
    123. L(C   8,C  11,N  12,C   9, 1) 177.7948         0.493142   
    124. L(C   8,C  11,N  12,C   9, 2) 183.1548         0.493142   
    125. A(C   0,C  13,C  14)          118.5633         0.413333   
    126. A(C   0,C  13,C   7)          109.0827         0.392116   
    127. A(C   7,C  13,C  14)          132.2541         0.426030   
    128. A(C  15,C  14,H  65)          116.0363         0.350242   
    129. A(C  13,C  14,H  65)          114.6654         0.359661   
    130. A(C  13,C  14,C  15)          129.1361         0.437071   
    131. A(S  16,C  15,C  19)          111.4486         0.431470   
    132. A(C  14,C  15,C  19)          129.8205         0.431235   
    133. A(C  14,C  15,S  16)          118.6124         0.425189   
    134. A(C  15,S  16,C  17)           91.1471         0.436044   
    135. A(C  18,C  17,C  22)          111.5172         0.428451   
    136. A(S  16,C  17,C  18)          111.0857         0.436008   
    137. A(S  16,C  17,C  22)          137.3970         0.439207   
    138. A(C  17,C  18,C  19)          113.7215         0.430926   
    139. A(C  19,C  18,S  20)          132.8262         0.434587   
    140. A(C  17,C  18,S  20)          113.4383         0.428951   
    141. A(C  15,C  19,H  66)          123.4072         0.357662   
    142. A(C  18,C  19,H  66)          123.9621         0.357263   
    143. A(C  15,C  19,C  18)          112.5620         0.437111   
    144. A(C  18,S  20,C  21)           89.0388         0.436774   
    145. A(S  20,C  21,C  22)          113.9353         0.435201   
    146. A(C  22,C  21,C  27)          106.8898         0.430286   
    147. A(S  20,C  21,C  27)          139.1250         0.436011   
    148. A(C  17,C  22,N  23)          137.9326         0.428587   
    149. A(C  21,C  22,N  23)          109.9505         0.427549   
    150. A(C  17,C  22,C  21)          112.0624         0.430534   
    151. A(C  24,N  23,C  26)          132.6450         0.399595   
    152. A(C  22,N  23,C  26)          108.2031         0.420201   
    153. A(C  22,N  23,C  24)          118.5340         0.404676   
    154. A(N  23,C  24,C  25)          111.8759         0.374217   
    155. A(H  67,C  24,H  68)          107.5385         0.290665   
    156. A(N  23,C  24,H  68)          107.2720         0.332315   
    157. A(C  25,C  24,H  67)          111.8794         0.325395   
    158. A(C  25,C  24,H  68)          108.4853         0.323423   
    159. A(N  23,C  24,H  67)          109.5813         0.334362   
    160. A(C  24,C  25,H  71)          111.5832         0.324863   
    161. A(C  24,C  25,H  70)          110.1745         0.325153   
    162. A(H  70,C  25,H  71)          107.8685         0.291696   
    163. A(H  69,C  25,H  71)          108.9337         0.291770   
    164. A(H  69,C  25,H  70)          108.4025         0.292019   
    165. A(C  24,C  25,H  69)          109.7996         0.325238   
    166. A(N  23,C  26,C  27)          107.5999         0.413878   
    167. A(C  27,C  26,C  36)          118.7926         0.414834   
    168. A(N  23,C  26,C  36)          133.6058         0.415829   
    169. A(C  26,C  27,C  28)          121.5416         0.418627   
    170. A(C  21,C  27,C  28)          131.0192         0.427760   
    171. A(C  21,C  27,C  26)          107.3400         0.421862   
    172. A(N  29,C  28,C  34)          107.7487         0.432200   
    173. A(C  27,C  28,C  34)          119.4923         0.422319   
    174. A(C  27,C  28,N  29)          132.7294         0.434412   
    175. A(C  28,N  29,N  30)          103.9843         0.439970   
    176. A(C  31,N  30,N  33)          121.7317         0.411871   
    177. A(N  29,N  30,N  33)          116.5880         0.435384   
    178. A(N  29,N  30,C  31)          121.6680         0.411839   
    179. A(C  32,C  31,H  73)          110.0377         0.324681   
    180. A(N  30,C  31,C  32)          110.5910         0.377507   
    181. A(H  72,C  31,H  73)          110.0087         0.290142   
    182. A(C  32,C  31,H  72)          111.1626         0.325066   
    183. A(N  30,C  31,H  73)          108.1724         0.334824   
    184. A(N  30,C  31,H  72)          106.7752         0.335225   
    185. A(H  74,C  32,H  75)          108.8205         0.291954   
    186. A(C  31,C  32,H  76)          109.8136         0.325862   
    187. A(H  75,C  32,H  76)          108.9862         0.291991   
    188. A(H  74,C  32,H  76)          108.9034         0.291793   
    189. A(C  31,C  32,H  75)          109.8920         0.326049   
    190. A(C  31,C  32,H  74)          110.3941         0.325818   
    191. A(N  30,N  33,C  34)          104.0094         0.439835   
    192. A(C  28,C  34,C  35)          119.4758         0.422248   
    193. A(C  28,C  34,N  33)          107.6694         0.432034   
    194. A(N  33,C  34,C  35)          132.7941         0.434171   
    195. A(C  36,C  35,C  41)          107.2853         0.421561   
    196. A(C  34,C  35,C  41)          131.1203         0.427900   
    197. A(C  34,C  35,C  36)          121.4844         0.418052   
    198. A(C  35,C  36,N  37)          107.6092         0.413855   
    199. A(C  26,C  36,N  37)          133.6483         0.416307   
    200. A(C  26,C  36,C  35)          118.7425         0.414335   
    201. A(C  38,N  37,C  40)          118.4815         0.404423   
    202. A(C  36,N  37,C  40)          108.2451         0.420511   
    203. A(C  36,N  37,C  38)          132.7134         0.399963   
    204. A(H  77,C  38,H  78)          107.6156         0.290616   
    205. A(C  39,C  38,H  78)          108.2228         0.323455   
    206. A(N  37,C  38,H  78)          107.2517         0.332280   
    207. A(C  39,C  38,H  77)          112.0081         0.325306   
    208. A(N  37,C  38,H  77)          109.4907         0.334201   
    209. A(N  37,C  38,C  39)          112.0324         0.374139   
    210. A(H  80,C  39,H  81)          108.2155         0.292098   
    211. A(H  79,C  39,H  81)          107.9851         0.291749   
    212. A(C  38,C  39,H  81)          110.0807         0.325228   
    213. A(H  79,C  39,H  80)          109.0508         0.291774   
    214. A(C  38,C  39,H  80)          109.7425         0.325257   
    215. A(C  38,C  39,H  79)          111.6829         0.324850   
    216. A(C  41,C  40,C  44)          112.5829         0.430435   
    217. A(N  37,C  40,C  44)          137.4764         0.428464   
    218. A(N  37,C  40,C  41)          109.9001         0.427219   
    219. A(C  40,C  41,S  42)          113.8377         0.434719   
    220. A(C  35,C  41,S  42)          139.2096         0.435902   
    221. A(C  35,C  41,C  40)          106.9258         0.430346   
    222. A(C  41,S  42,C  43)           88.9091         0.434903   
    223. A(C  44,C  43,C  47)          113.0522         0.432107   
    224. A(S  42,C  43,C  47)          133.2983         0.435315   
    225. A(S  42,C  43,C  44)          113.6488         0.426390   
    226. A(C  43,C  44,S  45)          112.0635         0.434076   
    227. A(C  40,C  44,S  45)          136.9224         0.438399   
    228. A(C  40,C  44,C  43)          111.0130         0.427452   
    229. A(C  44,S  45,C  46)           90.4787         0.434842   
    230. A(C  47,C  46,C  48)          122.0456         0.430239   
    231. A(S  45,C  46,C  48)          126.3592         0.427304   
    232. A(S  45,C  46,C  47)          111.5952         0.427662   
    233. A(C  43,C  47,C  46)          112.8087         0.435851   
    234. A(C  46,C  47,H  82)          122.3853         0.354879   
    235. A(C  43,C  47,H  82)          124.8058         0.358967   
    236. A(C  46,C  48,C  49)          130.6846         0.437191   
    237. A(C  49,C  48,H  83)          116.4217         0.358341   
    238. A(C  46,C  48,H  83)          112.8931         0.352684   
    239. A(C  50,C  49,C  61)          109.4202         0.396331   
    240. A(C  48,C  49,C  61)          125.7011         0.416921   
    241. A(C  48,C  49,C  50)          124.8757         0.422330   
    242. A(C  51,C  50,C  56)          124.1475         0.423182   
    243. A(C  49,C  50,C  56)          106.8571         0.401610   
    244. A(C  49,C  50,C  51)          128.9950         0.422958   
    245. A(C  52,C  51,C  54)          112.6047         0.424645   
    246. A(C  50,C  51,C  54)          126.3426         0.435529   
    247. A(C  50,C  51,C  52)          121.0524         0.434791   
    248. L(C  51,C  52,N  53,C  54, 2) 179.8307         0.491925   
    249. L(C  51,C  52,N  53,C  54, 1) 179.1788         0.491925   
    250. L(C  51,C  54,N  55,C  52, 2) 179.9970         0.492329   
    251. L(C  51,C  54,N  55,C  52, 1) 176.3165         0.492329   
    252. A(C  57,C  56,C  60)          112.6556         0.431605   
    253. A(C  50,C  56,C  60)          109.0392         0.406724   
    254. A(C  50,C  56,C  57)          138.3052         0.426317   
    255. A(C  56,C  57,S  58)          110.8728         0.448587   
    256. A(S  58,C  57,H  84)          119.3723         0.361032   
    257. A(C  56,C  57,H  84)          129.7550         0.364167   
    258. A(C  57,S  58,C  59)           92.4959         0.444611   
    259. A(S  58,C  59,C  60)          110.6796         0.449855   
    260. A(C  60,C  59,H  85)          129.1592         0.365036   
    261. A(S  58,C  59,H  85)          120.1612         0.361118   
    262. A(C  59,C  60,C  61)          137.5800         0.423039   
    263. A(C  56,C  60,C  61)          109.1238         0.402639   
    264. A(C  56,C  60,C  59)          113.2961         0.432696   
    265. A(C  60,C  61,O  62)          127.0583         0.451217   
    266. A(C  49,C  61,O  62)          127.3874         0.449739   
    267. A(C  49,C  61,C  60)          105.5543         0.392583   
    268. D(C   6,C   2,C   0,O   1)   -177.0905         0.014759   
    269. D(C   3,C   2,C   0,C  13)   -175.1255         0.014759   
    270. D(C   6,C   2,C   0,C  13)      4.9514         0.014759   
    271. D(C   3,C   2,C   0,O   1)      2.8325         0.014759   
    272. D(H  63,C   3,C   2,C   0)     -0.3705         0.035228   
    273. D(S   4,C   3,C   2,C   6)     -0.3092         0.035228   
    274. D(S   4,C   3,C   2,C   0)    179.7697         0.035228   
    275. D(H  63,C   3,C   2,C   6)    179.5506         0.035228   
    276. D(C   5,S   4,C   3,H  63)   -179.4491         0.005070   
    277. D(C   5,S   4,C   3,C   2)      0.4251         0.005070   
    278. D(H  64,C   5,S   4,C   3)   -179.8183         0.005066   
    279. D(C   6,C   5,S   4,C   3)     -0.4358         0.005066   
    280. D(C   2,C   6,C   5,H  64)    179.6396         0.034313   
    281. D(C   7,C   6,C   2,C   0)      2.0033         0.019296   
    282. D(C   5,C   6,C   2,C   3)     -0.0184         0.019296   
    283. D(C   5,C   6,C   2,C   0)    179.9251         0.019296   
    284. D(C   7,C   6,C   2,C   3)   -177.9403         0.019296   
    285. D(C   2,C   6,C   5,S   4)      0.3372         0.034313   
    286. D(C   7,C   6,C   5,H  64)     -3.3016         0.034313   
    287. D(C   7,C   6,C   5,S   4)    177.3960         0.034313   
    288. D(C  13,C   7,C   6,C   5)    174.4806         0.016910   
    289. D(C  13,C   7,C   6,C   2)     -8.3883         0.016910   
    290. D(C   8,C   7,C   6,C   2)    160.8097         0.016910   
    291. D(C   8,C   7,C   6,C   5)    -16.3214         0.016910   
    292. D(C   9,C   8,C   7,C  13)    176.0468         0.030972   
    293. D(C  11,C   8,C   7,C   6)   -166.2417         0.030972   
    294. D(C  11,C   8,C   7,C  13)      0.5655         0.030972   
    295. D(C   9,C   8,C   7,C   6)      9.2396         0.030972   
    296. D(C  14,C  13,C   0,O   1)    -11.4235         0.012506   
    297. D(C   7,C  13,C   0,C   2)    -10.2084         0.012506   
    298. D(C   7,C  13,C   0,O   1)    171.7713         0.012506   
    299. D(C   0,C  13,C   7,C   8)   -157.0647         0.017504   
    300. D(C  14,C  13,C   7,C   8)     26.7271         0.017504   
    301. D(C   0,C  13,C   7,C   6)     11.5630         0.017504   
    302. D(C  14,C  13,C   0,C   2)    166.5967         0.012506   
    303. D(C  14,C  13,C   7,C   6)   -164.6451         0.017504   
    304. D(H  65,C  14,C  13,C   7)   -167.9721         0.032767   
    305. D(H  65,C  14,C  13,C   0)     16.1084         0.032767   
    306. D(C  15,C  14,C  13,C   7)     16.8953         0.032767   
    307. D(C  15,C  14,C  13,C   0)   -159.0242         0.032767   
    308. D(C  19,C  15,C  14,C  13)     21.0202         0.023483   
    309. D(S  16,C  15,C  14,H  65)     21.6150         0.023483   
    310. D(S  16,C  15,C  14,C  13)   -163.3080         0.023483   
    311. D(C  19,C  15,C  14,H  65)   -154.0568         0.023483   
    312. D(C  17,S  16,C  15,C  19)     -1.3678         0.004261   
    313. D(C  17,S  16,C  15,C  14)   -177.7973         0.004261   
    314. D(C  22,C  17,S  16,C  15)   -178.1315         0.005180   
    315. D(C  18,C  17,S  16,C  15)      1.7652         0.005180   
    316. D(S  20,C  18,C  17,S  16)    179.3857         0.023610   
    317. D(C  19,C  18,C  17,C  22)    178.1298         0.023610   
    318. D(S  20,C  18,C  17,C  22)     -0.6894         0.023610   
    319. D(C  19,C  18,C  17,S  16)     -1.7951         0.023610   
    320. D(H  66,C  19,C  18,S  20)     -3.6472         0.027527   
    321. D(C  15,C  19,C  18,S  20)    179.2843         0.027527   
    322. D(H  66,C  19,C  15,S  16)   -176.4901         0.027914   
    323. D(C  15,C  19,C  18,C  17)      0.7616         0.027527   
    324. D(H  66,C  19,C  15,C  14)     -0.5721         0.027914   
    325. D(H  66,C  19,C  18,C  17)    177.8300         0.027527   
    326. D(C  18,C  19,C  15,S  16)      0.5972         0.027914   
    327. D(C  18,C  19,C  15,C  14)    176.5153         0.027914   
    328. D(C  21,S  20,C  18,C  19)   -177.6984         0.004543   
    329. D(C  21,S  20,C  18,C  17)      0.8276         0.004543   
    330. D(C  22,C  21,S  20,C  18)     -0.7733         0.004903   
    331. D(C  27,C  21,S  20,C  18)    176.2033         0.004903   
    332. D(N  23,C  22,C  21,C  27)      0.4156         0.024991   
    333. D(N  23,C  22,C  21,S  20)    178.3483         0.024991   
    334. D(C  17,C  22,C  21,C  27)   -177.3936         0.024991   
    335. D(C  17,C  22,C  21,S  20)      0.5392         0.024991   
    336. D(N  23,C  22,C  17,C  18)   -176.8269         0.025715   
    337. D(N  23,C  22,C  17,S  16)      3.0695         0.025715   
    338. D(C  21,C  22,C  17,C  18)      0.0987         0.025715   
    339. D(C  21,C  22,C  17,S  16)    179.9952         0.025715   
    340. D(C  26,N  23,C  22,C  21)      0.4265         0.029928   
    341. D(C  26,N  23,C  22,C  17)    177.3954         0.029928   
    342. D(C  24,N  23,C  22,C  21)   -171.6869         0.029928   
    343. D(C  24,N  23,C  22,C  17)      5.2819         0.029928   
    344. D(H  68,C  24,N  23,C  22)     37.9887         0.017933   
    345. D(H  67,C  24,N  23,C  26)    -15.3458         0.017933   
    346. D(H  68,C  24,N  23,C  26)   -131.8044         0.017933   
    347. D(H  67,C  24,N  23,C  22)    154.4473         0.017933   
    348. D(C  25,C  24,N  23,C  26)    109.3377         0.017933   
    349. D(C  25,C  24,N  23,C  22)    -80.8692         0.017933   
    350. D(H  71,C  25,C  24,H  67)     70.3638         0.011219   
    351. D(H  71,C  25,C  24,N  23)    -53.0320         0.011219   
    352. D(H  70,C  25,C  24,H  68)    -51.3748         0.011219   
    353. D(H  70,C  25,C  24,H  67)   -169.8420         0.011219   
    354. D(H  70,C  25,C  24,N  23)     66.7622         0.011219   
    355. D(H  69,C  25,C  24,H  68)     67.9483         0.011219   
    356. D(H  69,C  25,C  24,H  67)    -50.5189         0.011219   
    357. D(H  71,C  25,C  24,H  68)   -171.1690         0.011219   
    358. D(H  69,C  25,C  24,N  23)   -173.9147         0.011219   
    359. D(C  36,C  26,N  23,C  24)    -10.0176         0.025681   
    360. D(C  36,C  26,N  23,C  22)    179.4146         0.025681   
    361. D(C  27,C  26,N  23,C  24)    169.4862         0.025681   
    362. D(C  27,C  26,N  23,C  22)     -1.0816         0.025681   
    363. D(C  28,C  27,C  26,N  23)   -175.4207         0.019852   
    364. D(C  21,C  27,C  26,C  36)   -179.0763         0.019852   
    365. D(C  21,C  27,C  26,N  23)      1.3336         0.019852   
    366. D(C  28,C  27,C  21,C  22)    175.2697         0.025541   
    367. D(C  28,C  27,C  21,S  20)     -1.8424         0.025541   
    368. D(C  26,C  27,C  21,C  22)     -1.0635         0.025541   
    369. D(C  28,C  27,C  26,C  36)      4.1694         0.019852   
    370. D(C  26,C  27,C  21,S  20)   -178.1757         0.025541   
    371. D(C  34,C  28,C  27,C  26)      1.9163         0.023324   
    372. D(C  34,C  28,C  27,C  21)   -173.9761         0.023324   
    373. D(N  29,C  28,C  27,C  26)    179.6670         0.023324   
    374. D(N  29,C  28,C  27,C  21)      3.7746         0.023324   
    375. D(N  30,N  29,C  28,C  34)      0.0431         0.035269   
    376. D(N  30,N  29,C  28,C  27)   -177.9012         0.035269   
    377. D(N  33,N  30,N  29,C  28)      0.0439         0.039660   
    378. D(C  31,N  30,N  29,C  28)    178.7890         0.039660   
    379. D(H  73,C  31,N  30,N  33)   -132.1301         0.019308   
    380. D(H  73,C  31,N  30,N  29)     49.1893         0.019308   
    381. D(H  72,C  31,N  30,N  33)    -13.7655         0.019308   
    382. D(H  72,C  31,N  30,N  29)    167.5539         0.019308   
    383. D(C  32,C  31,N  30,N  33)    107.3020         0.019308   
    384. D(C  32,C  31,N  30,N  29)    -71.3786         0.019308   
    385. D(H  76,C  32,C  31,H  73)    -60.8731         0.011530   
    386. D(H  76,C  32,C  31,H  72)    177.0039         0.011530   
    387. D(H  76,C  32,C  31,N  30)     58.5760         0.011530   
    388. D(H  75,C  32,C  31,H  73)     59.0025         0.011530   
    389. D(H  75,C  32,C  31,H  72)    -63.1204         0.011530   
    390. D(H  75,C  32,C  31,N  30)    178.4517         0.011530   
    391. D(H  74,C  32,C  31,H  73)    179.0383         0.011530   
    392. D(H  74,C  32,C  31,H  72)     56.9154         0.011530   
    393. D(H  74,C  32,C  31,N  30)    -61.5125         0.011530   
    394. D(C  34,N  33,N  30,N  29)     -0.1141         0.039699   
    395. D(C  34,N  33,N  30,C  31)   -178.8583         0.039699   
    396. D(C  35,C  34,N  33,N  30)   -176.9278         0.035104   
    397. D(C  28,C  34,N  33,N  30)      0.1302         0.035104   
    398. D(C  35,C  34,C  28,N  29)    177.4081         0.021982   
    399. D(C  35,C  34,C  28,C  27)     -4.3266         0.021982   
    400. D(N  33,C  34,C  28,N  29)     -0.1124         0.021982   
    401. D(N  33,C  34,C  28,C  27)    178.1529         0.021982   
    402. D(C  41,C  35,C  34,N  33)      1.7829         0.023278   
    403. D(C  41,C  35,C  34,C  28)   -174.9968         0.023278   
    404. D(C  36,C  35,C  34,N  33)    177.4547         0.023278   
    405. D(C  36,C  35,C  34,C  28)      0.6750         0.023278   
    406. D(N  37,C  36,C  35,C  41)      1.9238         0.019578   
    407. D(N  37,C  36,C  35,C  34)   -174.6626         0.019578   
    408. D(C  26,C  36,C  35,C  41)   -178.0159         0.019578   
    409. D(C  26,C  36,C  35,C  34)      5.3977         0.019578   
    410. D(N  37,C  36,C  26,C  27)    172.4077         0.020967   
    411. D(N  37,C  36,C  26,N  23)     -8.1319         0.020967   
    412. D(C  35,C  36,C  26,C  27)     -7.6716         0.020967   
    413. D(C  35,C  36,C  26,N  23)    171.7888         0.020967   
    414. D(C  40,N  37,C  36,C  35)     -1.5419         0.026035   
    415. D(C  40,N  37,C  36,C  26)    178.3852         0.026035   
    416. D(C  38,N  37,C  36,C  35)    169.4697         0.026035   
    417. D(C  38,N  37,C  36,C  26)    -10.6033         0.026035   
    418. D(H  78,C  38,N  37,C  40)     37.9711         0.017888   
    419. D(H  78,C  38,N  37,C  36)   -132.3102         0.017888   
    420. D(H  77,C  38,N  37,C  40)    154.4623         0.017888   
    421. D(H  77,C  38,N  37,C  36)    -15.8189         0.017888   
    422. D(C  39,C  38,N  37,C  40)    -80.6433         0.017888   
    423. D(C  39,C  38,N  37,C  36)    109.0755         0.017888   
    424. D(H  81,C  39,C  38,H  78)    -49.5072         0.011219   
    425. D(H  81,C  39,C  38,H  77)   -167.9786         0.011219   
    426. D(H  81,C  39,C  38,N  37)     68.5309         0.011219   
    427. D(H  80,C  39,C  38,H  78)     69.4926         0.011219   
    428. D(H  80,C  39,C  38,H  77)    -48.9787         0.011219   
    429. D(H  80,C  39,C  38,N  37)   -172.4692         0.011219   
    430. D(H  79,C  39,C  38,H  78)   -169.4502         0.011219   
    431. D(H  79,C  39,C  38,H  77)     72.0785         0.011219   
    432. D(H  79,C  39,C  38,N  37)    -51.4121         0.011219   
    433. D(C  44,C  40,N  37,C  38)      5.4885         0.029779   
    434. D(C  44,C  40,N  37,C  36)    177.9841         0.029779   
    435. D(C  41,C  40,N  37,C  38)   -171.9098         0.029779   
    436. D(C  41,C  40,N  37,C  36)      0.5859         0.029779   
    437. D(S  42,C  41,C  40,C  44)      1.0169         0.024886   
    438. D(S  42,C  41,C  40,N  37)    179.1126         0.024886   
    439. D(C  35,C  41,C  40,C  44)   -177.4653         0.024886   
    440. D(C  35,C  41,C  40,N  37)      0.6305         0.024886   
    441. D(S  42,C  41,C  35,C  36)   -179.4256         0.025691   
    442. D(S  42,C  41,C  35,C  34)     -3.2905         0.025691   
    443. D(C  40,C  41,C  35,C  36)     -1.5510         0.025691   
    444. D(C  40,C  41,C  35,C  34)    174.5841         0.025691   
    445. D(C  43,S  42,C  41,C  40)     -0.6454         0.004873   
    446. D(C  43,S  42,C  41,C  35)    177.1316         0.004873   
    447. D(C  47,C  43,S  42,C  41)   -179.5406         0.004420   
    448. D(C  44,C  43,S  42,C  41)      0.1306         0.004420   
    449. D(S  45,C  44,C  43,C  47)      0.4627         0.022940   
    450. D(S  45,C  44,C  43,S  42)   -179.2772         0.022940   
    451. D(C  40,C  44,C  43,C  47)   -179.8535         0.022940   
    452. D(C  40,C  44,C  43,S  42)      0.4066         0.022940   
    453. D(S  45,C  44,C  40,C  41)    178.6826         0.025754   
    454. D(S  45,C  44,C  40,N  37)      1.3322         0.025754   
    455. D(C  43,C  44,C  40,C  41)     -0.8883         0.025754   
    456. D(C  43,C  44,C  40,N  37)   -178.2388         0.025754   
    457. D(C  46,S  45,C  44,C  43)     -0.3318         0.005096   
    458. D(C  46,S  45,C  44,C  40)   -179.8996         0.005096   
    459. D(C  48,C  46,S  45,C  44)   -179.9529         0.004235   
    460. D(C  47,C  46,S  45,C  44)      0.1315         0.004235   
    461. D(H  82,C  47,C  46,C  48)      0.0428         0.025373   
    462. D(H  82,C  47,C  46,S  45)    179.9626         0.025373   
    463. D(C  43,C  47,C  46,C  48)   -179.8128         0.025373   
    464. D(C  43,C  47,C  46,S  45)      0.1070         0.025373   
    465. D(H  82,C  47,C  43,C  44)    179.7856         0.029282   
    466. D(H  82,C  47,C  43,S  42)     -0.5418         0.029282   
    467. D(C  46,C  47,C  43,C  44)     -0.3629         0.029282   
    468. D(C  46,C  47,C  43,S  42)    179.3097         0.029282   
    469. D(H  83,C  48,C  46,C  47)     -0.5711         0.025124   
    470. D(H  83,C  48,C  46,S  45)    179.5214         0.025124   
    471. D(C  49,C  48,C  46,C  47)    179.1358         0.025124   
    472. D(C  49,C  48,C  46,S  45)     -0.7717         0.025124   
    473. D(C  61,C  49,C  48,H  83)    179.3748         0.030677   
    474. D(C  61,C  49,C  48,C  46)     -0.3238         0.030677   
    475. D(C  50,C  49,C  48,H  83)      0.0759         0.030677   
    476. D(C  50,C  49,C  48,C  46)   -179.6227         0.030677   
    477. D(C  56,C  50,C  49,C  61)     -0.7444         0.016871   
    478. D(C  56,C  50,C  49,C  48)    178.6519         0.016871   
    479. D(C  51,C  50,C  49,C  61)    179.0056         0.016871   
    480. D(C  51,C  50,C  49,C  48)     -1.5981         0.016871   
    481. D(C  54,C  51,C  50,C  56)    179.6027         0.031231   
    482. D(C  54,C  51,C  50,C  49)     -0.1082         0.031231   
    483. D(C  52,C  51,C  50,C  56)     -0.1877         0.031231   
    484. D(C  52,C  51,C  50,C  49)   -179.8986         0.031231   
    485. D(C  60,C  56,C  50,C  51)   -179.2734         0.016973   
    486. D(C  60,C  56,C  50,C  49)      0.4918         0.016973   
    487. D(C  57,C  56,C  50,C  51)      0.8123         0.016973   
    488. D(C  57,C  56,C  50,C  49)   -179.4224         0.016973   
    489. D(H  84,C  57,C  56,C  60)   -179.9518         0.034140   
    490. D(H  84,C  57,C  56,C  50)     -0.0396         0.034140   
    491. D(S  58,C  57,C  56,C  60)      0.0230         0.034140   
    492. D(S  58,C  57,C  56,C  50)    179.9352         0.034140   
    493. D(C  59,S  58,C  57,H  84)    179.9526         0.005061   
    494. D(C  59,S  58,C  57,C  56)     -0.0251         0.005061   
    495. D(H  85,C  59,S  58,C  57)   -179.9900         0.005073   
    496. D(C  60,C  59,S  58,C  57)      0.0207         0.005073   
    497. D(C  61,C  60,C  59,H  85)      0.1559         0.035196   
    498. D(C  61,C  60,C  59,S  58)   -179.8561         0.035196   
    499. D(C  56,C  60,C  59,H  85)   -179.9994         0.035196   
    500. D(C  56,C  60,C  59,S  58)     -0.0114         0.035196   
    501. D(C  61,C  60,C  56,C  57)    179.8815         0.019525   
    502. D(C  61,C  60,C  56,C  50)     -0.0567         0.019525   
    503. D(C  59,C  60,C  56,C  57)     -0.0077         0.019525   
    504. D(C  59,C  60,C  56,C  50)   -179.9459         0.019525   
    505. D(O  62,C  61,C  60,C  59)     -0.5340         0.015134   
    506. D(O  62,C  61,C  60,C  56)    179.6169         0.015134   
    507. D(C  49,C  61,C  60,C  59)    179.4559         0.015134   
    508. D(C  49,C  61,C  60,C  56)     -0.3932         0.015134   
    509. D(O  62,C  61,C  49,C  50)   -179.3073         0.014601   
    510. D(O  62,C  61,C  49,C  48)      1.3026         0.014601   
    511. D(C  60,C  61,C  49,C  50)      0.7028         0.014601   
    512. D(C  60,C  61,C  49,C  48)   -178.6873         0.014601   
    -----------------------------------------------------------------

Number of atoms                         .... 86
Number of degrees of freedom            .... 512

         *************************************************************
         *                GEOMETRY OPTIMIZATION CYCLE   1            *
         *************************************************************
---------------------------------
CARTESIAN COORDINATES (ANGSTROEM)
---------------------------------
  C      4.489780    1.941510   -0.729630
  O      5.422050    2.629760   -1.076050
  C      3.060890    2.283210   -0.677490
  C      2.271820    3.340070   -0.994450
  S      0.617470    2.995000   -0.646130
  C      0.992120    1.417190   -0.056210
  C      2.327740    1.175350   -0.137730
  C      3.257540    0.117690    0.214330
  C      2.967460   -0.906300    1.081280
  C      1.658050   -1.114520    1.557190
  N      0.590530   -1.303720    1.934160
  C      3.925640   -1.769310    1.641600
  N      4.682170   -2.468160    2.149160
  C      4.550500    0.512330   -0.301600
  C      5.707580   -0.182700   -0.508770
  C      5.907860   -1.574830   -0.578340
  S      7.543610   -2.199850   -0.412200
  C      6.990160   -3.811110   -0.659830
  C      5.603650   -3.838930   -0.900290
  C      5.002200   -2.589580   -0.844500
  S      4.978820   -5.445900   -1.177260
  C      6.575330   -6.075160   -0.944800
  C      7.540270   -5.094380   -0.685350
  N      8.757880   -5.680860   -0.479600
  C      9.850900   -4.857630   -0.017370
  C     10.502150   -4.080250   -1.161700
  C      8.605740   -7.052720   -0.611700
  C      7.226030   -7.310340   -0.886400
  C      6.726080   -8.624350   -0.980670
  N      5.508030   -9.114650   -1.216240
  N      5.667920  -10.412100   -1.134940
  C      4.568920  -11.318380   -1.303950
  C      3.629310  -11.251600   -0.104550
  N      6.876940  -10.838030   -0.866440
  C      7.597230   -9.719600   -0.759740
  C      8.968750   -9.481390   -0.539810
  C      9.503370   -8.153050   -0.519970
  N     10.879550   -8.256990   -0.405710
  C     11.948770   -7.293530   -0.530330
  C     12.594770   -6.975900    0.818640
  C     11.203200   -9.583100   -0.320420
  C     10.041800  -10.362830   -0.391440
  S     10.337850  -12.068590   -0.317180
  C     12.053410  -11.732210   -0.208030
  C     12.362630  -10.355410   -0.226760
  S     14.061330  -10.071720   -0.137460
  C     14.361800  -11.804500   -0.064380
  C     13.171080  -12.535740   -0.112860
  C     15.611910  -12.426550    0.028960
  C     16.877050  -11.892520    0.072140
  C     18.102170  -12.666370    0.162990
  C     18.259600  -14.026020    0.252320
  C     19.542230  -14.605790    0.335380
  N     20.579480  -15.092770    0.401790
  C     17.229760  -14.985060    0.277280
  N     16.440910  -15.820300    0.302910
  C     19.200690  -11.718350    0.149350
  C     20.560280  -11.738280    0.192440
  S     21.201000  -10.137040    0.129970
  C     19.629250   -9.430480    0.044270
  C     18.670780  -10.390320    0.064170
  C     17.206420  -10.459240    0.019570
  O     16.428470   -9.522800   -0.047260
  H      2.548140    4.290940   -1.403710
  H      0.202950    0.783620    0.296140
  H      6.575910    0.434970   -0.718930
  H      3.958830   -2.416480   -1.035330
  H     10.569960   -5.472720    0.514500
  H      9.436920   -4.139520    0.699000
  H     11.382660   -3.558460   -0.797780
  H      9.807220   -3.345020   -1.558510
  H     10.793850   -4.738450   -1.977690
  H      4.997310  -12.315850   -1.413680
  H      4.033630  -11.038930   -2.215080
  H      4.151680  -11.544940    0.802780
  H      2.787900  -11.921340   -0.256530
  H      3.256860  -10.237450    0.015730
  H     11.576240   -6.400600   -1.023440
  H     12.711580   -7.736930   -1.179490
  H     11.851880   -6.705260    1.566420
  H     13.298090   -6.156050    0.704670
  H     13.139080   -7.841860    1.184650
  H     13.153450  -13.610090   -0.080420
  H     15.543130  -13.507350    0.067850
  H     21.231680  -12.570870    0.255640
  H     19.519900   -8.366210   -0.014190

----------------------------
CARTESIAN COORDINATES (A.U.)
----------------------------
  NO LB      ZA    FRAG     MASS         X           Y           Z
   0 C     6.0000    0    12.011    8.484455    3.668922   -1.378801
   1 O     8.0000    0    15.999   10.246190    4.969526   -2.033440
   2 C     6.0000    0    12.011    5.784244    4.314642   -1.280271
   3 C     6.0000    0    12.011    4.293118    6.311818   -1.879238
   4 S    16.0000    0    32.060    1.166849    5.659730   -1.221009
   5 C     6.0000    0    12.011    1.874835    2.678101   -0.106222
   6 C     6.0000    0    12.011    4.398791    2.221090   -0.260272
   7 C     6.0000    0    12.011    6.155858    0.222402    0.405025
   8 C     6.0000    0    12.011    5.607687   -1.712659    2.043323
   9 C     6.0000    0    12.011    3.133260   -2.106138    2.942663
  10 N     7.0000    0    14.007    1.115940   -2.463674    3.655033
  11 C     6.0000    0    12.011    7.418385   -3.343511    3.102174
  12 N     7.0000    0    14.007    8.848019   -4.664146    4.061324
  13 C     6.0000    0    12.011    8.599199    0.968163   -0.569941
  14 C     6.0000    0    12.011   10.785763   -0.345253   -0.961436
  15 C     6.0000    0    12.011   11.164237   -2.975997   -1.092904
  16 S    16.0000    0    32.060   14.255357   -4.157114   -0.778945
  17 C     6.0000    0    12.011   13.209488   -7.201954   -1.246898
  18 C     6.0000    0    12.011   10.589364   -7.254526   -1.701302
  19 C     6.0000    0    12.011    9.452788   -4.893597   -1.595874
  20 S    16.0000    0    32.060    9.408606  -10.291260   -2.224699
  21 C     6.0000    0    12.011   12.425573  -11.480389   -1.785413
  22 C     6.0000    0    12.011   14.249045   -9.626983   -1.295124
  23 N     7.0000    0    14.007   16.549995  -10.735270   -0.906313
  24 C     6.0000    0    12.011   18.615503   -9.179590   -0.032825
  25 C     6.0000    0    12.011   19.846187   -7.710555   -2.195295
  26 C     6.0000    0    12.011   16.262492  -13.327709   -1.155945
  27 C     6.0000    0    12.011   13.655218  -13.814541   -1.675053
  28 C     6.0000    0    12.011   12.710449  -16.297660   -1.853198
  29 N     7.0000    0    14.007   10.408668  -17.224192   -2.298361
  30 N     7.0000    0    14.007   10.710817  -19.676017   -2.144726
  31 C     6.0000    0    12.011    8.634008  -21.388638   -2.464108
  32 C     6.0000    0    12.011    6.858402  -21.262443   -0.197571
  33 N     7.0000    0    14.007   12.995533  -20.480909   -1.637334
  34 C     6.0000    0    12.011   14.356684  -18.367382   -1.435701
  35 C     6.0000    0    12.011   16.948481  -17.917230   -1.020093
  36 C     6.0000    0    12.011   17.958767  -15.407032   -0.982601
  37 N     7.0000    0    14.007   20.559370  -15.603450   -0.766681
  38 C     6.0000    0    12.011   22.579903  -13.782774   -1.002178
  39 C     6.0000    0    12.011   23.800666  -13.182541    1.547005
  40 C     6.0000    0    12.011   21.170980  -18.109435   -0.605506
  41 C     6.0000    0    12.011   18.976252  -19.582911   -0.739714
  42 S    16.0000    0    32.060   19.535705  -22.806330   -0.599383
  43 C     6.0000    0    12.011   22.777644  -22.170664   -0.393120
  44 C     6.0000    0    12.011   23.361985  -19.568889   -0.428514
  45 S    16.0000    0    32.060   26.572063  -19.032792   -0.259762
  46 C     6.0000    0    12.011   27.139869  -22.307272   -0.121661
  47 C     6.0000    0    12.011   24.889734  -23.689115   -0.213274
  48 C     6.0000    0    12.011   29.502234  -23.482776    0.054726
  49 C     6.0000    0    12.011   31.893002  -22.473606    0.136325
  50 C     6.0000    0    12.011   34.208144  -23.935970    0.308006
  51 C     6.0000    0    12.011   34.505643  -26.505337    0.476816
  52 C     6.0000    0    12.011   36.929463  -27.600943    0.633776
  53 N     7.0000    0    14.007   38.889581  -28.521202    0.759273
  54 C     6.0000    0    12.011   32.559528  -28.317660    0.523983
  55 N     7.0000    0    14.007   31.068817  -29.896034    0.572417
  56 C     6.0000    0    12.011   36.284046  -22.144472    0.282231
  57 C     6.0000    0    12.011   38.853298  -22.182134    0.363659
  58 S    16.0000    0    32.060   40.064084  -19.156229    0.245608
  59 C     6.0000    0    12.011   37.093907  -17.821025    0.083658
  60 C     6.0000    0    12.011   35.282661  -19.634859    0.121264
  61 C     6.0000    0    12.011   32.515422  -19.765099    0.036982
  62 O     8.0000    0    15.999   31.045309  -17.995484   -0.089308
  63 H     1.0000    0     1.008    4.815287    8.108701   -2.652627
  64 H     1.0000    0     1.008    0.383520    1.480827    0.559623
  65 H     1.0000    0     1.008   12.426669    0.821974   -1.358581
  66 H     1.0000    0     1.008    7.481105   -4.566485   -1.956490
  67 H     1.0000    0     1.008   19.974330  -10.341942    0.972264
  68 H     1.0000    0     1.008   17.833194   -7.822559    1.320919
  69 H     1.0000    0     1.008   21.510110   -6.724515   -1.507586
  70 H     1.0000    0     1.008   18.532960   -6.321172   -2.945157
  71 H     1.0000    0     1.008   20.397420   -8.954373   -3.737292
  72 H     1.0000    0     1.008    9.443547  -23.273584   -2.671468
  73 H     1.0000    0     1.008    7.622456  -20.860555   -4.185895
  74 H     1.0000    0     1.008    7.845538  -21.816775    1.517034
  75 H     1.0000    0     1.008    5.268367  -22.528068   -0.484771
  76 H     1.0000    0     1.008    6.154573  -19.345977    0.029725
  77 H     1.0000    0     1.008   21.875923  -12.095381   -1.934021
  78 H     1.0000    0     1.008   24.021405  -14.620679   -2.228913
  79 H     1.0000    0     1.008   22.396807  -12.671105    2.960105
  80 H     1.0000    0     1.008   25.129748  -11.633249    1.331633
  81 H     1.0000    0     1.008   24.829263  -14.818968    2.238664
  82 H     1.0000    0     1.008   24.856418  -25.719343   -0.151972
  83 H     1.0000    0     1.008   29.372259  -25.525192    0.128218
  84 H     1.0000    0     1.008   40.122061  -23.755502    0.483090
  85 H     1.0000    0     1.008   36.887265  -15.809846   -0.026815

--------------------------------
INTERNAL COORDINATES (ANGSTROEM)
--------------------------------
 C      0   0   0     0.000000000000     0.00000000     0.00000000
 O      1   0   0     1.209471881360     0.00000000     0.00000000
 C      1   2   0     1.470103432314   128.83583536     0.00000000
 C      3   1   2     1.356483750769   137.57829357     2.83254578
 S      4   3   1     1.725477919244   110.77765283   179.76973794
 C      5   4   3     1.725645567607    92.50489449     0.42507014
 C      6   5   4     1.359784130074   110.81611418   359.56423077
 C      7   6   5     1.451591870741   138.09059114   177.39601440
 C      8   7   6     1.372699613535   124.14884630   343.67864429
 C      9   8   7     1.408687490042   121.33615557     9.23958133
 N     10   9   8     1.147824887036   178.88496834   114.74234946
 C      9   8   7     1.406006285512   124.44081501   193.75825579
 N     12   9   8     1.148192543522   177.17387282   135.72863360
 C      8   7   6     1.446951988181   106.68842569   174.48062302
 C     14   8   7     1.365584210585   132.25406515   195.35488797
 C     15  14   8     1.408182516650   129.13611834    16.89529893
 S     16  15  14     1.758957237257   118.61241426   196.69196958
 C     17  16  15     1.721565074866    91.14711712   182.20274281
 C     18  17  16     1.407481773985   111.08571431     1.76520137
 C     16  15  14     1.385921622495   129.82053868    21.02017834
 S     19  18  17     1.746275319272   113.43833324   179.38574781
 C     21  19  18     1.731718793367    89.03879400     0.82757106
 C     18  17  16     1.396443402147   137.39701308   181.86849005
 N     23  18  17     1.367064725973   137.93259388     3.06952019
 C     24  23  18     1.444318845062   118.53397643     5.28194446
 C     25  24  23     1.529031515633   111.87591449   279.13076564
 C     24  23  18     1.386577386661   108.20311943   177.39543966
 C     22  21  19     1.397315527145   139.12503001   176.20329658
 C     28  22  21     1.409063204934   131.01918744   358.15755474
 N     29  28  22     1.333991423286   132.72938960     3.77456568
 N     30  29  28     1.309790443010   103.98432049   182.09875406
 C     31  30  29     1.434471616485   121.66800411   178.78895140
 C     32  31  30     1.525085860042   110.59099450   288.62143940
 N     31  30  29     1.309670941611   116.58799732     0.04388051
 C     34  31  30     1.334574178905   104.00936381   359.88593026
 C     35  34  31     1.409319097792   132.79414224   183.07220839
 C     27  24  23     1.422982824457   133.60577921   179.41455628
 N     37  27  24     1.384821383284   133.64825506   351.86807890
 C     38  37  27     1.444651073581   132.71336365   349.39671703
 C     39  38  37     1.529027428727   112.03241645   109.07548551
 C     38  37  27     1.367695667428   108.24506497   178.38516136
 C     36  35  34     1.396562362732   131.12030160     1.78294883
 S     42  36  35     1.732852367543   139.20956348   356.70949397
 C     43  42  36     1.751631051477    88.90913426   177.13162622
 C     41  38  37     1.396249568165   137.47638752   177.98413138
 S     45  41  38     1.724539415641   136.92237624     1.33216199
 C     46  45  41     1.760156082767    90.47872726   180.10040000
 C     44  43  42     1.379820284928   133.29828093   180.45942428
 C     47  46  45     1.399440448965   126.35921400   180.04711719
 C     49  47  46     1.373911122635   130.68456187   359.22834450
 C     50  49  47     1.451901015703   124.87567318   180.37731599
 C     51  50  49     1.371645791121   128.99495407   358.40192216
 C     52  51  50     1.410025508067   121.05241678   180.10140104
 N     53  52  51     1.147801102543   179.17331905   186.47755208
 C     52  51  50     1.407462663377   126.34256108   359.89176849
 N     55  52  51     1.149159291395   176.31653707   180.22329328
 C     51  50  49     1.451094125272   106.85708340   178.65189973
 C     57  51  50     1.360418656554   138.30523276   180.57758532
 S     58  57  51     1.725802467521   110.87277053   179.93516524
 C     59  58  57     1.725389691084    92.49594572   359.97487617
 C     60  59  58     1.356596320392   110.67963672     0.00000000
 C     61  60  59     1.466659243315   137.57999020   180.14385168
 O     62  61  60     1.219258924511   127.05827175   359.46599506
 H      4   3   1     1.071447734096   129.09972406   359.62952960
 H      6   5   4     1.071611289741   119.54446325   180.18173947
 H     15  14   8     1.086130951313   114.66535655   192.02787104
 H     20  16  15     1.074709568116   123.40717643   359.42794213
 H     25  24  23     1.085480855934   109.58131326   154.44730124
 H     25  24  23     1.095558026487   107.27202379    37.98871958
 H     26  25  24     1.086278247320   109.79958500   186.08530887
 H     26  25  24     1.086714789584   110.17453006    66.76219138
 H     26  25  24     1.088189234508   111.58320415   306.96796672
 H     32  31  30     1.091102683481   106.77522903   167.55394451
 H     32  31  30     1.093062470081   108.17242114    49.18934406
 H     33  32  31     1.087274804914   110.39411984   298.48746030
 H     33  32  31     1.086103299001   109.89198969   178.45168696
 H     33  32  31     1.087054048058   109.81357651    58.57599118
 H     39  38  37     1.085937409753   109.49073120   344.18107091
 H     39  38  37     1.095395527515   107.25172122   227.68983771
 H     40  39  38     1.088258466588   111.68292086   308.58793725
 H     40  39  38     1.086187003144   109.74252971   187.53077565
 H     40  39  38     1.086334855282   110.08071155    68.53088733
 H     48  44  43     1.074984229187   124.80584966   359.45824592
 H     49  47  46     1.083684345416   112.89312956   179.52136671
 H     58  57  51     1.071437496124   129.75495779   359.96037800
 H     60  59  58     1.071468910888   120.16120085   180.00995472

---------------------------
INTERNAL COORDINATES (A.U.)
---------------------------
 C      0   0   0     0.000000000000     0.00000000     0.00000000
 O      1   0   0     2.285570622449     0.00000000     0.00000000
 C      1   2   0     2.778092875610   128.83583536     0.00000000
 C      3   1   2     2.563382794067   137.57829357     2.83254578
 S      4   3   1     3.260680717500   110.77765283   179.76973794
 C      5   4   3     3.260997526991    92.50489449     0.42507014
 C      6   5   4     2.569619607091   110.81611418   359.56423077
 C      7   6   5     2.743111093926   138.09059114   177.39601440
 C      8   7   6     2.594026333721   124.14884630   343.67864429
 C      9   8   7     2.662033564460   121.33615557     9.23958133
 N     10   9   8     2.169074686198   178.88496834   114.74234946
 C      9   8   7     2.656966822190   124.44081501   193.75825579
 N     12   9   8     2.169769456267   177.17387282   135.72863360
 C      8   7   6     2.734342986594   106.68842569   174.48062302
 C     14   8   7     2.580580170813   132.25406515   195.35488797
 C     15  14   8     2.661079303045   129.13611834    16.89529893
 S     16  15  14     3.323947459695   118.61241426   196.69196958
 C     17  16  15     3.253286513221    91.14711712   182.20274281
 C     18  17  16     2.659755091317   111.08571431     1.76520137
 C     16  15  14     2.619012309596   129.82053868    21.02017834
 S     19  18  17     3.299982107851   113.43833324   179.38574781
 C     21  19  18     3.272474260428    89.03879400     0.82757106
 C     18  17  16     2.638895591579   137.39701308   181.86849005
 N     23  18  17     2.583377939433   137.93259388     3.06952019
 C     24  23  18     2.729367067228   118.53397643     5.28194446
 C     25  24  23     2.889450814682   111.87591449   279.13076564
 C     24  23  18     2.620251524278   108.20311943   177.39543966
 C     22  21  19     2.640543668980   139.12503001   176.20329658
 C     28  22  21     2.662743562711   131.01918744   358.15755474
 N     29  28  22     2.520878455010   132.72938960     3.77456568
 N     30  29  28     2.475145230116   103.98432049   182.09875406
 C     31  30  29     2.710758502039   121.66800411   178.78895140
 C     32  31  30     2.881994606195   110.59099450   288.62143940
 N     31  30  29     2.474919405199   116.58799732     0.04388051
 C     34  31  30     2.521979703533   104.00936381   359.88593026
 C     35  34  31     2.663227130131   132.79414224   183.07220839
 C     27  24  23     2.689047831498   133.60577921   179.41455628
 N     37  27  24     2.616933158804   133.64825506   351.86807890
 C     38  37  27     2.729994888144   132.71336365   349.39671703
 C     39  38  37     2.889443091548   112.03241645   109.07548551
 C     38  37  27     2.584570245989   108.24506497   178.38516136
 C     36  35  34     2.639120394506   131.12030160     1.78294883
 S     42  36  35     3.274616405174   139.20956348   356.70949397
 C     43  42  36     3.310102974965    88.90913426   177.13162622
 C     41  38  37     2.638529298437   137.47638752   177.98413138
 S     45  41  38     3.258907202714   136.92237624     1.33216199
 C     46  45  41     3.326212949384    90.47872726   180.10040000
 C     44  43  42     2.607482452544   133.29828093   180.45942428
 C     47  46  45     2.644559189276   126.35921400   180.04711719
 C     49  47  46     2.596315754128   130.68456187   359.22834450
 C     50  49  47     2.743695293241   124.87567318   180.37731599
 C     51  50  49     2.592034897964   128.99495407   358.40192216
 C     52  51  50     2.664562052090   121.05241678   180.10140104
 N     53  52  51     2.169029740020   179.17331905   186.47755208
 C     52  51  50     2.659718977502   126.34256108   359.89176849
 N     55  52  51     2.171596344988   176.31653707   180.22329328
 C     51  50  49     2.742170491307   106.85708340   178.65189973
 C     57  51  50     2.570818688364   138.30523276   180.57758532
 S     58  57  51     3.261294024859   110.87277053   179.93516524
 C     59  58  57     3.260513990440    92.49594572   359.97487617
 C     60  59  58     2.563595519825   110.67963672     0.00000000
 C     61  60  59     2.771584301649   137.57999020   180.14385168
 O     62  61  60     2.304065453665   127.05827175   359.46599506
 H      4   3   1     2.024742784252   129.09972406   359.62952960
 H      6   5   4     2.025051859628   119.54446325   180.18173947
 H     15  14   8     2.052490043557   114.66535655   192.02787104
 H     20  16  15     2.030906757244   123.40717643   359.42794213
 H     25  24  23     2.051261541330   109.58131326   154.44730124
 H     25  24  23     2.070304633880   107.27202379    37.98871958
 H     26  25  24     2.052768392670   109.79958500   186.08530887
 H     26  25  24     2.053593337995   110.17453006    66.76219138
 H     26  25  24     2.056379635102   111.58320415   306.96796672
 H     32  31  30     2.061885255766   106.77522903   167.55394451
 H     32  31  30     2.065588715721   108.17242114    49.18934406
 H     33  32  31     2.054651613599   110.39411984   298.48746030
 H     33  32  31     2.052437788260   109.89198969   178.45168696
 H     33  32  31     2.054234443601   109.81357651    58.57599118
 H     39  38  37     2.052124303012   109.49073120   344.18107091
 H     39  38  37     2.069997555326   107.25172122   227.68983771
 H     40  39  38     2.056510464772   111.68292086   308.58793725
 H     40  39  38     2.052595966168   109.74252971   187.53077565
 H     40  39  38     2.052875366215   110.08071155    68.53088733
 H     48  44  43     2.031425791447   124.80584966   359.45824592
 H     49  47  46     2.047866628454   112.89312956   179.52136671
 H     58  57  51     2.024723437288   129.75495779   359.96037800
 H     60  59  58     2.024782802590   120.16120085   180.00995472

---------------------
BASIS SET INFORMATION
---------------------
There are 5 groups of distinct atoms

 Group   1 Type C   : 7s4p1d contracted to 3s2p1d pattern {511/31/1}
 Group   2 Type O   : 7s4p1d contracted to 3s2p1d pattern {511/31/1}
 Group   3 Type S   : 10s7p1d contracted to 4s3p1d pattern {5311/511/1}
 Group   4 Type N   : 7s4p1d contracted to 3s2p1d pattern {511/31/1}
 Group   5 Type H   : 4s1p contracted to 2s1p pattern {31/1}

Atom   0C    basis set group =>   1
Atom   1O    basis set group =>   2
Atom   2C    basis set group =>   1
Atom   3C    basis set group =>   1
Atom   4S    basis set group =>   3
Atom   5C    basis set group =>   1
Atom   6C    basis set group =>   1
Atom   7C    basis set group =>   1
Atom   8C    basis set group =>   1
Atom   9C    basis set group =>   1
Atom  10N    basis set group =>   4
Atom  11C    basis set group =>   1
Atom  12N    basis set group =>   4
Atom  13C    basis set group =>   1
Atom  14C    basis set group =>   1
Atom  15C    basis set group =>   1
Atom  16S    basis set group =>   3
Atom  17C    basis set group =>   1
Atom  18C    basis set group =>   1
Atom  19C    basis set group =>   1
Atom  20S    basis set group =>   3
Atom  21C    basis set group =>   1
Atom  22C    basis set group =>   1
Atom  23N    basis set group =>   4
Atom  24C    basis set group =>   1
Atom  25C    basis set group =>   1
Atom  26C    basis set group =>   1
Atom  27C    basis set group =>   1
Atom  28C    basis set group =>   1
Atom  29N    basis set group =>   4
Atom  30N    basis set group =>   4
Atom  31C    basis set group =>   1
Atom  32C    basis set group =>   1
Atom  33N    basis set group =>   4
Atom  34C    basis set group =>   1
Atom  35C    basis set group =>   1
Atom  36C    basis set group =>   1
Atom  37N    basis set group =>   4
Atom  38C    basis set group =>   1
Atom  39C    basis set group =>   1
Atom  40C    basis set group =>   1
Atom  41C    basis set group =>   1
Atom  42S    basis set group =>   3
Atom  43C    basis set group =>   1
Atom  44C    basis set group =>   1
Atom  45S    basis set group =>   3
Atom  46C    basis set group =>   1
Atom  47C    basis set group =>   1
Atom  48C    basis set group =>   1
Atom  49C    basis set group =>   1
Atom  50C    basis set group =>   1
Atom  51C    basis set group =>   1
Atom  52C    basis set group =>   1
Atom  53N    basis set group =>   4
Atom  54C    basis set group =>   1
Atom  55N    basis set group =>   4
Atom  56C    basis set group =>   1
Atom  57C    basis set group =>   1
Atom  58S    basis set group =>   3
Atom  59C    basis set group =>   1
Atom  60C    basis set group =>   1
Atom  61C    basis set group =>   1
Atom  62O    basis set group =>   2
Atom  63H    basis set group =>   5
Atom  64H    basis set group =>   5
Atom  65H    basis set group =>   5
Atom  66H    basis set group =>   5
Atom  67H    basis set group =>   5
Atom  68H    basis set group =>   5
Atom  69H    basis set group =>   5
Atom  70H    basis set group =>   5
Atom  71H    basis set group =>   5
Atom  72H    basis set group =>   5
Atom  73H    basis set group =>   5
Atom  74H    basis set group =>   5
Atom  75H    basis set group =>   5
Atom  76H    basis set group =>   5
Atom  77H    basis set group =>   5
Atom  78H    basis set group =>   5
Atom  79H    basis set group =>   5
Atom  80H    basis set group =>   5
Atom  81H    basis set group =>   5
Atom  82H    basis set group =>   5
Atom  83H    basis set group =>   5
Atom  84H    basis set group =>   5
Atom  85H    basis set group =>   5
---------------------------------
AUXILIARY/J BASIS SET INFORMATION
---------------------------------
There are 5 groups of distinct atoms

 Group   1 Type C   : 12s5p4d2f1g contracted to 6s4p3d1f1g pattern {711111/2111/211/2/1}
 Group   2 Type O   : 12s5p4d2f1g contracted to 6s4p3d1f1g pattern {711111/2111/211/2/1}
 Group   3 Type S   : 14s5p5d2f1g contracted to 8s4p3d1f1g pattern {71111111/2111/311/2/1}
 Group   4 Type N   : 12s5p4d2f1g contracted to 6s4p3d1f1g pattern {711111/2111/211/2/1}
 Group   5 Type H   : 5s2p1d contracted to 3s1p1d pattern {311/2/1}

Atom   0C    basis set group =>   1
Atom   1O    basis set group =>   2
Atom   2C    basis set group =>   1
Atom   3C    basis set group =>   1
Atom   4S    basis set group =>   3
Atom   5C    basis set group =>   1
Atom   6C    basis set group =>   1
Atom   7C    basis set group =>   1
Atom   8C    basis set group =>   1
Atom   9C    basis set group =>   1
Atom  10N    basis set group =>   4
Atom  11C    basis set group =>   1
Atom  12N    basis set group =>   4
Atom  13C    basis set group =>   1
Atom  14C    basis set group =>   1
Atom  15C    basis set group =>   1
Atom  16S    basis set group =>   3
Atom  17C    basis set group =>   1
Atom  18C    basis set group =>   1
Atom  19C    basis set group =>   1
Atom  20S    basis set group =>   3
Atom  21C    basis set group =>   1
Atom  22C    basis set group =>   1
Atom  23N    basis set group =>   4
Atom  24C    basis set group =>   1
Atom  25C    basis set group =>   1
Atom  26C    basis set group =>   1
Atom  27C    basis set group =>   1
Atom  28C    basis set group =>   1
Atom  29N    basis set group =>   4
Atom  30N    basis set group =>   4
Atom  31C    basis set group =>   1
Atom  32C    basis set group =>   1
Atom  33N    basis set group =>   4
Atom  34C    basis set group =>   1
Atom  35C    basis set group =>   1
Atom  36C    basis set group =>   1
Atom  37N    basis set group =>   4
Atom  38C    basis set group =>   1
Atom  39C    basis set group =>   1
Atom  40C    basis set group =>   1
Atom  41C    basis set group =>   1
Atom  42S    basis set group =>   3
Atom  43C    basis set group =>   1
Atom  44C    basis set group =>   1
Atom  45S    basis set group =>   3
Atom  46C    basis set group =>   1
Atom  47C    basis set group =>   1
Atom  48C    basis set group =>   1
Atom  49C    basis set group =>   1
Atom  50C    basis set group =>   1
Atom  51C    basis set group =>   1
Atom  52C    basis set group =>   1
Atom  53N    basis set group =>   4
Atom  54C    basis set group =>   1
Atom  55N    basis set group =>   4
Atom  56C    basis set group =>   1
Atom  57C    basis set group =>   1
Atom  58S    basis set group =>   3
Atom  59C    basis set group =>   1
Atom  60C    basis set group =>   1
Atom  61C    basis set group =>   1
Atom  62O    basis set group =>   2
Atom  63H    basis set group =>   5
Atom  64H    basis set group =>   5
Atom  65H    basis set group =>   5
Atom  66H    basis set group =>   5
Atom  67H    basis set group =>   5
Atom  68H    basis set group =>   5
Atom  69H    basis set group =>   5
Atom  70H    basis set group =>   5
Atom  71H    basis set group =>   5
Atom  72H    basis set group =>   5
Atom  73H    basis set group =>   5
Atom  74H    basis set group =>   5
Atom  75H    basis set group =>   5
Atom  76H    basis set group =>   5
Atom  77H    basis set group =>   5
Atom  78H    basis set group =>   5
Atom  79H    basis set group =>   5
Atom  80H    basis set group =>   5
Atom  81H    basis set group =>   5
Atom  82H    basis set group =>   5
Atom  83H    basis set group =>   5
Atom  84H    basis set group =>   5
Atom  85H    basis set group =>   5
------------------------------------------------------------------------------
                           ORCA GTO INTEGRAL CALCULATION
                           -- RI-GTO INTEGRALS CHOSEN --
------------------------------------------------------------------------------

                         BASIS SET STATISTICS AND STARTUP INFO

Gaussian basis set:
 # of primitive gaussian shells          ...  907
 # of primitive gaussian functions       ... 1745
 # of contracted shells                  ...  459
 # of contracted basis functions         ... 1021
 Highest angular momentum                ...    2
 Maximum contraction depth               ...    5
Auxiliary gaussian basis set:
 # of primitive gaussian shells          ... 1714
 # of primitive gaussian functions       ... 4820
 # of contracted shells                  ... 1072
 # of contracted aux-basis functions     ... 3352
 Highest angular momentum                ...    4
 Maximum contraction depth               ...    7
Ratio of auxiliary to basis functions    ...  3.28
Integral package used                  ... LIBINT
 One Electron integrals                  ... done
 Ordering auxiliary basis shells         ... done
 Integral threshhold             Thresh  ...  2.500e-11
 Primitive cut-off               TCut    ...  2.500e-12
 Pre-screening matrix                    ... done
 Shell pair data                         ... 
 Ordering of the shell pairs             ... done (   0.008 sec) 38300 of 105570 pairs
 Determination of significant pairs      ... done (   0.000 sec)
 Creation of shell pair data             ... done (   0.006 sec)
 Storage of shell pair data              ... done (   0.008 sec)
 Shell pair data done in (   0.022 sec)
 Computing two index integrals           ... done
[...]
      pz      :     1.053770  p :     3.138978
      px      :     1.071857
      py      :     1.013351
      dz2     :     0.006574  d :     0.082749
      dxz     :     0.012557
      dyz     :     0.007001
      dx2y2   :     0.025956
      dxy     :     0.030662
 58 S s       :     5.510862  s :     5.510862
      pz      :     3.541257  p :     9.873667
      px      :     3.308064
      py      :     3.024346
      dz2     :     0.016369  d :     0.137335
      dxz     :     0.013400
      dyz     :     0.026075
      dx2y2   :     0.038032
      dxy     :     0.043458
 59 C s       :     2.930629  s :     2.930629
      pz      :     1.054005  p :     3.134272
      px      :     1.015474
      py      :     1.064793
      dz2     :     0.006381  d :     0.084266
      dxz     :     0.013691
      dyz     :     0.006610
      dx2y2   :     0.030085
      dxy     :     0.027499
 60 C s       :     2.863215  s :     2.863215
      pz      :     1.012081  p :     3.114043
      px      :     1.057644
      py      :     1.044319
      dz2     :     0.009709  d :     0.110319
      dxz     :     0.010577
      dyz     :     0.014714
      dx2y2   :     0.040704
      dxy     :     0.034616
 61 C s       :     2.855561  s :     2.855561
      pz      :     0.810611  p :     2.842536
      px      :     1.016509
      py      :     1.015417
      dz2     :     0.013858  d :     0.225569
      dxz     :     0.021025
      dyz     :     0.029661
      dx2y2   :     0.107786
      dxy     :     0.053239
 62 O s       :     3.547220  s :     3.547220
      pz      :     1.368892  p :     4.594227
      px      :     1.642602
      py      :     1.582732
      dz2     :     0.004121  d :     0.030263
      dxz     :     0.002703
      dyz     :     0.004350
      dx2y2   :     0.006926
      dxy     :     0.012163
 63 H s       :     0.887520  s :     0.887520
      pz      :     0.019041  p :     0.073772
      px      :     0.022385
      py      :     0.032346
 64 H s       :     0.884685  s :     0.884685
      pz      :     0.017594  p :     0.077799
      px      :     0.040382
      py      :     0.019824
 65 H s       :     0.886182  s :     0.886182
      pz      :     0.012546  p :     0.071670
      px      :     0.036442
      py      :     0.022682
 66 H s       :     0.888038  s :     0.888038
      pz      :     0.015612  p :     0.070201
      px      :     0.042816
      py      :     0.011772
 67 H s       :     0.901788  s :     0.901788
      pz      :     0.023076  p :     0.070148
      px      :     0.024355
      py      :     0.022717
 68 H s       :     0.903153  s :     0.903153
      pz      :     0.026979  p :     0.065569
      px      :     0.016109
      py      :     0.022481
 69 H s       :     0.899016  s :     0.899016
      pz      :     0.017763  p :     0.064589
      px      :     0.025845
      py      :     0.020982
 70 H s       :     0.909787  s :     0.909787
      pz      :     0.019149  p :     0.067061
      px      :     0.023306
      py      :     0.024606
 71 H s       :     0.907517  s :     0.907517
      pz      :     0.027214  p :     0.066369
      px      :     0.018241
      py      :     0.020914
 72 H s       :     0.900092  s :     0.900092
      pz      :     0.021205  p :     0.064983
      px      :     0.013051
      py      :     0.030728
 73 H s       :     0.899448  s :     0.899448
      pz      :     0.020572  p :     0.065113
      px      :     0.027809
      py      :     0.016732
 74 H s       :     0.902855  s :     0.902855
      pz      :     0.019423  p :     0.065056
      px      :     0.028493
      py      :     0.017140
 75 H s       :     0.901297  s :     0.901297
      pz      :     0.011984  p :     0.064476
      px      :     0.027963
      py      :     0.024529
 76 H s       :     0.902969  s :     0.902969
      pz      :     0.019984  p :     0.064948
      px      :     0.014961
      py      :     0.030003
 77 H s       :     0.903497  s :     0.903497
      pz      :     0.019086  p :     0.070553
      px      :     0.014667
      py      :     0.036800
 78 H s       :     0.904228  s :     0.904228
      pz      :     0.021793  p :     0.065927
      px      :     0.031313
      py      :     0.012822
 79 H s       :     0.907422  s :     0.907422
      pz      :     0.022583  p :     0.066042
      px      :     0.029885
      py      :     0.013574
 80 H s       :     0.898540  s :     0.898540
      pz      :     0.012478  p :     0.064790
      px      :     0.024503
      py      :     0.027809
 81 H s       :     0.902247  s :     0.902247
      pz      :     0.015558  p :     0.066181
      px      :     0.017825
      py      :     0.032798
 82 H s       :     0.885126  s :     0.885126
      pz      :     0.015009  p :     0.069566
      px      :     0.010264
      py      :     0.044293
 83 H s       :     0.875097  s :     0.875097
      pz      :     0.013919  p :     0.074869
      px      :     0.011531
      py      :     0.049419
 84 H s       :     0.883443  s :     0.883443
      pz      :     0.016431  p :     0.078196
      px      :     0.023206
      py      :     0.038558
 85 H s       :     0.888681  s :     0.888681
      pz      :     0.016718  p :     0.073756
      px      :     0.011478
      py      :     0.045560


                      *****************************
                      * MAYER POPULATION ANALYSIS *
                      *****************************

  NA   - Mulliken gross atomic population
  ZA   - Total nuclear charge
  QA   - Mulliken gross atomic charge
  VA   - Mayer's total valence
  BVA  - Mayer's bonded valence
  FA   - Mayer's free valence

  ATOM       NA         ZA         QA         VA         BVA        FA
  0 C      5.8499     6.0000     0.1501     4.1017     4.1017    -0.0000
  1 O      8.1684     8.0000    -0.1684     2.3694     2.3694     0.0000
  2 C      5.9495     6.0000     0.0505     3.7847     3.7847    -0.0000
  3 C      6.1313     6.0000    -0.1313     3.7616     3.7616    -0.0000
  4 S     15.8541    16.0000     0.1459     2.5616     2.5616     0.0000
  5 C      6.1323     6.0000    -0.1323     3.7550     3.7550     0.0000
  6 C      5.9825     6.0000     0.0175     3.8787     3.8787    -0.0000
  7 C      5.7507     6.0000     0.2493     3.8540     3.8540     0.0000
  8 C      6.3146     6.0000    -0.3146     4.0232     4.0232     0.0000
  9 C      6.1368     6.0000    -0.1368     4.1651     4.1651    -0.0000
 10 N      6.9111     7.0000     0.0889     3.1240     3.1240    -0.0000
 11 C      6.1660     6.0000    -0.1660     4.2062     4.2062     0.0000
 12 N      6.8838     7.0000     0.1162     3.1385     3.1385    -0.0000
 13 C      6.1480     6.0000    -0.1480     3.7746     3.7746     0.0000
 14 C      5.9288     6.0000     0.0712     3.8486     3.8486     0.0000
 15 C      6.0928     6.0000    -0.0928     3.8281     3.8281     0.0000
 16 S     15.8538    16.0000     0.1462     2.4255     2.4255    -0.0000
 17 C      6.0406     6.0000    -0.0406     3.9333     3.9333    -0.0000
 18 C      6.0678     6.0000    -0.0678     3.9866     3.9866    -0.0000
 19 C      5.9638     6.0000     0.0362     3.9636     3.9636     0.0000
 20 S     15.7975    16.0000     0.2025     2.3362     2.3362    -0.0000
 21 C      6.0959     6.0000    -0.0959     3.8950     3.8950    -0.0000
 22 C      5.9433     6.0000     0.0567     4.1154     4.1154     0.0000
 23 N      7.2178     7.0000    -0.2178     3.3405     3.3405     0.0000
 24 C      5.8971     6.0000     0.1029     4.0175     4.0175     0.0000
 25 C      5.9885     6.0000     0.0115     3.9886     3.9886    -0.0000
 26 C      5.9295     6.0000     0.0705     3.8552     3.8552    -0.0000
 27 C      6.0768     6.0000    -0.0768     4.0056     4.0056     0.0000
 28 C      6.0173     6.0000    -0.0173     3.9356     3.9356     0.0000
 29 N      7.0594     7.0000    -0.0594     2.9497     2.9497    -0.0000
 30 N      7.1166     7.0000    -0.1166     3.5412     3.5412    -0.0000
 31 C      5.8439     6.0000     0.1561     4.0171     4.0171    -0.0000
 32 C      6.0213     6.0000    -0.0213     4.0263     4.0263    -0.0000
 33 N      7.0603     7.0000    -0.0603     2.9487     2.9487     0.0000
 34 C      6.0131     6.0000    -0.0131     3.9317     3.9317     0.0000
 35 C      6.0742     6.0000    -0.0742     3.9917     3.9917    -0.0000
 36 C      5.9252     6.0000     0.0748     3.8569     3.8569     0.0000
 37 N      7.2071     7.0000    -0.2071     3.3610     3.3610     0.0000
 38 C      5.8945     6.0000     0.1055     4.0283     4.0283    -0.0000
 39 C      5.9968     6.0000     0.0032     3.9877     3.9877     0.0000
 40 C      5.9444     6.0000     0.0556     4.1184     4.1184     0.0000
 41 C      6.0942     6.0000    -0.0942     3.8904     3.8904    -0.0000
 42 S     15.8070    16.0000     0.1930     2.3216     2.3216    -0.0000
 43 C      6.0086     6.0000    -0.0086     3.8715     3.8715    -0.0000
 44 C      6.0588     6.0000    -0.0588     3.9017     3.9017    -0.0000
 45 S     15.8066    16.0000     0.1934     2.4613     2.4613     0.0000
 46 C      6.0437     6.0000    -0.0437     3.8275     3.8275    -0.0000
 47 C      6.0523     6.0000    -0.0523     3.9266     3.9266    -0.0000
 48 C      6.0373     6.0000    -0.0373     3.8758     3.8758    -0.0000
 49 C      6.0844     6.0000    -0.0844     3.6452     3.6452     0.0000
 50 C      5.7334     6.0000     0.2666     3.8833     3.8833     0.0000
 51 C      6.3129     6.0000    -0.3129     4.0011     4.0011     0.0000
 52 C      6.1423     6.0000    -0.1423     4.1816     4.1816    -0.0000
 53 N      6.9095     7.0000     0.0905     3.1224     3.1224    -0.0000
 54 C      6.1403     6.0000    -0.1403     4.1672     4.1672     0.0000
 55 N      6.9164     7.0000     0.0836     3.1175     3.1175    -0.0000
 56 C      5.9689     6.0000     0.0311     3.8460     3.8460     0.0000
 57 C      6.1308     6.0000    -0.1308     3.7546     3.7546     0.0000
 58 S     15.8553    16.0000     0.1447     2.5626     2.5626     0.0000
 59 C      6.1349     6.0000    -0.1349     3.7620     3.7620    -0.0000
 60 C      5.9702     6.0000     0.0298     3.7973     3.7973    -0.0000
 61 C      5.8317     6.0000     0.1683     4.0851     4.0851     0.0000
 62 O      8.1886     8.0000    -0.1886     2.3462     2.3462     0.0000
 63 H      0.9579     1.0000     0.0421     0.9985     0.9985    -0.0000
 64 H      0.9480     1.0000     0.0520     1.0306     1.0306     0.0000
 65 H      0.9814     1.0000     0.0186     1.0218     1.0218    -0.0000
 66 H      0.9938     1.0000     0.0062     1.0003     1.0003     0.0000
 67 H      0.9974     1.0000     0.0026     1.0375     1.0375    -0.0000
 68 H      0.9676     1.0000     0.0324     0.9925     0.9925    -0.0000
 69 H      0.9686     1.0000     0.0314     0.9880     0.9880    -0.0000
 70 H      0.9742     1.0000     0.0258     1.0093     1.0093    -0.0000
 71 H      0.9637     1.0000     0.0363     0.9994     0.9994    -0.0000
 72 H      0.9683     1.0000     0.0317     0.9947     0.9947    -0.0000
 73 H      0.9669     1.0000     0.0331     0.9971     0.9971     0.0000
 74 H      0.9645     1.0000     0.0355     0.9982     0.9982    -0.0000
 75 H      0.9670     1.0000     0.0330     0.9876     0.9876    -0.0000
 76 H      0.9664     1.0000     0.0336     0.9956     0.9956    -0.0000
 77 H      1.0001     1.0000    -0.0001     1.0310     1.0310     0.0000
 78 H      0.9666     1.0000     0.0334     0.9953     0.9953     0.0000
 79 H      0.9589     1.0000     0.0411     0.9958     0.9958     0.0000
 80 H      0.9640     1.0000     0.0360     0.9870     0.9870    -0.0000
 81 H      0.9674     1.0000     0.0326     1.0032     1.0032    -0.0000
 82 H      0.9833     1.0000     0.0167     0.9958     0.9958    -0.0000
 83 H      0.9933     1.0000     0.0067     1.0380     1.0380    -0.0000
 84 H      0.9449     1.0000     0.0551     1.0320     1.0320    -0.0000
 85 H      0.9604     1.0000     0.0396     0.9985     0.9985    -0.0000

  Mayer bond orders larger than 0.100000
B(  0-C ,  1-O ) :   2.1805 B(  0-C ,  2-C ) :   0.9445 B(  0-C , 13-C ) :   0.9433 
B(  2-C ,  3-C ) :   1.5195 B(  2-C ,  6-C ) :   1.2255 B(  3-C ,  4-S ) :   1.1752 
B(  3-C , 63-H ) :   0.9649 B(  4-S ,  5-C ) :   1.1664 B(  5-C ,  6-C ) :   1.5075 
B(  5-C , 64-H ) :   0.9532 B(  6-C ,  7-C ) :   1.0229 B(  7-C ,  8-C ) :   1.5639 
B(  7-C , 13-C ) :   1.0879 B(  8-C ,  9-C ) :   1.1337 B(  8-C , 11-C ) :   1.1714 
B(  9-C , 10-N ) :   2.9452 B( 11-C , 12-N ) :   2.9521 B( 13-C , 14-C ) :   1.5911 
B( 14-C , 15-C ) :   1.2033 B( 14-C , 65-H ) :   0.9032 B( 15-C , 16-S ) :   1.0521 
B( 15-C , 19-C ) :   1.3873 B( 16-S , 17-C ) :   1.0757 B( 17-C , 18-C ) :   1.3523 
B( 17-C , 22-C ) :   1.3007 B( 18-C , 19-C ) :   1.3693 B( 18-C , 20-S ) :   1.0411 
B( 19-C , 66-H ) :   0.9802 B( 20-S , 21-C ) :   1.0243 B( 21-C , 22-C ) :   1.3681 
B( 21-C , 27-C ) :   1.3840 B( 22-C , 23-N ) :   1.1462 B( 23-N , 24-C ) :   0.9405 
B( 23-N , 26-C ) :   1.1370 B( 24-C , 25-C ) :   1.1066 B( 24-C , 67-H ) :   0.9404 
B( 24-C , 68-H ) :   0.9338 B( 25-C , 69-H ) :   0.9625 B( 25-C , 70-H ) :   0.9479 
B( 25-C , 71-H ) :   0.9524 B( 26-C , 27-C ) :   1.3431 B( 26-C , 36-C ) :   1.1605 
B( 27-C , 28-C ) :   1.1028 B( 28-C , 29-N ) :   1.5225 B( 28-C , 34-C ) :   1.2103 
B( 29-N , 30-N ) :   1.1974 B( 29-N , 33-N ) :   0.1520 B( 30-N , 31-C ) :   0.9348 
B( 30-N , 33-N ) :   1.1956 B( 31-C , 32-C ) :   1.1192 B( 31-C , 72-H ) :   0.9415 
B( 31-C , 73-H ) :   0.9419 B( 32-C , 74-H ) :   0.9661 B( 32-C , 75-H ) :   0.9650 
B( 32-C , 76-H ) :   0.9653 B( 33-N , 34-C ) :   1.5246 B( 34-C , 35-C ) :   1.0962 
B( 35-C , 36-C ) :   1.3345 B( 35-C , 41-C ) :   1.3916 B( 36-C , 37-N ) :   1.1476 
B( 37-N , 38-C ) :   0.9542 B( 37-N , 40-C ) :   1.1432 B( 38-C , 39-C ) :   1.1045 
B( 38-C , 77-H ) :   0.9374 B( 38-C , 78-H ) :   0.9309 B( 39-C , 79-H ) :   0.9513 
B( 39-C , 80-H ) :   0.9638 B( 39-C , 81-H ) :   0.9494 B( 40-C , 41-C ) :   1.3622 
B( 40-C , 44-C ) :   1.3139 B( 41-C , 42-S ) :   1.0185 B( 42-S , 43-C ) :   1.0351 
B( 43-C , 44-C ) :   1.3341 B( 43-C , 47-C ) :   1.3374 B( 44-C , 45-S ) :   1.0306 
B( 45-S , 46-C ) :   1.0466 B( 46-C , 47-C ) :   1.3307 B( 46-C , 48-C ) :   1.3049 
B( 47-C , 82-H ) :   1.0029 B( 48-C , 49-C ) :   1.4538 B( 48-C , 83-H ) :   0.9277 
B( 49-C , 50-C ) :   1.1155 B( 49-C , 61-C ) :   0.9647 B( 50-C , 51-C ) :   1.5667 
B( 50-C , 56-C ) :   1.0074 B( 51-C , 52-C ) :   1.1487 B( 51-C , 54-C ) :   1.1483 
B( 52-C , 53-N ) :   2.9390 B( 54-C , 55-N ) :   2.9153 B( 56-C , 57-C ) :   1.5076 
B( 56-C , 60-C ) :   1.2258 B( 57-C , 58-S ) :   1.1684 B( 57-C , 84-H ) :   0.9512 
B( 58-S , 59-C ) :   1.1748 B( 59-C , 60-C ) :   1.5134 B( 59-C , 85-H ) :   0.9656 
B( 60-C , 61-C ) :   0.9653 B( 61-C , 62-O ) :   2.1294 

-------
TIMINGS
-------

Total SCF time: 0 days 0 hours 18 min 19 sec 

Total time                  ....    1099.419 sec
Sum of individual times     ....    1097.248 sec  ( 99.8%)

Fock matrix formation       ....    1052.628 sec  ( 95.7%)
  Split-RI-J                ....     106.971 sec  ( 10.2% of F)
  Chain of spheres X        ....     919.770 sec  ( 87.4% of F)
  COS-X 1 center corr.      ....       0.000 sec  (  0.0% of F)
  XC integration            ....      25.339 sec  (  2.4% of F)
    Basis function eval.    ....       9.045 sec  ( 35.7% of XC)
    Density eval.           ....       6.910 sec  ( 27.3% of XC)
    XC-Functional eval.     ....       1.228 sec  (  4.8% of XC)
    XC-Potential eval.      ....       7.277 sec  ( 28.7% of XC)
Diagonalization             ....       0.366 sec  (  0.0%)
Density matrix formation    ....       0.902 sec  (  0.1%)
Population analysis         ....       0.210 sec  (  0.0%)
Initial guess               ....       0.521 sec  (  0.0%)
Orbital Transformation      ....       0.000 sec  (  0.0%)
Orbital Orthonormalization  ....       0.418 sec  (  0.0%)
DIIS solution               ....       0.106 sec  (  0.0%)
SOSCF solution              ....       1.892 sec  (  0.2%)
Grid generation             ....      40.623 sec  (  3.7%)


-------------------------------------------------------------------------------
                          DFT DISPERSION CORRECTION                            
                                                                               
                              DFTD3 V3.1  Rev 1                                
                          USING Becke-Johnson damping                          
-------------------------------------------------------------------------------
Gaussians B3LYP functional is recognized, using regular B3LYP params
Active option DFTDOPT                   ...         4   

molecular C6(AA) [au] = 141425.174182 


            DFT-D V3
 parameters
 s6 scaling factor         :     1.0000 
 a1 scaling factor         :     0.3981 
 s8 scaling factor         :     1.9889 
 a2 scaling factor         :     4.4211 
 ad hoc parameters k1-k3   :    16.0000     1.3333    -4.0000 

 Edisp/kcal,au: -165.685551134625  -0.264036704319 
 E6   /kcal   : -74.368554581 
 E8   /kcal   : -91.316996553 
 % E8         :  55.114640914 

-------------------------   ----------------
Dispersion correction           -0.264036704
-------------------------   ----------------


-------------------------   --------------------
FINAL SINGLE POINT ENERGY     -4796.801549626616
-------------------------   --------------------

                                *** OPTIMIZATION RUN DONE ***

                            ***************************************
                            *     ORCA property calculations      *
                            ***************************************

                                    ---------------------
                                    Active property flags
                                    ---------------------
   (+) Dipole Moment


------------------------------------------------------------------------------
                       ORCA ELECTRIC PROPERTIES CALCULATION
------------------------------------------------------------------------------

Dipole Moment Calculation                       ... on
Quadrupole Moment Calculation                   ... off
Polarizability Calculation                      ... off
GBWName                                         ... Y2.gbw
Electron density file                           ... Y2.scfp
The origin for moment calculation is the CENTER OF MASS  = (18.295547, -12.818083 -0.626432)

-------------
DIPOLE MOMENT
-------------
                                X             Y             Z
Electronic contribution:      5.31176       6.39649      -6.89584
Nuclear contribution   :     -5.24028      -4.47982       6.58181
                        -----------------------------------------
Total Dipole Moment    :      0.07148       1.91667      -0.31403
                        -----------------------------------------
Magnitude (a.u.)       :      1.94354
Magnitude (Debye)      :      4.94010



--------------------
Rotational spectrum 
--------------------
 
Rotational constants in cm-1:     0.002161     0.000311     0.000276 
Rotational constants in MHz :    64.784685     9.310306     8.260350 

 Dipole components along the rotational axes: 
x,y,z [a.u.] :    -1.199411     1.491546     0.337742 
x,y,z [Debye]:    -3.048659     3.791208     0.858472 

 

Timings for individual modules:

Sum of individual times         ...    62945.568 sec (=1049.093 min)
GTO integral calculation        ...       57.670 sec (=   0.961 min)   0.1 %
SCF iterations                  ...    51341.062 sec (= 855.684 min)  81.6 %
SCF Gradient evaluation         ...    11510.282 sec (= 191.838 min)  18.3 %
Geometry relaxation             ...       36.553 sec (=   0.609 min)   0.1 %
                             ****ORCA TERMINATED NORMALLY****
TOTAL RUN TIME: 0 days 17 hours 29 minutes 37 seconds 464 msec
