      -----------------------------------------------------------      
     |                   =====================                   |     
     |                           x T B                           |     
     |                   =====================                   |     
     |                         S. Grimme                         |     
     |          Mulliken Center for Theoretical Chemistry        |     
     |                    University of Bonn                     |     
     |                Version 6.2 RC2 (SAW190805)                |     
      -----------------------------------------------------------      

   This program is distributed in the hope that it will be useful,
   but WITHOUT ANY WARRANTY; without even the implied warranty of
   MERCHANTABILITY or FITNESS FOR A PARTICULAR PURPOSE.
   
   FOR NON-COMMERCIAL, ACADEMIA USE ONLY.
   
   Cite this work as:
   * S. Grimme, C. Bannwarth, P. Shushkov, J. Chem. Theory Comput., 2017,
     13, 1989-2009. DOI: 10.1021/acs.jctc.7b00118
   * C. Bannwarth, S. Ehlert and S. Grimme., J. Chem. Theory Comput., 2019,
     15, 1652-1671. DOI: 10.1021/acs.jctc.8b01176
   * P. Pracht, E. Caldeweyher, S. Ehlert, S. Grimme, ChemRxiv, 2019, preprint.
     DOI: 10.26434/chemrxiv.8326202.v1
   
   for DFT-D4:
   * E. Caldeweyher, C. Bannwarth and S. Grimme, J. Chem. Phys., 2017,
     147, 034112. DOI: 10.1063/1.4993215
   * E. Caldeweyher, S. Ehlert, A. Hansen, H. Neugebauer, S. Spicher,
     C. Bannwarth and S. Grimme, J. Chem. Phys., 2019, 150, 154122.
     DOI: 10.1063/1.5090222
   
   for sTDA-xTB:
   * S. Grimme and C. Bannwarth, J. Chem. Phys., 2016, 145, 054103.
     DOI: 10.1063/1.4959605
   
   in the mass-spec context:
   * V. Asgeirsson, C. Bauer and S. Grimme, Chem. Sci., 2017, 8, 4879.
     DOI: 10.1039/c7sc00601b
   
   for metadynamics refer to:
   * S. Grimme, J. Chem. Theory Comput., 2019, 155, 2847-2862
     DOI: 10.1021/acs.jctc.9b00143
   
   with help from (in alphabetical order)
   C. Bannwarth, F. Bohle, G. Brandenburg, E. Caldeweyher, M. Checinski,
   S. Dohm, S. Ehlert, S. Ehrlich, F. März, H. Neugebauer, J. Pisarek,
   P. Pracht, P. Shushkov, and S. Spicher.
   
 * started run on 2021/03/22 at 16:55:28.050     

           -------------------------------------------------
          |                Calculation Setup                |
           -------------------------------------------------

          program call               : /ihome/ghutchison/geoffh/xtb/xtb CH1007.xyz -opt
          hostname                   : smp-n127
          coordinate file            : CH1007.xyz
          omp threads                :                     1
          number of atoms            :                    97
          number of electrons        :                   344
          charge                     :                     0
          spin                       :                   0.0
          first test random number   :      0.67846639578680


########################################################################
# WARNING! Please study the warnings concerning your input carefully
#  - the use of '-opt' is discouraged, please use '--opt' next time
########################################################################

           ------------------------------------------------- 
          |                 G F N 2 - x T B                 |
          | Geometry, Frequencies, Noncovalent interactions |
          |            JCTC 2019 parametrisation            |
           ------------------------------------------------- 
             KAB for C  - Si     :                1.0500
             KAB for H  - Pd     :                0.9500
             k(s)              :                1.8500
             k(p)              :                2.2300
             k(d)              :                2.2300
             k(f)              :                2.0000
             kEN (H0ij)        :               -2.0000
             D4 a1             :                0.5200
             D4 a2             :                5.0000
             D4 s6             :                1.0000
             D4 s8             :                2.7000
             D4 s9             :                5.0000
             alphaj            :                2.0000

  Z AO/shell   Hii/eV     exponent
  1     Wed Apr 25 08:07:45 CEST 2018   EN: 2.200 GM2: 0.406  GM3: 0.0800  RAES: 1.40
     1s    -10.707211    1.230000
  6     Wed Apr 25 08:07:45 CEST 2018   EN: 2.550 GM2: 0.538  GM3: 0.1500  RAES: 3.00
     2s    -13.970922    2.096432
     2p    -10.063292    1.800000
  7     Wed Apr 25 08:07:45 CEST 2018   EN: 3.040 GM2: 0.461  GM3:-0.0640  RAES: 1.90
     2s    -16.686243    2.339881
     2p    -12.523956    2.014332
  8     Wed Apr 25 08:07:45 CEST 2018   EN: 3.440 GM2: 0.452  GM3:-0.0517  RAES: 1.80
     2s    -20.229985    2.439742
     2p    -15.503117    2.137023
  9     Mon Apr 23 13:58:50 CEST 2018   EN: 3.980 GM2: 0.532  GM3: 0.1426  RAES: 2.40
     2s    -23.458179    2.416361
     2p    -15.746583    2.308399
 16     Tue Apr 24 11:44:34 CEST 2018   EN: 2.580 GM2: 0.340  GM3:-0.0502  RAES: 3.10
     3s    -20.029654    1.981333
     3p    -11.377694    2.025643
     3d     -0.420282    1.702555
 34     Tue Jun 26 11:49:08 CEST 2018   EN: 2.550 GM2: 0.235  GM3: 0.0914  RAES: 3.90
     4s    -20.584732    2.230969
     4p    -10.910799    2.150656
     4d     -0.110636    1.317549

           ------------------------------------------------- 
          |        Self-Consistent Charge Iterations        |
           ------------------------------------------------- 

          ...................................................
          :                      SETUP                      :
          :.................................................:
          :  # basis functions                 340          :
          :  # atomic orbitals                 335          :
          :  # shells                          173          :
          :  # electrons                       344          :
          :  max. iterations                   250          :
          :  Hamiltonian                  GFN2-xTB          :
          :  restarted?                      false          :
          :  GBSA solvation                  false          :
          :  PC potential                    false          :
          :  electronic temp.          300.0000000     K    :
          :  accuracy                    1.0000000          :
          :  -> integral cutoff          0.2500000E+02      :
          :  -> integral neglect         0.1000000E-07      :
          :  -> SCF convergence          0.1000000E-05 Eh   :
          :  -> wf. convergence          0.1000000E-03 e    :
          :  Broyden damping             0.4000000          :
          ...................................................

 iter      E             dE          RMSdq      gap      omega  full diag
   1   -192.3708584 -0.192371E+03  0.557E+00    0.55       0.0  T
   2   -192.0310181  0.339840E+00  0.417E+00    0.34       1.0  T
   3   -192.2130893 -0.182071E+00  0.317E+00    0.57       1.0  T
   4   -192.7499587 -0.536869E+00  0.129E+00    0.26       1.0  T
   5   -192.8035570 -0.535982E-01  0.105E+00    0.34       1.0  T
   6   -192.8822613 -0.787043E-01  0.375E-01    0.23       1.0  T
   7   -192.8632779  0.189834E-01  0.563E-01    0.36       1.0  T
   8   -192.8797135 -0.164356E-01  0.247E-01    0.25       1.0  T
   9   -192.8845004 -0.478684E-02  0.902E-02    0.27       1.0  T
  10   -192.8853452 -0.844822E-03  0.550E-02    0.27       1.0  T
  11   -192.8855214 -0.176200E-03  0.316E-02    0.28       1.0  T
  12   -192.8854807  0.406935E-04  0.299E-02    0.27       1.0  T
  13   -192.8855829 -0.102225E-03  0.920E-03    0.28       1.1  T
  14   -192.8855852 -0.233426E-05  0.747E-03    0.28       1.4  T
  15   -192.8855892 -0.393170E-05  0.219E-03    0.28       4.6  T
  16   -192.8855895 -0.319013E-06  0.108E-03    0.28       9.4  T
  17   -192.8855895  0.435326E-07  0.121E-03    0.28       8.4  T
  18   -192.8855895 -0.872047E-07  0.659E-04    0.28      15.4  T
  19   -192.8855896 -0.316156E-07  0.199E-04    0.28      51.1  T

   *** convergence criteria satisfied after 19 iterations ***

         #    Occupation            Energy/Eh            Energy/eV
      -------------------------------------------------------------
         1        2.0000           -0.8515757             -23.1726
       ...           ...                  ...                  ...
       166        2.0000           -0.4119286             -11.2091
       167        2.0000           -0.4067468             -11.0681
       168        2.0000           -0.4000879             -10.8869
       169        2.0000           -0.3861610             -10.5080
       170        2.0000           -0.3801220             -10.3436
       171        2.0000           -0.3723208             -10.1314
       172        1.9895           -0.3661443              -9.9633 (HOMO)
       173        0.0084           -0.3559673              -9.6864 (LUMO)
       174        0.0022           -0.3546905              -9.6516
       175        0.0000           -0.3487219              -9.4892
       176                         -0.3381243              -9.2008
       177                         -0.3155608              -8.5868
       ...                                ...                  ...
       335                          0.8290986              22.5609
      -------------------------------------------------------------
                  HL-Gap            0.0101770 Eh            0.2769 eV
             Fermi-level           -0.3611662 Eh           -9.8278 eV

 SCC (total)                   0 d,  0 h,  0 min,  0.782 sec
 SCC setup                      ...        0 min,  0.003 sec (  0.321%)
 Dispersion                     ...        0 min,  0.006 sec (  0.737%)
 integral evaluation            ...        0 min,  0.206 sec ( 26.336%)
 zeroth order Hamiltonian       ...        0 min,  0.001 sec (  0.184%)
 iterations                     ...        0 min,  0.381 sec ( 48.678%)
 molecular gradient             ...        0 min,  0.183 sec ( 23.409%)
 printout                       ...        0 min,  0.003 sec (  0.326%)

         :::::::::::::::::::::::::::::::::::::::::::::::::::::
         ::                     SUMMARY                     ::
         :::::::::::::::::::::::::::::::::::::::::::::::::::::
         :: total energy            -190.492342669263 Eh    ::
         :: gradient norm              0.563007706055 Eh/a0 ::
         :: HOMO-LUMO gap              0.276930282750 eV    ::
         ::.................................................::
         :: SCC energy              -192.885589573252 Eh    ::
         :: -> isotropic ES            0.148311949999 Eh    ::
         :: -> anisotropic ES          0.015052952217 Eh    ::
         :: -> anisotropic XC          0.114212249161 Eh    ::
         :: -> dispersion             -0.163738710930 Eh    ::
         :: repulsion energy           2.392561779471 Eh    ::
         :: add. restraining           0.000000000000 Eh    ::
         :::::::::::::::::::::::::::::::::::::::::::::::::::::

      ----------------------------------------------------------- 
     |                   =====================                   |
     |                        A N C O P T                        |
     |                   =====================                   |
     |               Approximate Normal Coordinate               |
     |                Rational Function Optimizer                |
      ----------------------------------------------------------- 

          ...................................................
          :                      SETUP                      :
          :.................................................:
          :   optimization level            normal          :
          :   max. optcycles                   291          :
          :   ANC micro-cycles                  20          :
          :   degrees of freedom               285          :
          :.................................................:
          :   RF solver                   davidson          :
          :   input Hessian                  false          :
          :   write xtbopt.log                true          :
          :   linear?                        false          :
          :   energy convergence         0.5000000E-05 Eh   :
          :   grad. convergence          0.1000000E-02 Eh/α :
          :   maximium RF displ.         2.0000000          :
          :   Hlow (freq-cutoff)         0.5000000E-02      :
          :   Hmax (freq-cutoff)         5.0000000          :
          :   S6 in model hess.         20.0000000          :
          ...................................................

generating ANC from model Hessian ...
Using Lindh-Hessian (1995)
 Shifting diagonal of input Hessian by   6.069187070310044E-003
 Lowest  eigenvalues of input Hessian
    0.005000    0.006036    0.006060   -0.000000   -0.000000   -0.000000
    0.000000    0.000000    0.000000    0.006094    0.006140    0.006176
    0.006295    0.006308    0.006428    0.006537    0.006654    0.006816
 Highest eigenvalues
    2.251218    2.265673    2.266953    2.318187    2.372108    2.395120
 

........................................................................
.............................. CYCLE    1 ..............................
........................................................................
   1   -192.8855896 -0.192886E+03  0.126E-04    0.28       0.0  T
   2   -192.8855896  0.148243E-07  0.415E-04    0.28      24.5  T
   3   -192.8855896 -0.134687E-07  0.162E-04    0.28      62.6  T
     SCC iter.                  ...        0 min,  0.063 sec
     gradient                   ...        0 min,  0.183 sec
 * total energy  :  -190.4923426 Eh     change        0.3309177E-07 Eh
   gradient norm :     0.5630063 Eh/α   predicted     0.0000000E+00 (-100.00%)
   displ. norm   :     0.5687718 α      lambda       -0.2494354E+00
   maximum displ.:     0.1302357 α      in ANC's #97, #268, #149, ...

........................................................................
.............................. CYCLE    2 ..............................
........................................................................
   1   -193.2241815 -0.193224E+03  0.600E-01    0.39       0.0  T
   2   -193.1988809  0.253006E-01  0.600E-01    0.40       1.0  T
   3   -193.1426319  0.562490E-01  0.997E-01    0.41       1.0  T
   4   -193.2222168 -0.795849E-01  0.230E-01    0.39       1.0  T
   5   -193.2278932 -0.567643E-02  0.904E-02    0.38       1.0  T
   6   -193.2282432 -0.349997E-03  0.585E-02    0.38       1.0  T
   7   -193.2282442 -0.985984E-06  0.438E-02    0.39       1.0  T
   8   -193.2283135 -0.693329E-04  0.221E-02    0.38       1.0  T
   9   -193.2283653 -0.517424E-04  0.645E-03    0.38       1.6  T
  10   -193.2283670 -0.174767E-05  0.347E-03    0.38       2.9  T
  11   -193.2283674 -0.332187E-06  0.224E-03    0.38       4.5  T
     SCC iter.                  ...        0 min,  0.218 sec
     gradient                   ...        0 min,  0.171 sec
 * total energy  :  -190.6744822 Eh     change       -0.1821395E+00 Eh
   gradient norm :     0.2031509 Eh/α   predicted    -0.1650688E+00 (  -9.37%)
   displ. norm   :     0.6305380 α      lambda       -0.9876162E-01
   maximum displ.:     0.1892506 α      in ANC's #97, #38, #149, ...

........................................................................
.............................. CYCLE    3 ..............................
........................................................................
   1   -193.4164891 -0.193416E+03  0.624E-01    0.49       0.0  T
   2   -193.3876966  0.287925E-01  0.602E-01    0.39       1.0  T
   3   -193.3534123  0.342842E-01  0.875E-01    0.52       1.0  T
   4   -193.4158364 -0.624240E-01  0.204E-01    0.50       1.0  T
   5   -193.4204748 -0.463842E-02  0.744E-02    0.44       1.0  T
   6   -193.4207583 -0.283461E-03  0.468E-02    0.47       1.0  T
   7   -193.4207057  0.525741E-04  0.378E-02    0.46       1.0  T
   8   -193.4207583 -0.525780E-04  0.112E-02    0.47       1.0  T
   9   -193.4207697 -0.113737E-04  0.449E-03    0.47       2.3  T
  10   -193.4207707 -0.100818E-05  0.235E-03    0.47       4.3  T
  11   -193.4207706  0.236188E-07  0.155E-03    0.47       6.6  T
     SCC iter.                  ...        0 min,  0.219 sec
     gradient                   ...        0 min,  0.171 sec
 * total energy  :  -190.7440992 Eh     change       -0.6961700E-01 Eh
   gradient norm :     0.1351376 Eh/α   predicted    -0.6901364E-01 (  -0.87%)
   displ. norm   :     0.6713758 α      lambda       -0.4893655E-01
   maximum displ.:     0.2284043 α      in ANC's #38, #97, #40, ...

........................................................................
.............................. CYCLE    4 ..............................
........................................................................
   1   -193.4465051 -0.193447E+03  0.616E-01    0.53       0.0  T
   2   -193.4389716  0.753354E-02  0.403E-01    0.44       1.0  T
   3   -193.3993750  0.395966E-01  0.722E-01    0.56       1.0  T
   4   -193.4430966 -0.437217E-01  0.213E-01    0.57       1.0  T
   5   -193.4486940 -0.559743E-02  0.594E-02    0.50       1.0  T
   6   -193.4489094 -0.215369E-03  0.330E-02    0.52       1.0  T
   7   -193.4489159 -0.648330E-05  0.212E-02    0.51       1.0  T
   8   -193.4489356 -0.197259E-04  0.773E-03    0.51       1.3  T
   9   -193.4489406 -0.501089E-05  0.300E-03    0.51       3.4  T
  10   -193.4489411 -0.458929E-06  0.158E-03    0.51       6.4  T
     SCC iter.                  ...        0 min,  0.198 sec
     gradient                   ...        0 min,  0.171 sec
 * total energy  :  -190.7775315 Eh     change       -0.3343230E-01 Eh
   gradient norm :     0.0696636 Eh/α   predicted    -0.3549728E-01 (   6.18%)
   displ. norm   :     0.7977999 α      lambda       -0.2919272E-01
   maximum displ.:     0.3233355 α      in ANC's #29, #38, #32, ...

........................................................................
.............................. CYCLE    5 ..............................
........................................................................
   1   -193.4967138 -0.193497E+03  0.634E-01    0.55       0.0  T
   2   -193.4937726  0.294120E-02  0.366E-01    0.52       1.0  T
   3   -193.4612658  0.325068E-01  0.600E-01    0.56       1.0  T
   4   -193.4958468 -0.345810E-01  0.149E-01    0.57       1.0  T
   5   -193.4983187 -0.247194E-02  0.441E-02    0.53       1.0  T
   6   -193.4984169 -0.982092E-04  0.244E-02    0.56       1.0  T
   7   -193.4984387 -0.217847E-04  0.120E-02    0.54       1.0  T
   8   -193.4984472 -0.850181E-05  0.511E-03    0.55       2.0  T
   9   -193.4984495 -0.225932E-05  0.226E-03    0.55       4.5  T
  10   -193.4984496 -0.154665E-06  0.118E-03    0.55       8.6  T
     SCC iter.                  ...        0 min,  0.198 sec
     gradient                   ...        0 min,  0.171 sec
 * total energy  :  -190.7936604 Eh     change       -0.1612888E-01 Eh
   gradient norm :     0.0691494 Eh/α   predicted    -0.2388674E-01 (  48.10%)
   displ. norm   :     0.7586759 α      lambda       -0.2693553E-01
   maximum displ.:     0.3066952 α      in ANC's #38, #13, #48, ...

........................................................................
.............................. CYCLE    6 ..............................
........................................................................
   1   -193.5326755 -0.193533E+03  0.526E-01    0.62       0.0  T
   2   -193.5315318  0.114364E-02  0.292E-01    0.63       1.0  T
   3   -193.5116624  0.198694E-01  0.433E-01    0.59       1.0  T
   4   -193.5333805 -0.217181E-01  0.612E-02    0.63       1.0  T
   5   -193.5336224 -0.241915E-03  0.317E-02    0.63       1.0  T
   6   -193.5336535 -0.311298E-04  0.155E-02    0.63       1.0  T
   7   -193.5336670 -0.135320E-04  0.593E-03    0.63       1.7  T
   8   -193.5336692 -0.213321E-05  0.299E-03    0.63       3.4  T
   9   -193.5336696 -0.463920E-06  0.187E-03    0.63       5.4  T
     SCC iter.                  ...        0 min,  0.185 sec
     gradient                   ...        0 min,  0.171 sec
 * total energy  :  -190.8104794 Eh     change       -0.1681906E-01 Eh
   gradient norm :     0.0796925 Eh/α   predicted    -0.2121968E-01 (  26.16%)
   displ. norm   :     0.6863925 α      lambda       -0.1600133E-01
   maximum displ.:     0.2310299 α      in ANC's #38, #13, #29, ...

........................................................................
.............................. CYCLE    7 ..............................
........................................................................
   1   -193.5133983 -0.193513E+03  0.417E-01    0.66       0.0  T
   2   -193.5135052 -0.106916E-03  0.216E-01    0.68       1.0  T
   3   -193.5103037  0.320150E-02  0.181E-01    0.63       1.0  T
   4   -193.5136397 -0.333597E-02  0.480E-02    0.68       1.0  T
   5   -193.5138053 -0.165645E-03  0.258E-02    0.68       1.0  T
   6   -193.5138471 -0.417855E-04  0.962E-03    0.67       1.1  T
   7   -193.5138528 -0.569279E-05  0.361E-03    0.68       2.8  T
   8   -193.5138534 -0.553646E-06  0.195E-03    0.67       5.2  T
     SCC iter.                  ...        0 min,  0.159 sec
     gradient                   ...        0 min,  0.171 sec
 * total energy  :  -190.8221323 Eh     change       -0.1165291E-01 Eh
   gradient norm :     0.0719436 Eh/α   predicted    -0.1177006E-01 (   1.01%)
   displ. norm   :     0.7183533 α      lambda       -0.1445452E-01
   maximum displ.:     0.2447831 α      in ANC's #13, #29, #7, ...

........................................................................
.............................. CYCLE    8 ..............................
........................................................................
   1   -193.5256634 -0.193526E+03  0.397E-01    0.70       0.0  T
   2   -193.5256584  0.506922E-05  0.210E-01    0.74       1.0  T
   3   -193.5219527  0.370569E-02  0.198E-01    0.67       1.0  T
   4   -193.5259768 -0.402413E-02  0.450E-02    0.72       1.0  T
   5   -193.5261062 -0.129452E-03  0.255E-02    0.72       1.0  T
   6   -193.5261421 -0.358801E-04  0.905E-03    0.72       1.1  T
   7   -193.5261459 -0.382068E-05  0.457E-03    0.72       2.2  T
   8   -193.5261473 -0.135381E-05  0.229E-03    0.72       4.4  T
     SCC iter.                  ...        0 min,  0.159 sec
     gradient                   ...        0 min,  0.171 sec
 * total energy  :  -190.8331044 Eh     change       -0.1097204E-01 Eh
   gradient norm :     0.0672504 Eh/α   predicted    -0.1095676E-01 (  -0.14%)
   displ. norm   :     0.7674737 α      lambda       -0.1468834E-01
   maximum displ.:     0.2826891 α      in ANC's #13, #38, #29, ...

........................................................................
.............................. CYCLE    9 ..............................
........................................................................
   1   -193.5314945 -0.193531E+03  0.454E-01    0.70       0.0  T
   2   -193.5315345 -0.400139E-04  0.248E-01    0.74       1.0  T
   3   -193.5265597  0.497475E-02  0.224E-01    0.68       1.0  T
   4   -193.5320730 -0.551321E-02  0.422E-02    0.74       1.0  T
   5   -193.5321405 -0.675057E-04  0.291E-02    0.74       1.0  T
   6   -193.5322032 -0.627086E-04  0.995E-03    0.73       1.0  T
   7   -193.5322085 -0.536878E-05  0.524E-03    0.73       1.9  T
   8   -193.5322103 -0.180274E-05  0.237E-03    0.73       4.3  T
     SCC iter.                  ...        0 min,  0.159 sec
     gradient                   ...        0 min,  0.171 sec
 * total energy  :  -190.8399014 Eh     change       -0.6797062E-02 Eh
   gradient norm :     0.1116069 Eh/α   predicted    -0.1167001E-01 (  71.69%)
   displ. norm   :     0.6376109 α      lambda       -0.1641208E-01
   maximum displ.:     0.2318896 α      in ANC's #13, #7, #20, ...

........................................................................
.............................. CYCLE   10 ..............................
........................................................................
   1   -193.5678143 -0.193568E+03  0.408E-01    0.76       0.0  T
   2   -193.5678155 -0.125445E-05  0.223E-01    0.78       1.0  T
   3   -193.5638200  0.399554E-02  0.194E-01    0.74       1.0  T
   4   -193.5681898 -0.436982E-02  0.317E-02    0.77       1.0  T
   5   -193.5682507 -0.608694E-04  0.180E-02    0.77       1.0  T
   6   -193.5682665 -0.158685E-04  0.639E-03    0.77       1.6  T
   7   -193.5682691 -0.251039E-05  0.296E-03    0.77       3.4  T
   8   -193.5682697 -0.663289E-06  0.140E-03    0.77       7.2  T
     SCC iter.                  ...        0 min,  0.158 sec
     gradient                   ...        0 min,  0.171 sec
 * total energy  :  -190.8502333 Eh     change       -0.1033190E-01 Eh
   gradient norm :     0.0317214 Eh/α   predicted    -0.1154219E-01 (  11.71%)
   displ. norm   :     0.7894165 α      lambda       -0.1014290E-01
   maximum displ.:     0.3103584 α      in ANC's #13, #7, #20, ...

........................................................................
.............................. CYCLE   11 ..............................
........................................................................
   1   -193.5498420 -0.193550E+03  0.492E-01    0.77       0.0  T
   2   -193.5498988 -0.568560E-04  0.258E-01    0.81       1.0  T
   3   -193.5461466  0.375219E-02  0.185E-01    0.74       1.0  T
   4   -193.5502405 -0.409387E-02  0.301E-02    0.79       1.0  T
   5   -193.5502391  0.136958E-05  0.233E-02    0.80       1.0  T
   6   -193.5502791 -0.399938E-04  0.635E-03    0.79       1.6  T
   7   -193.5502808 -0.168945E-05  0.335E-03    0.79       3.0  T
   8   -193.5502814 -0.546894E-06  0.159E-03    0.79       6.4  T
     SCC iter.                  ...        0 min,  0.159 sec
     gradient                   ...        0 min,  0.171 sec
 * total energy  :  -190.8573794 Eh     change       -0.7146114E-02 Eh
   gradient norm :     0.0643314 Eh/α   predicted    -0.8231868E-02 (  15.19%)
   displ. norm   :     0.7510101 α      lambda       -0.1018578E-01
   maximum displ.:     0.3060628 α      in ANC's #13, #7, #29, ...

........................................................................
.............................. CYCLE   12 ..............................
........................................................................
   1   -193.5655802 -0.193566E+03  0.375E-01    0.79       0.0  T
   2   -193.5657089 -0.128712E-03  0.197E-01    0.82       1.0  T
   3   -193.5644389  0.127002E-02  0.109E-01    0.78       1.0  T
   4   -193.5658273 -0.138842E-02  0.272E-02    0.82       1.0  T
   5   -193.5658427 -0.154021E-04  0.206E-02    0.82       1.0  T
   6   -193.5658765 -0.337958E-04  0.617E-03    0.82       1.6  T
   7   -193.5658777 -0.122624E-05  0.366E-03    0.82       2.8  T
   8   -193.5658785 -0.788133E-06  0.173E-03    0.82       5.9  T
     SCC iter.                  ...        0 min,  0.159 sec
     gradient                   ...        0 min,  0.172 sec
 * total energy  :  -190.8651444 Eh     change       -0.7764980E-02 Eh
   gradient norm :     0.0521859 Eh/α   predicted    -0.7965363E-02 (   2.58%)
   displ. norm   :     0.7447779 α      lambda       -0.1061213E-01
   maximum displ.:     0.2980806 α      in ANC's #20, #13, #7, ...

........................................................................
.............................. CYCLE   13 ..............................
........................................................................
   1   -193.6221782 -0.193622E+03  0.342E-01    0.82       0.0  T
   2   -193.6223391 -0.160834E-03  0.188E-01    0.83       1.0  T
   3   -193.6209415  0.139760E-02  0.121E-01    0.82       1.0  T
   4   -193.6225652 -0.162374E-02  0.252E-02    0.84       1.0  T
   5   -193.6225777 -0.124945E-04  0.187E-02    0.84       1.0  T
   6   -193.6226003 -0.226596E-04  0.661E-03    0.84       1.5  T
   7   -193.6226013 -0.910453E-06  0.460E-03    0.84       2.2  T
   8   -193.6226028 -0.153759E-05  0.186E-03    0.84       5.5  T
     SCC iter.                  ...        0 min,  0.160 sec
     gradient                   ...        0 min,  0.171 sec
 * total energy  :  -190.8689640 Eh     change       -0.3819619E-02 Eh
   gradient norm :     0.1134382 Eh/α   predicted    -0.8249317E-02 ( 115.97%)
   displ. norm   :     0.6140062 α      lambda       -0.1159634E-01
   maximum displ.:     0.2315665 α      in ANC's #7, #13, #29, ...

........................................................................
.............................. CYCLE   14 ..............................
........................................................................
   1   -193.6021336 -0.193602E+03  0.319E-01    0.83       0.0  T
   2   -193.6021166  0.169931E-04  0.176E-01    0.86       1.0  T
   3   -193.5995680  0.254865E-02  0.156E-01    0.81       1.0  T
   4   -193.6024266 -0.285860E-02  0.227E-02    0.84       1.0  T
   5   -193.6024393 -0.127134E-04  0.159E-02    0.84       1.0  T
   6   -193.6024553 -0.159795E-04  0.397E-03    0.84       2.6  T
   7   -193.6024554 -0.151678E-06  0.248E-03    0.84       4.1  T
   8   -193.6024558 -0.383729E-06  0.119E-03    0.84       8.6  T
     SCC iter.                  ...        0 min,  0.159 sec
     gradient                   ...        0 min,  0.172 sec
 * total energy  :  -190.8767647 Eh     change       -0.7800612E-02 Eh
   gradient norm :     0.0388030 Eh/α   predicted    -0.7984111E-02 (   2.35%)
   displ. norm   :     0.7887980 α      lambda       -0.8173116E-02
   maximum displ.:     0.3172327 α      in ANC's #13, #7, #20, ...

........................................................................
.............................. CYCLE   15 ..............................
........................................................................
   1   -193.5658120 -0.193566E+03  0.470E-01    0.84       0.0  T
   2   -193.5659210 -0.109039E-03  0.241E-01    0.86       1.0  T
   3   -193.5638060  0.211497E-02  0.158E-01    0.82       1.0  T
   4   -193.5661704 -0.236434E-02  0.346E-02    0.85       1.0  T
   5   -193.5661663  0.402596E-05  0.276E-02    0.85       1.0  T
   6   -193.5662367 -0.703372E-04  0.603E-03    0.85       1.7  T
   7   -193.5662380 -0.131765E-05  0.350E-03    0.85       2.9  T
   8   -193.5662384 -0.391666E-06  0.196E-03    0.85       5.2  T
     SCC iter.                  ...        0 min,  0.159 sec
     gradient                   ...        0 min,  0.171 sec
 * total energy  :  -190.8807037 Eh     change       -0.3939082E-02 Eh
   gradient norm :     0.0676958 Eh/α   predicted    -0.6629230E-02 (  68.29%)
   displ. norm   :     0.6079028 α      lambda       -0.9059577E-02
   maximum displ.:     0.2352964 α      in ANC's #7, #20, #29, ...

........................................................................
.............................. CYCLE   16 ..............................
........................................................................
   1   -193.5952403 -0.193595E+03  0.220E-01    0.85       0.0  T
   2   -193.5953131 -0.728290E-04  0.123E-01    0.87       1.0  T
   3   -193.5948484  0.464716E-03  0.786E-02    0.85       1.0  T
   4   -193.5954192 -0.570769E-03  0.203E-02    0.87       1.0  T
   5   -193.5954259 -0.670433E-05  0.158E-02    0.86       1.0  T
   6   -193.5954431 -0.172606E-04  0.432E-03    0.86       2.4  T
   7   -193.5954437 -0.566071E-06  0.301E-03    0.86       3.4  T
   8   -193.5954442 -0.502228E-06  0.154E-03    0.86       6.6  T
     SCC iter.                  ...        0 min,  0.159 sec
     gradient                   ...        0 min,  0.172 sec
 * total energy  :  -190.8859501 Eh     change       -0.5246366E-02 Eh
   gradient norm :     0.0693957 Eh/α   predicted    -0.6203762E-02 (  18.25%)
   displ. norm   :     0.6581812 α      lambda       -0.9896761E-02
   maximum displ.:     0.2612721 α      in ANC's #7, #13, #9, ...

........................................................................
.............................. CYCLE   17 ..............................
........................................................................
   1   -193.6223482 -0.193622E+03  0.298E-01    0.87       0.0  T
   2   -193.6225570 -0.208737E-03  0.164E-01    0.88       1.0  T
   3   -193.6219869  0.570065E-03  0.868E-02    0.88       1.0  T
   4   -193.6226521 -0.665149E-03  0.318E-02    0.88       1.0  T
   5   -193.6226827 -0.306157E-04  0.177E-02    0.88       1.0  T
   6   -193.6227005 -0.178457E-04  0.747E-03    0.88       1.4  T
   7   -193.6227026 -0.205127E-05  0.426E-03    0.88       2.4  T
   8   -193.6227035 -0.931429E-06  0.259E-03    0.88       3.9  T
     SCC iter.                  ...        0 min,  0.160 sec
     gradient                   ...        0 min,  0.172 sec
 * total energy  :  -190.8888987 Eh     change       -0.2948561E-02 Eh
   gradient norm :     0.0760016 Eh/α   predicted    -0.7092041E-02 ( 140.53%)
   displ. norm   :     0.5454806 α      lambda       -0.9389180E-02
   maximum displ.:     0.2091977 α      in ANC's #20, #7, #9, ...

........................................................................
.............................. CYCLE   18 ..............................
........................................................................
   1   -193.6308351 -0.193631E+03  0.408E-01    0.87       0.0  T
   2   -193.6309137 -0.786765E-04  0.209E-01    0.88       1.0  T
   3   -193.6296931  0.122064E-02  0.126E-01    0.86       1.0  T
   4   -193.6311235 -0.143042E-02  0.314E-02    0.88       1.0  T
   5   -193.6311042  0.193286E-04  0.238E-02    0.87       1.0  T
   6   -193.6311450 -0.407907E-04  0.896E-03    0.88       1.1  T
   7   -193.6311480 -0.302015E-05  0.537E-03    0.88       1.9  T
   8   -193.6311499 -0.194129E-05  0.214E-03    0.88       4.7  T
     SCC iter.                  ...        0 min,  0.160 sec
     gradient                   ...        0 min,  0.172 sec
 * total energy  :  -190.8945007 Eh     change       -0.5601998E-02 Eh
   gradient norm :     0.0406989 Eh/α   predicted    -0.6091456E-02 (   8.74%)
   displ. norm   :     0.7091519 α      lambda       -0.8074461E-02
   maximum displ.:     0.2940063 α      in ANC's #7, #13, #20, ...

........................................................................
.............................. CYCLE   19 ..............................
........................................................................
   1   -193.6003360 -0.193600E+03  0.352E-01    0.88       0.0  T
   2   -193.6004891 -0.153116E-03  0.187E-01    0.90       1.0  T
   3   -193.5988396  0.164956E-02  0.129E-01    0.86       1.0  T
   4   -193.6007658 -0.192626E-02  0.369E-02    0.90       1.0  T
   5   -193.6008149 -0.490515E-04  0.250E-02    0.89       1.0  T
   6   -193.6008566 -0.416704E-04  0.663E-03    0.89       1.5  T
   7   -193.6008573 -0.782967E-06  0.432E-03    0.89       2.4  T
   8   -193.6008583 -0.100433E-05  0.201E-03    0.89       5.0  T
     SCC iter.                  ...        0 min,  0.160 sec
     gradient                   ...        0 min,  0.172 sec
 * total energy  :  -190.8972507 Eh     change       -0.2749991E-02 Eh
   gradient norm :     0.0617540 Eh/α   predicted    -0.6067541E-02 ( 120.64%)
   displ. norm   :     0.5770013 α      lambda       -0.7539180E-02
   maximum displ.:     0.2383341 α      in ANC's #7, #20, #9, ...

........................................................................
.............................. CYCLE   20 ..............................
........................................................................
   1   -193.6109012 -0.193611E+03  0.268E-01    0.89       0.0  T
   2   -193.6109635 -0.622494E-04  0.143E-01    0.88       1.0  T
   3   -193.6103170  0.646424E-03  0.897E-02    0.88       1.0  T
   4   -193.6110869 -0.769900E-03  0.181E-02    0.88       1.0  T
   5   -193.6110899 -0.296207E-05  0.114E-02    0.88       1.0  T
   6   -193.6110953 -0.535704E-05  0.397E-03    0.88       2.6  T
   7   -193.6110957 -0.406523E-06  0.234E-03    0.88       4.3  T
     SCC iter.                  ...        0 min,  0.140 sec
     gradient                   ...        0 min,  0.172 sec
 * total energy  :  -190.9027141 Eh     change       -0.5463432E-02 Eh
   gradient norm :     0.0411069 Eh/α   predicted    -0.5024603E-02 (  -8.03%)
   displ. norm   :     0.6612154 α      lambda       -0.6875994E-02
   maximum displ.:     0.2710506 α      in ANC's #7, #9, #20, ...
 * RMSD in coord.:     1.1072174 α      energy gain  -0.4103714E+00 Eh

generating ANC from model Hessian ...
Using Lindh-Hessian (1995)
 Shifting diagonal of input Hessian by   5.036876494098465E-003
 Lowest  eigenvalues of input Hessian
    0.005000    0.005026   -0.000000   -0.000000   -0.000000    0.000000
    0.000000    0.000000    0.005042    0.005124    0.005213    0.005235
    0.005330    0.005387    0.005618    0.005688    0.006087    0.006243
 Highest eigenvalues
    2.256490    2.286891    2.604809    2.613984    2.684677    2.685410
 

........................................................................
.............................. CYCLE   21 ..............................
........................................................................
   1   -193.6698703 -0.193670E+03  0.243E-01    0.89       0.0  T
   2   -193.6699573 -0.869686E-04  0.130E-01    0.90       1.0  T
   3   -193.6695926  0.364733E-03  0.686E-02    0.90       1.0  T
   4   -193.6700161 -0.423499E-03  0.197E-02    0.90       1.0  T
   5   -193.6700221 -0.606483E-05  0.115E-02    0.91       1.0  T
   6   -193.6700314 -0.929181E-05  0.471E-03    0.90       2.2  T
   7   -193.6700330 -0.160594E-05  0.219E-03    0.90       4.6  T
   8   -193.6700332 -0.207055E-06  0.131E-03    0.90       7.8  T
   9   -193.6700333 -0.321927E-07  0.657E-04    0.90      15.4  T
  10   -193.6700333 -0.196465E-07  0.286E-04    0.90      35.5  T
     SCC iter.                  ...        0 min,  0.198 sec
     gradient                   ...        0 min,  0.184 sec
 * total energy  :  -190.9061263 Eh     change       -0.3412195E-02 Eh
   gradient norm :     0.0634077 Eh/α   predicted     0.0000000E+00 (-100.00%)
   displ. norm   :     0.5326880 α      lambda       -0.6635627E-02
   maximum displ.:     0.2938446 α      in ANC's #7, #18, #4, ...

........................................................................
.............................. CYCLE   22 ..............................
........................................................................
   1   -193.6461788 -0.193646E+03  0.228E-01    0.90       0.0  T
   2   -193.6462371 -0.582915E-04  0.123E-01    0.90       1.0  T
   3   -193.6459947  0.242373E-03  0.509E-02    0.89       1.0  T
   4   -193.6462655 -0.270777E-03  0.143E-02    0.90       1.0  T
   5   -193.6462716 -0.609757E-05  0.879E-03    0.89       1.2  T
   6   -193.6462767 -0.514555E-05  0.308E-03    0.90       3.3  T
   7   -193.6462773 -0.575916E-06  0.154E-03    0.90       6.6  T
     SCC iter.                  ...        0 min,  0.140 sec
     gradient                   ...        0 min,  0.172 sec
 * total energy  :  -190.9110267 Eh     change       -0.4900375E-02 Eh
   gradient norm :     0.0216053 Eh/α   predicted    -0.4259314E-02 ( -13.08%)
   displ. norm   :     0.5865561 α      lambda       -0.4402391E-02
   maximum displ.:     0.2925192 α      in ANC's #7, #18, #19, ...

........................................................................
.............................. CYCLE   23 ..............................
........................................................................
   1   -193.6363769 -0.193636E+03  0.236E-01    0.89       0.0  T
   2   -193.6364288 -0.519729E-04  0.128E-01    0.90       1.0  T
   3   -193.6361027  0.326150E-03  0.563E-02    0.88       1.0  T
   4   -193.6364656 -0.362926E-03  0.140E-02    0.89       1.0  T
   5   -193.6364731 -0.748377E-05  0.839E-03    0.89       1.2  T
   6   -193.6364773 -0.419456E-05  0.263E-03    0.89       3.9  T
   7   -193.6364777 -0.441263E-06  0.126E-03    0.89       8.1  T
     SCC iter.                  ...        0 min,  0.142 sec
     gradient                   ...        0 min,  0.172 sec
 * total energy  :  -190.9145411 Eh     change       -0.3514426E-02 Eh
   gradient norm :     0.0346333 Eh/α   predicted    -0.2958515E-02 ( -15.82%)
   displ. norm   :     0.7828670 α      lambda       -0.5733362E-02
   maximum displ.:     0.4074687 α      in ANC's #7, #18, #4, ...

........................................................................
.............................. CYCLE   24 ..............................
........................................................................
   1   -193.6341693 -0.193634E+03  0.288E-01    0.90       0.0  T
   2   -193.6342456 -0.762486E-04  0.159E-01    0.90       1.0  T
   3   -193.6335263  0.719283E-03  0.809E-02    0.87       1.0  T
   4   -193.6343183 -0.792075E-03  0.184E-02    0.90       1.0  T
   5   -193.6343337 -0.153846E-04  0.107E-02    0.89       1.0  T
   6   -193.6343396 -0.589545E-05  0.332E-03    0.89       3.1  T
   7   -193.6343402 -0.590167E-06  0.159E-03    0.89       6.4  T
     SCC iter.                  ...        0 min,  0.141 sec
     gradient                   ...        0 min,  0.172 sec
 * total energy  :  -190.9186871 Eh     change       -0.4145973E-02 Eh
   gradient norm :     0.0408730 Eh/α   predicted    -0.4623622E-02 (  11.52%)
   displ. norm   :     0.7232974 α      lambda       -0.6062696E-02
   maximum displ.:     0.3890356 α      in ANC's #7, #18, #4, ...

........................................................................
.............................. CYCLE   25 ..............................
........................................................................
   1   -193.6430211 -0.193643E+03  0.262E-01    0.89       0.0  T
   2   -193.6430846 -0.635383E-04  0.145E-01    0.90       1.0  T
   3   -193.6423758  0.708854E-03  0.805E-02    0.87       1.0  T
   4   -193.6431635 -0.787669E-03  0.158E-02    0.90       1.0  T
   5   -193.6431760 -0.124913E-04  0.975E-03    0.89       1.0  T
   6   -193.6431806 -0.463922E-05  0.305E-03    0.90       3.3  T
   7   -193.6431810 -0.416631E-06  0.151E-03    0.90       6.7  T
     SCC iter.                  ...        0 min,  0.141 sec
     gradient                   ...        0 min,  0.172 sec
 * total energy  :  -190.9231672 Eh     change       -0.4480140E-02 Eh
   gradient norm :     0.0303820 Eh/α   predicted    -0.4617228E-02 (   3.06%)
   displ. norm   :     0.7036674 α      lambda       -0.6187689E-02
   maximum displ.:     0.4136227 α      in ANC's #7, #18, #4, ...

........................................................................
.............................. CYCLE   26 ..............................
........................................................................
   1   -193.6716342 -0.193672E+03  0.235E-01    0.90       0.0  T
   2   -193.6716883 -0.540743E-04  0.130E-01    0.91       1.0  T
   3   -193.6712351  0.453170E-03  0.705E-02    0.89       1.0  T
   4   -193.6717462 -0.511094E-03  0.147E-02    0.90       1.0  T
   5   -193.6717546 -0.836209E-05  0.108E-02    0.90       1.0  T
   6   -193.6717614 -0.680359E-05  0.298E-03    0.90       3.4  T
   7   -193.6717617 -0.321533E-06  0.160E-03    0.90       6.3  T
   8   -193.6717618 -0.117775E-06  0.901E-04    0.90      11.3  T
     SCC iter.                  ...        0 min,  0.160 sec
     gradient                   ...        0 min,  0.172 sec
 * total energy  :  -190.9278393 Eh     change       -0.4672103E-02 Eh
   gradient norm :     0.0368859 Eh/α   predicted    -0.4625764E-02 (  -0.99%)
   displ. norm   :     0.8271608 α      lambda       -0.6069899E-02
   maximum displ.:     0.4587379 α      in ANC's #7, #18, #4, ...

........................................................................
.............................. CYCLE   27 ..............................
........................................................................
   1   -193.6619688 -0.193662E+03  0.292E-01    0.89       0.0  T
   2   -193.6620752 -0.106396E-03  0.162E-01    0.91       1.0  T
   3   -193.6615033  0.571898E-03  0.746E-02    0.88       1.0  T
   4   -193.6621349 -0.631574E-03  0.160E-02    0.90       1.0  T
   5   -193.6621465 -0.116161E-04  0.106E-02    0.90       1.0  T
   6   -193.6621538 -0.730347E-05  0.322E-03    0.90       3.2  T
   7   -193.6621541 -0.264059E-06  0.158E-03    0.90       6.4  T
   8   -193.6621542 -0.695433E-07  0.885E-04    0.90      11.5  T
     SCC iter.                  ...        0 min,  0.160 sec
     gradient                   ...        0 min,  0.172 sec
 * total energy  :  -190.9316829 Eh     change       -0.3843628E-02 Eh
   gradient norm :     0.0679619 Eh/α   predicted    -0.5111453E-02 (  32.99%)
   displ. norm   :     0.6854378 α      lambda       -0.5703551E-02
   maximum displ.:     0.3848424 α      in ANC's #7, #18, #4, ...

........................................................................
.............................. CYCLE   28 ..............................
........................................................................
   1   -193.6597890 -0.193660E+03  0.218E-01    0.89       0.0  T
   2   -193.6598258 -0.368445E-04  0.121E-01    0.90       1.0  T
   3   -193.6593414  0.484412E-03  0.689E-02    0.88       1.0  T
   4   -193.6598779 -0.536486E-03  0.131E-02    0.90       1.0  T
   5   -193.6598816 -0.372140E-05  0.102E-02    0.89       1.0  T
   6   -193.6598883 -0.665898E-05  0.214E-03    0.90       4.8  T
   7   -193.6598884 -0.958395E-07  0.121E-03    0.90       8.4  T
   8   -193.6598884 -0.320111E-07  0.679E-04    0.90      15.0  T
     SCC iter.                  ...        0 min,  0.160 sec
     gradient                   ...        0 min,  0.172 sec
 * total energy  :  -190.9359116 Eh     change       -0.4228658E-02 Eh
   gradient norm :     0.0357993 Eh/α   predicted    -0.4191617E-02 (  -0.88%)
   displ. norm   :     0.6997532 α      lambda       -0.5443237E-02
   maximum displ.:     0.4159313 α      in ANC's #7, #18, #4, ...

........................................................................
.............................. CYCLE   29 ..............................
........................................................................
   1   -193.6897509 -0.193690E+03  0.215E-01    0.89       0.0  T
   2   -193.6898157 -0.647930E-04  0.119E-01    0.89       1.0  T
   3   -193.6895847  0.230943E-03  0.524E-02    0.89       1.0  T
   4   -193.6898529 -0.268185E-03  0.127E-02    0.90       1.0  T
   5   -193.6898596 -0.669438E-05  0.711E-03    0.89       1.4  T
   6   -193.6898616 -0.195554E-05  0.304E-03    0.89       3.3  T
   7   -193.6898621 -0.569256E-06  0.142E-03    0.89       7.2  T
     SCC iter.                  ...        0 min,  0.140 sec
     gradient                   ...        0 min,  0.172 sec
 * total energy  :  -190.9394343 Eh     change       -0.3522752E-02 Eh
   gradient norm :     0.0501745 Eh/α   predicted    -0.4054273E-02 (  15.09%)
   displ. norm   :     0.8145384 α      lambda       -0.5450031E-02
   maximum displ.:     0.4643491 α      in ANC's #7, #18, #4, ...

........................................................................
.............................. CYCLE   30 ..............................
........................................................................
   1   -193.6738044 -0.193674E+03  0.266E-01    0.90       0.0  T
   2   -193.6738586 -0.541829E-04  0.149E-01    0.91       1.0  T
   3   -193.6731840  0.674540E-03  0.799E-02    0.89       1.0  T
   4   -193.6739276 -0.743592E-03  0.132E-02    0.90       1.0  T
   5   -193.6739316 -0.393872E-05  0.891E-03    0.90       1.1  T
   6   -193.6739370 -0.548692E-05  0.265E-03    0.90       3.8  T
   7   -193.6739374 -0.333739E-06  0.150E-03    0.90       6.8  T
     SCC iter.                  ...        0 min,  0.141 sec
     gradient                   ...        0 min,  0.172 sec
 * total energy  :  -190.9435097 Eh     change       -0.4075333E-02 Eh
   gradient norm :     0.0288562 Eh/α   predicted    -0.4532990E-02 (  11.23%)
   displ. norm   :     0.7735657 α      lambda       -0.4975581E-02
   maximum displ.:     0.4470744 α      in ANC's #7, #18, #4, ...

........................................................................
.............................. CYCLE   31 ..............................
........................................................................
   1   -193.6770622 -0.193677E+03  0.287E-01    0.90       0.0  T
   2   -193.6771559 -0.936885E-04  0.158E-01    0.91       1.0  T
   3   -193.6770663  0.895998E-04  0.377E-02    0.90       1.0  T
   4   -193.6771860 -0.119698E-03  0.134E-02    0.91       1.0  T
   5   -193.6771923 -0.625997E-05  0.768E-03    0.90       1.3  T
   6   -193.6771964 -0.413950E-05  0.291E-03    0.91       3.5  T
   7   -193.6771969 -0.503746E-06  0.145E-03    0.91       7.0  T
     SCC iter.                  ...        0 min,  0.141 sec
     gradient                   ...        0 min,  0.172 sec
 * total energy  :  -190.9469072 Eh     change       -0.3397575E-02 Eh
   gradient norm :     0.0475937 Eh/α   predicted    -0.3976503E-02 (  17.04%)
   displ. norm   :     0.7396537 α      lambda       -0.4559322E-02
   maximum displ.:     0.4321731 α      in ANC's #7, #18, #4, ...

........................................................................
.............................. CYCLE   32 ..............................
........................................................................
   1   -193.6844134 -0.193684E+03  0.199E-01    0.91       0.0  T
   2   -193.6844473 -0.339641E-04  0.110E-01    0.91       1.0  T
   3   -193.6842323  0.215035E-03  0.480E-02    0.90       1.0  T
   4   -193.6844734 -0.241142E-03  0.123E-02    0.91       1.0  T
   5   -193.6844765 -0.311044E-05  0.857E-03    0.91       1.2  T
   6   -193.6844812 -0.468184E-05  0.245E-03    0.91       4.1  T
   7   -193.6844816 -0.401410E-06  0.117E-03    0.91       8.7  T
     SCC iter.                  ...        0 min,  0.140 sec
     gradient                   ...        0 min,  0.172 sec
 * total energy  :  -190.9506022 Eh     change       -0.3694969E-02 Eh
   gradient norm :     0.0198043 Eh/α   predicted    -0.3526841E-02 (  -4.55%)
   displ. norm   :     0.7394470 α      lambda       -0.4975900E-02
   maximum displ.:     0.4284641 α      in ANC's #7, #4, #2, ...

........................................................................
.............................. CYCLE   33 ..............................
........................................................................
   1   -193.7241984 -0.193724E+03  0.211E-01    0.92       0.0  T
   2   -193.7242701 -0.716956E-04  0.117E-01    0.92       1.0  T
   3   -193.7240902  0.179835E-03  0.452E-02    0.93       1.0  T
   4   -193.7242909 -0.200680E-03  0.152E-02    0.93       1.0  T
   5   -193.7243018 -0.109031E-04  0.861E-03    0.93       1.2  T
   6   -193.7243056 -0.380500E-05  0.371E-03    0.93       2.7  T
   7   -193.7243065 -0.842914E-06  0.145E-03    0.93       7.0  T
   8   -193.7243065 -0.695785E-07  0.816E-04    0.93      12.4  T
     SCC iter.                  ...        0 min,  0.159 sec
     gradient                   ...        0 min,  0.172 sec
 * total energy  :  -190.9519394 Eh     change       -0.1337210E-02 Eh
   gradient norm :     0.0698144 Eh/α   predicted    -0.3848346E-02 ( 187.79%)
   displ. norm   :     0.6070927 α      lambda       -0.6417656E-02
   maximum displ.:     0.3382632 α      in ANC's #7, #18, #4, ...

........................................................................
.............................. CYCLE   34 ..............................
........................................................................
   1   -193.7007705 -0.193701E+03  0.179E-01    0.92       0.0  T
   2   -193.7008062 -0.357302E-04  0.101E-01    0.93       1.0  T
   3   -193.7005146  0.291583E-03  0.548E-02    0.91       1.0  T
   4   -193.7008383 -0.323701E-03  0.996E-03    0.93       1.0  T
   5   -193.7008391 -0.809240E-06  0.726E-03    0.92       1.4  T
   6   -193.7008427 -0.360022E-05  0.235E-03    0.93       4.3  T
   7   -193.7008429 -0.193602E-06  0.985E-04    0.93      10.3  T
     SCC iter.                  ...        0 min,  0.140 sec
     gradient                   ...        0 min,  0.172 sec
 * total energy  :  -190.9562069 Eh     change       -0.4267475E-02 Eh
   gradient norm :     0.0175709 Eh/α   predicted    -0.4391484E-02 (   2.91%)
   displ. norm   :     0.8267517 α      lambda       -0.3891793E-02
   maximum displ.:     0.4827855 α      in ANC's #7, #18, #4, ...

........................................................................
.............................. CYCLE   35 ..............................
........................................................................
   1   -193.6940623 -0.193694E+03  0.230E-01    0.93       0.0  T
   2   -193.6941116 -0.492707E-04  0.128E-01    0.93       1.0  T
   3   -193.6939969  0.114624E-03  0.366E-02    0.92       1.0  T
   4   -193.6941280 -0.131081E-03  0.135E-02    0.93       1.0  T
   5   -193.6941353 -0.729364E-05  0.665E-03    0.93       1.5  T
   6   -193.6941379 -0.257943E-05  0.294E-03    0.93       3.4  T
   7   -193.6941385 -0.630739E-06  0.137E-03    0.93       7.4  T
     SCC iter.                  ...        0 min,  0.140 sec
     gradient                   ...        0 min,  0.173 sec
 * total energy  :  -190.9588923 Eh     change       -0.2685425E-02 Eh
   gradient norm :     0.0295141 Eh/α   predicted    -0.3275962E-02 (  21.99%)
   displ. norm   :     0.7923194 α      lambda       -0.4040932E-02
   maximum displ.:     0.4636636 α      in ANC's #7, #4, #18, ...

........................................................................
.............................. CYCLE   36 ..............................
........................................................................
   1   -193.6954389 -0.193695E+03  0.205E-01    0.93       0.0  T
   2   -193.6954773 -0.384351E-04  0.114E-01    0.94       1.0  T
   3   -193.6953821  0.951831E-04  0.360E-02    0.93       1.0  T
   4   -193.6954926 -0.110438E-03  0.116E-02    0.94       1.0  T
   5   -193.6954966 -0.405389E-05  0.606E-03    0.94       1.7  T
   6   -193.6954984 -0.178057E-05  0.253E-03    0.94       4.0  T
   7   -193.6954988 -0.355409E-06  0.966E-04    0.94      10.5  T
     SCC iter.                  ...        0 min,  0.140 sec
     gradient                   ...        0 min,  0.172 sec
 * total energy  :  -190.9618955 Eh     change       -0.3003145E-02 Eh
   gradient norm :     0.0213906 Eh/α   predicted    -0.3288859E-02 (   9.51%)
   displ. norm   :     0.6912871 α      lambda       -0.3408224E-02
   maximum displ.:     0.4154696 α      in ANC's #7, #4, #2, ...

........................................................................
.............................. CYCLE   37 ..............................
........................................................................
   1   -193.7175202 -0.193718E+03  0.187E-01    0.94       0.0  T
   2   -193.7175555 -0.353371E-04  0.103E-01    0.94       1.0  T
   3   -193.7174254  0.130193E-03  0.373E-02    0.94       1.0  T
   4   -193.7175681 -0.142745E-03  0.126E-02    0.95       1.0  T
   5   -193.7175744 -0.629437E-05  0.704E-03    0.94       1.4  T
   6   -193.7175774 -0.305722E-05  0.251E-03    0.94       4.0  T
   7   -193.7175778 -0.362358E-06  0.121E-03    0.94       8.4  T
     SCC iter.                  ...        0 min,  0.140 sec
     gradient                   ...        0 min,  0.172 sec
 * total energy  :  -190.9644480 Eh     change       -0.2552511E-02 Eh
   gradient norm :     0.0365252 Eh/α   predicted    -0.2518478E-02 (  -1.33%)
   displ. norm   :     0.8030061 α      lambda       -0.3543145E-02
   maximum displ.:     0.4762452 α      in ANC's #7, #4, #18, ...

........................................................................
.............................. CYCLE   38 ..............................
........................................................................
   1   -193.7124077 -0.193712E+03  0.232E-01    0.95       0.0  T
   2   -193.7124537 -0.460020E-04  0.129E-01    0.95       1.0  T
   3   -193.7122734  0.180286E-03  0.463E-02    0.95       1.0  T
   4   -193.7124811 -0.207654E-03  0.128E-02    0.95       1.0  T
   5   -193.7124844 -0.329892E-05  0.703E-03    0.95       1.4  T
   6   -193.7124874 -0.302413E-05  0.256E-03    0.95       4.0  T
   7   -193.7124878 -0.377121E-06  0.141E-03    0.95       7.2  T
     SCC iter.                  ...        0 min,  0.140 sec
     gradient                   ...        0 min,  0.172 sec
 * total energy  :  -190.9673116 Eh     change       -0.2863584E-02 Eh
   gradient norm :     0.0168746 Eh/α   predicted    -0.2913922E-02 (   1.76%)
   displ. norm   :     0.8270347 α      lambda       -0.3104140E-02
   maximum displ.:     0.4764621 α      in ANC's #7, #2, #4, ...

........................................................................
.............................. CYCLE   39 ..............................
........................................................................
   1   -193.7219969 -0.193722E+03  0.222E-01    0.96       0.0  T
   2   -193.7220261 -0.291310E-04  0.125E-01    0.96       1.0  T
   3   -193.7215461  0.479998E-03  0.662E-02    0.96       1.0  T
   4   -193.7220738 -0.527732E-03  0.137E-02    0.96       1.0  T
   5   -193.7220771 -0.326110E-05  0.870E-03    0.96       1.2  T
   6   -193.7220815 -0.440625E-05  0.280E-03    0.96       3.6  T
   7   -193.7220818 -0.366480E-06  0.141E-03    0.96       7.2  T
   8   -193.7220819 -0.638178E-07  0.784E-04    0.96      12.9  T
     SCC iter.                  ...        0 min,  0.159 sec
     gradient                   ...        0 min,  0.172 sec
 * total energy  :  -190.9698419 Eh     change       -0.2530329E-02 Eh
   gradient norm :     0.0178655 Eh/α   predicted    -0.2613675E-02 (   3.29%)
   displ. norm   :     0.8690492 α      lambda       -0.2864836E-02
   maximum displ.:     0.5344638 α      in ANC's #7, #4, #2, ...

........................................................................
.............................. CYCLE   40 ..............................
........................................................................
   1   -193.7096881 -0.193710E+03  0.238E-01    0.96       0.0  T
   2   -193.7097314 -0.433569E-04  0.132E-01    0.96       1.0  T
   3   -193.7095987  0.132717E-03  0.408E-02    0.96       1.0  T
   4   -193.7097500 -0.151317E-03  0.145E-02    0.97       1.0  T
   5   -193.7097560 -0.594432E-05  0.743E-03    0.96       1.4  T
   6   -193.7097596 -0.367881E-05  0.245E-03    0.96       4.1  T
   7   -193.7097599 -0.275266E-06  0.139E-03    0.96       7.3  T
   8   -193.7097600 -0.387830E-07  0.795E-04    0.96      12.8  T
     SCC iter.                  ...        0 min,  0.159 sec
     gradient                   ...        0 min,  0.172 sec
 * total energy  :  -190.9722199 Eh     change       -0.2377974E-02 Eh
   gradient norm :     0.0188504 Eh/α   predicted    -0.2514263E-02 (   5.73%)
   displ. norm   :     0.7678454 α      lambda       -0.3291592E-02
   maximum displ.:     0.4012321 α      in ANC's #7, #1, #2, ...

........................................................................
.............................. CYCLE   41 ..............................
........................................................................
   1   -193.7415706 -0.193742E+03  0.210E-01    0.98       0.0  T
   2   -193.7416139 -0.433159E-04  0.117E-01    0.97       1.0  T
   3   -193.7412034  0.410569E-03  0.629E-02    0.98       1.0  T
   4   -193.7416601 -0.456763E-03  0.157E-02    0.97       1.0  T
   5   -193.7416678 -0.769178E-05  0.957E-03    0.97       1.1  T
   6   -193.7416724 -0.455930E-05  0.341E-03    0.97       3.0  T
   7   -193.7416731 -0.692724E-06  0.138E-03    0.97       7.4  T
   8   -193.7416731 -0.568343E-07  0.787E-04    0.97      12.9  T
     SCC iter.                  ...        0 min,  0.159 sec
     gradient                   ...        0 min,  0.173 sec
 * total energy  :  -190.9740135 Eh     change       -0.1793681E-02 Eh
   gradient norm :     0.0371006 Eh/α   predicted    -0.2616135E-02 (  45.85%)
   displ. norm   :     0.7241239 α      lambda       -0.3370027E-02
   maximum displ.:     0.4088170 α      in ANC's #7, #2, #1, ...

........................................................................
.............................. CYCLE   42 ..............................
........................................................................
   1   -193.7329135 -0.193733E+03  0.201E-01    0.97       0.0  T
   2   -193.7329598 -0.462301E-04  0.112E-01    0.97       1.0  T
   3   -193.7328484  0.111357E-03  0.384E-02    0.97       1.0  T
   4   -193.7329783 -0.129913E-03  0.116E-02    0.97       1.0  T
   5   -193.7329828 -0.449187E-05  0.602E-03    0.97       1.7  T
   6   -193.7329836 -0.831404E-06  0.302E-03    0.97       3.4  T
   7   -193.7329843 -0.687284E-06  0.106E-03    0.97       9.5  T
     SCC iter.                  ...        0 min,  0.140 sec
     gradient                   ...        0 min,  0.171 sec
 * total energy  :  -190.9758813 Eh     change       -0.1867765E-02 Eh
   gradient norm :     0.0289768 Eh/α   predicted    -0.2568565E-02 (  37.52%)
   displ. norm   :     0.6281995 α      lambda       -0.3157750E-02
   maximum displ.:     0.3696613 α      in ANC's #7, #1, #2, ...
 * RMSD in coord.:     1.5204556 α      energy gain  -0.7316723E-01 Eh

generating ANC from model Hessian ...
Using Lindh-Hessian (1995)
 Shifting diagonal of input Hessian by   5.742123386855181E-003
 Lowest  eigenvalues of input Hessian
    0.005000    0.005739   -0.000000   -0.000000   -0.000000    0.000000
    0.000000    0.000000    0.005746    0.005791    0.005863    0.005940
    0.006005    0.006082    0.006302    0.006397    0.006670    0.006807
 Highest eigenvalues
    2.269427    2.273766    2.579608    2.594014    2.648822    2.652431
 

........................................................................
.............................. CYCLE   43 ..............................
........................................................................
   1   -193.7112251 -0.193711E+03  0.180E-01    0.96       0.0  T
   2   -193.7112747 -0.496337E-04  0.101E-01    0.96       1.0  T
   3   -193.7110586  0.216120E-03  0.466E-02    0.97       1.0  T
   4   -193.7112939 -0.235338E-03  0.130E-02    0.96       1.0  T
   5   -193.7113035 -0.956273E-05  0.606E-03    0.97       1.7  T
   6   -193.7113046 -0.115469E-05  0.303E-03    0.96       3.4  T
   7   -193.7113052 -0.588975E-06  0.112E-03    0.96       9.1  T
   8   -193.7113053 -0.532482E-07  0.657E-04    0.96      15.4  T
   9   -193.7113053 -0.152017E-07  0.314E-04    0.96      32.4  T
     SCC iter.                  ...        0 min,  0.180 sec
     gradient                   ...        0 min,  0.184 sec
 * total energy  :  -190.9773034 Eh     change       -0.1422097E-02 Eh
   gradient norm :     0.0369214 Eh/α   predicted     0.0000000E+00 (-100.00%)
   displ. norm   :     0.3367590 α      lambda       -0.2696108E-02
   maximum displ.:     0.1637554 α      in ANC's #7, #3, #23, ...

........................................................................
.............................. CYCLE   44 ..............................
........................................................................
   1   -193.7310228 -0.193731E+03  0.120E-01    0.97       0.0  T
   2   -193.7310444 -0.216687E-04  0.651E-02    0.97       1.0  T
   3   -193.7309624  0.819891E-04  0.303E-02    0.97       1.0  T
   4   -193.7310540 -0.915612E-04  0.914E-03    0.97       1.1  T
   5   -193.7310570 -0.304956E-05  0.484E-03    0.97       2.1  T
   6   -193.7310585 -0.149411E-05  0.161E-03    0.97       6.3  T
     SCC iter.                  ...        0 min,  0.120 sec
     gradient                   ...        0 min,  0.171 sec
 * total energy  :  -190.9791474 Eh     change       -0.1843964E-02 Eh
   gradient norm :     0.0102986 Eh/α   predicted    -0.1500948E-02 ( -18.60%)
   displ. norm   :     0.4284475 α      lambda       -0.1830457E-02
   maximum displ.:     0.1832582 α      in ANC's #7, #23, #3, ...

........................................................................
.............................. CYCLE   45 ..............................
........................................................................
   1   -193.7413124 -0.193741E+03  0.183E-01    0.98       0.0  T
   2   -193.7413483 -0.359056E-04  0.101E-01    0.98       1.0  T
   3   -193.7412645  0.837828E-04  0.309E-02    0.97       1.0  T
   4   -193.7413661 -0.101543E-03  0.841E-03    0.98       1.2  T
   5   -193.7413682 -0.212141E-05  0.503E-03    0.98       2.0  T
   6   -193.7413695 -0.134979E-05  0.199E-03    0.98       5.1  T
   7   -193.7413698 -0.226605E-06  0.909E-04    0.98      11.2  T
     SCC iter.                  ...        0 min,  0.141 sec
     gradient                   ...        0 min,  0.172 sec
 * total energy  :  -190.9797812 Eh     change       -0.6338457E-03 Eh
   gradient norm :     0.0226793 Eh/α   predicted    -0.1083244E-02 (  70.90%)
   displ. norm   :     0.5157726 α      lambda       -0.2663519E-02
   maximum displ.:     0.2094065 α      in ANC's #7, #23, #3, ...

........................................................................
.............................. CYCLE   46 ..............................
........................................................................
   1   -193.7452549 -0.193745E+03  0.183E-01    0.98       0.0  T
   2   -193.7452843 -0.293264E-04  0.102E-01    0.98       1.0  T
   3   -193.7452208  0.634148E-04  0.266E-02    0.98       1.0  T
   4   -193.7452976 -0.767238E-04  0.822E-03    0.98       1.2  T
   5   -193.7452995 -0.195862E-05  0.517E-03    0.98       2.0  T
   6   -193.7453011 -0.152878E-05  0.188E-03    0.98       5.4  T
     SCC iter.                  ...        0 min,  0.120 sec
     gradient                   ...        0 min,  0.172 sec
 * total energy  :  -190.9816251 Eh     change       -0.1843894E-02 Eh
   gradient norm :     0.0200179 Eh/α   predicted    -0.1686037E-02 (  -8.56%)
   displ. norm   :     0.6423908 α      lambda       -0.2857237E-02
   maximum displ.:     0.2716269 α      in ANC's #7, #23, #3, ...

........................................................................
.............................. CYCLE   47 ..............................
........................................................................
   1   -193.7308448 -0.193731E+03  0.221E-01    0.97       0.0  T
   2   -193.7308890 -0.442257E-04  0.124E-01    0.98       1.0  T
   3   -193.7306401  0.248903E-03  0.494E-02    0.97       1.0  T
   4   -193.7309243 -0.284174E-03  0.942E-03    0.98       1.1  T
   5   -193.7309251 -0.826407E-06  0.600E-03    0.98       1.7  T
   6   -193.7309274 -0.223098E-05  0.236E-03    0.98       4.3  T
   7   -193.7309277 -0.351720E-06  0.115E-03    0.98       8.8  T
     SCC iter.                  ...        0 min,  0.139 sec
     gradient                   ...        0 min,  0.171 sec
 * total energy  :  -190.9832397 Eh     change       -0.1614548E-02 Eh
   gradient norm :     0.0253257 Eh/α   predicted    -0.2018162E-02 (  25.00%)
   displ. norm   :     0.6252368 α      lambda       -0.2703100E-02
   maximum displ.:     0.2637431 α      in ANC's #7, #3, #23, ...

........................................................................
.............................. CYCLE   48 ..............................
........................................................................
   1   -193.7296320 -0.193730E+03  0.195E-01    0.98       0.0  T
   2   -193.7296658 -0.337506E-04  0.109E-01    0.98       1.0  T
   3   -193.7295936  0.721547E-04  0.318E-02    0.98       1.0  T
   4   -193.7296827 -0.890346E-04  0.868E-03    0.98       1.2  T
   5   -193.7296834 -0.737068E-06  0.437E-03    0.98       2.3  T
   6   -193.7296845 -0.109391E-05  0.191E-03    0.98       5.3  T
     SCC iter.                  ...        0 min,  0.120 sec
     gradient                   ...        0 min,  0.171 sec
 * total energy  :  -190.9851253 Eh     change       -0.1885626E-02 Eh
   gradient norm :     0.0191280 Eh/α   predicted    -0.1879903E-02 (  -0.30%)
   displ. norm   :     0.6479460 α      lambda       -0.2838033E-02
   maximum displ.:     0.3003656 α      in ANC's #7, #3, #23, ...

........................................................................
.............................. CYCLE   49 ..............................
........................................................................
   1   -193.7361161 -0.193736E+03  0.221E-01    0.97       0.0  T
   2   -193.7361566 -0.405126E-04  0.122E-01    0.98       1.0  T
   3   -193.7360011  0.155503E-03  0.457E-02    0.97       1.0  T
   4   -193.7361883 -0.187183E-03  0.972E-03    0.98       1.0  T
   5   -193.7361875  0.805982E-06  0.585E-03    0.98       1.7  T
   6   -193.7361903 -0.276121E-05  0.197E-03    0.98       5.2  T
   7   -193.7361905 -0.211711E-06  0.101E-03    0.98      10.0  T
     SCC iter.                  ...        0 min,  0.140 sec
     gradient                   ...        0 min,  0.172 sec
 * total energy  :  -190.9870073 Eh     change       -0.1881982E-02 Eh
   gradient norm :     0.0219949 Eh/α   predicted    -0.2014770E-02 (   7.06%)
   displ. norm   :     0.7001287 α      lambda       -0.2576181E-02
   maximum displ.:     0.3393569 α      in ANC's #7, #3, #2, ...

........................................................................
.............................. CYCLE   50 ..............................
........................................................................
   1   -193.7373258 -0.193737E+03  0.208E-01    0.97       0.0  T
   2   -193.7373564 -0.306333E-04  0.114E-01    0.98       1.0  T
   3   -193.7372923  0.640903E-04  0.291E-02    0.97       1.0  T
   4   -193.7373664 -0.740544E-04  0.118E-02    0.98       1.0  T
   5   -193.7373698 -0.343198E-05  0.658E-03    0.98       1.5  T
   6   -193.7373735 -0.373565E-05  0.180E-03    0.98       5.6  T
   7   -193.7373736 -0.103502E-06  0.105E-03    0.98       9.7  T
     SCC iter.                  ...        0 min,  0.140 sec
     gradient                   ...        0 min,  0.171 sec
 * total energy  :  -190.9892001 Eh     change       -0.2192783E-02 Eh
   gradient norm :     0.0137849 Eh/α   predicted    -0.1919488E-02 ( -12.46%)
   displ. norm   :     0.8141211 α      lambda       -0.2762635E-02
   maximum displ.:     0.3841574 α      in ANC's #7, #3, #2, ...

........................................................................
.............................. CYCLE   51 ..............................
........................................................................
   1   -193.7363594 -0.193736E+03  0.229E-01    0.97       0.0  T
   2   -193.7363955 -0.360334E-04  0.125E-01    0.98       1.0  T
   3   -193.7363195  0.759824E-04  0.318E-02    0.97       1.0  T
   4   -193.7364024 -0.828900E-04  0.144E-02    0.98       1.0  T
   5   -193.7364107 -0.833367E-05  0.709E-03    0.97       1.4  T
   6   -193.7364150 -0.430438E-05  0.193E-03    0.98       5.3  T
   7   -193.7364151 -0.115738E-06  0.120E-03    0.98       8.5  T
   8   -193.7364152 -0.372117E-07  0.633E-04    0.98      16.0  T
     SCC iter.                  ...        0 min,  0.159 sec
     gradient                   ...        0 min,  0.171 sec
 * total energy  :  -190.9916438 Eh     change       -0.2443704E-02 Eh
   gradient norm :     0.0158321 Eh/α   predicted    -0.2296849E-02 (  -6.01%)
   displ. norm   :     0.8150311 α      lambda       -0.2776511E-02
   maximum displ.:     0.3961661 α      in ANC's #7, #3, #2, ...

........................................................................
.............................. CYCLE   52 ..............................
........................................................................
   1   -193.7504352 -0.193750E+03  0.226E-01    0.98       0.0  T
   2   -193.7504697 -0.345296E-04  0.123E-01    0.98       1.0  T
   3   -193.7504289  0.407566E-04  0.279E-02    0.97       1.0  T
   4   -193.7504726 -0.436624E-04  0.150E-02    0.98       1.0  T
   5   -193.7504832 -0.105698E-04  0.548E-03    0.97       1.9  T
   6   -193.7504852 -0.202236E-05  0.189E-03    0.98       5.4  T
   7   -193.7504853 -0.140498E-06  0.109E-03    0.97       9.3  T
     SCC iter.                  ...        0 min,  0.139 sec
     gradient                   ...        0 min,  0.171 sec
 * total energy  :  -190.9940128 Eh     change       -0.2369077E-02 Eh
   gradient norm :     0.0164398 Eh/α   predicted    -0.2310441E-02 (  -2.48%)
   displ. norm   :     0.9150555 α      lambda       -0.2928708E-02
   maximum displ.:     0.4150871 α      in ANC's #7, #3, #2, ...

........................................................................
.............................. CYCLE   53 ..............................
........................................................................
   1   -193.7436036 -0.193744E+03  0.233E-01    0.97       0.0  T
   2   -193.7436352 -0.316235E-04  0.129E-01    0.98       1.0  T
   3   -193.7435921  0.430610E-04  0.268E-02    0.97       1.0  T
   4   -193.7436305 -0.383903E-04  0.156E-02    0.98       1.0  T
   5   -193.7436459 -0.153871E-04  0.626E-03    0.97       1.6  T
   6   -193.7436487 -0.280448E-05  0.213E-03    0.98       4.8  T
   7   -193.7436490 -0.257634E-06  0.112E-03    0.98       9.1  T
     SCC iter.                  ...        0 min,  0.139 sec
     gradient                   ...        0 min,  0.171 sec
 * total energy  :  -190.9964246 Eh     change       -0.2411728E-02 Eh
   gradient norm :     0.0176014 Eh/α   predicted    -0.2690498E-02 (  11.56%)
   displ. norm   :     0.7974524 α      lambda       -0.2610105E-02
   maximum displ.:     0.3737529 α      in ANC's #7, #3, #2, ...

........................................................................
.............................. CYCLE   54 ..............................
........................................................................
   1   -193.7475647 -0.193748E+03  0.208E-01    0.98       0.0  T
   2   -193.7475942 -0.295001E-04  0.114E-01    0.98       1.0  T
   3   -193.7475676  0.265826E-04  0.230E-02    0.98       1.0  T
   4   -193.7475957 -0.280845E-04  0.132E-02    0.97       1.0  T
   5   -193.7476042 -0.845424E-05  0.518E-03    0.98       2.0  T
   6   -193.7476060 -0.179039E-05  0.198E-03    0.98       5.1  T
   7   -193.7476061 -0.172453E-06  0.924E-04    0.98      11.0  T
     SCC iter.                  ...        0 min,  0.139 sec
     gradient                   ...        0 min,  0.171 sec
 * total energy  :  -190.9986641 Eh     change       -0.2239508E-02 Eh
   gradient norm :     0.0196462 Eh/α   predicted    -0.2134976E-02 (  -4.67%)
   displ. norm   :     0.7943056 α      lambda       -0.2697194E-02
   maximum displ.:     0.3800895 α      in ANC's #7, #3, #1, ...

........................................................................
.............................. CYCLE   55 ..............................
........................................................................
   1   -193.7548908 -0.193755E+03  0.203E-01    0.98       0.0  T
   2   -193.7549176 -0.268113E-04  0.112E-01    0.97       1.0  T
   3   -193.7548342  0.834104E-04  0.318E-02    0.98       1.0  T
   4   -193.7549278 -0.935966E-04  0.130E-02    0.97       1.0  T
   5   -193.7549316 -0.377444E-05  0.694E-03    0.98       1.5  T
   6   -193.7549350 -0.342232E-05  0.194E-03    0.97       5.2  T
   7   -193.7549352 -0.161280E-06  0.954E-04    0.98      10.6  T
   8   -193.7549352 -0.167576E-07  0.562E-04    0.98      18.1  T
     SCC iter.                  ...        0 min,  0.159 sec
     gradient                   ...        0 min,  0.171 sec
 * total energy  :  -191.0009226 Eh     change       -0.2258482E-02 Eh
   gradient norm :     0.0140463 Eh/α   predicted    -0.2199457E-02 (  -2.61%)
   displ. norm   :     0.8889586 α      lambda       -0.2585942E-02
   maximum displ.:     0.4088922 α      in ANC's #7, #3, #1, ...

........................................................................
.............................. CYCLE   56 ..............................
........................................................................
   1   -193.7527322 -0.193753E+03  0.228E-01    0.97       0.0  T
   2   -193.7527689 -0.367311E-04  0.125E-01    0.97       1.0  T
   3   -193.7527223  0.466030E-04  0.275E-02    0.98       1.0  T
   4   -193.7527735 -0.511375E-04  0.147E-02    0.97       1.0  T
   5   -193.7527829 -0.942830E-05  0.628E-03    0.97       1.6  T
   6   -193.7527854 -0.254194E-05  0.219E-03    0.97       4.6  T
   7   -193.7527857 -0.211473E-06  0.102E-03    0.97      10.0  T
     SCC iter.                  ...        0 min,  0.140 sec
     gradient                   ...        0 min,  0.171 sec
 * total energy  :  -191.0030209 Eh     change       -0.2098325E-02 Eh
   gradient norm :     0.0179623 Eh/α   predicted    -0.2314739E-02 (  10.31%)
   displ. norm   :     0.8049509 α      lambda       -0.2579581E-02
   maximum displ.:     0.3443232 α      in ANC's #7, #3, #1, ...

........................................................................
.............................. CYCLE   57 ..............................
........................................................................
   1   -193.7626745 -0.193763E+03  0.206E-01    0.98       0.0  T
   2   -193.7627076 -0.331268E-04  0.113E-01    0.97       1.0  T
   3   -193.7625863  0.121240E-03  0.359E-02    0.98       1.0  T
   4   -193.7627225 -0.136171E-03  0.134E-02    0.97       1.0  T
   5   -193.7627262 -0.365152E-05  0.803E-03    0.97       1.3  T
   6   -193.7627312 -0.502918E-05  0.215E-03    0.97       4.7  T
   7   -193.7627314 -0.180335E-06  0.101E-03    0.97      10.0  T
   8   -193.7627314 -0.118286E-07  0.593E-04    0.97      17.1  T
     SCC iter.                  ...        0 min,  0.159 sec
     gradient                   ...        0 min,  0.171 sec
 * total energy  :  -191.0049579 Eh     change       -0.1937022E-02 Eh
   gradient norm :     0.0187271 Eh/α   predicted    -0.2125516E-02 (   9.73%)
   displ. norm   :     0.7989778 α      lambda       -0.2471438E-02
   maximum displ.:     0.3573224 α      in ANC's #7, #3, #1, ...

........................................................................
.............................. CYCLE   58 ..............................
........................................................................
   1   -193.7501388 -0.193750E+03  0.225E-01    0.97       0.0  T
   2   -193.7501858 -0.469102E-04  0.123E-01    0.97       1.0  T
   3   -193.7501404  0.453123E-04  0.269E-02    0.97       1.0  T
   4   -193.7501903 -0.498051E-04  0.151E-02    0.96       1.0  T
   5   -193.7502022 -0.119197E-04  0.613E-03    0.97       1.7  T
   6   -193.7502048 -0.259183E-05  0.244E-03    0.97       4.2  T
   7   -193.7502051 -0.292349E-06  0.106E-03    0.97       9.6  T
     SCC iter.                  ...        0 min,  0.139 sec
     gradient                   ...        0 min,  0.171 sec
 * total energy  :  -191.0064178 Eh     change       -0.1459929E-02 Eh
   gradient norm :     0.0335025 Eh/α   predicted    -0.2024561E-02 (  38.68%)
   displ. norm   :     0.6362423 α      lambda       -0.2745301E-02
[...]
     6   9 F      0.787    -0.186    11.096     3.935
     7   6 C      2.782     0.163    24.472     8.103
     8   9 F      0.787    -0.185    11.078     3.932
     9   6 C      2.914    -0.049    29.225     8.865
    10   6 C      3.034     0.004    27.898     8.664
    11   6 C      3.022     0.029    27.336     8.576
    12   6 C      2.947     0.007    27.855     8.656
    13   6 C      1.937     0.121    28.118     8.563
    14   7 N      0.911    -0.232    26.075     7.385
    15   6 C      1.938     0.122    28.097     8.560
    16   7 N      0.911    -0.225    25.926     7.364
    17   6 C      3.007    -0.040    28.971     8.829
    18   6 C      2.963    -0.001    28.052     8.687
    19   6 C      2.978     0.010    27.780     8.646
    20  34 Se     2.283    -0.021   236.445    26.794
    21   6 C      3.096    -0.010    28.147     8.695
    22   6 C      3.191     0.010    27.303     8.522
    23   6 C      3.072     0.026    27.344     8.574
    24   6 C      3.805    -0.060    21.656     6.625
    25   6 C      3.752    -0.098    22.436     6.755
    26  16 S      2.185    -0.008   141.386    20.013
    27   6 C      3.095     0.008    27.733     8.631
    28   6 C      3.261     0.031    26.157     8.263
    29   7 N      2.795    -0.043    22.077     6.978
    30   6 C      3.747    -0.006    20.746     6.497
    31   6 C      3.752    -0.113    22.725     6.798
    32   6 C      3.075     0.028    27.288     8.565
    33   6 C      3.083    -0.031    28.675     8.778
    34   6 C      3.341     0.070    23.998     7.744
    35   7 N      1.854    -0.263    27.679     7.798
    36  16 S      2.687     0.319   128.723    19.095
    37   7 N      1.854    -0.263    27.693     7.800
    38   6 C      3.341     0.070    23.990     7.743
    39   6 C      3.085    -0.032    28.710     8.783
    40   6 C      3.073     0.027    27.323     8.570
    41   7 N      2.800    -0.033    21.883     6.948
    42   6 C      3.742    -0.000    20.660     6.485
    43   6 C      3.751    -0.117    22.808     6.811
    44   6 C      3.252     0.029    26.326     8.303
    45   6 C      3.099     0.005    27.782     8.638
    46  16 S      2.187    -0.004   141.213    20.000
    47   6 C      3.182     0.013    27.289     8.527
    48   6 C      3.100    -0.011    28.169     8.698
    49  34 Se     2.272    -0.022   236.462    26.795
    50   6 C      2.982     0.009    27.810     8.650
    51   6 C      3.078     0.024    27.390     8.580
    52   6 C      3.804    -0.045    21.382     6.583
    53   6 C      3.752    -0.108    22.616     6.782
    54   6 C      2.951    -0.002    28.083     8.692
    55   6 C      3.010    -0.040    28.974     8.830
    56   6 C      3.019     0.029    27.339     8.577
    57   6 C      2.947     0.008    27.845     8.655
    58   6 C      1.936     0.122    28.101     8.561
    59   7 N      0.911    -0.225    25.924     7.364
    60   6 C      1.936     0.121    28.114     8.563
    61   7 N      0.911    -0.231    26.060     7.383
    62   6 C      3.035     0.005    27.873     8.660
    63   6 C      2.914    -0.049    29.224     8.865
    64   6 C      2.782     0.164    24.458     8.100
    65   9 F      0.787    -0.184    11.067     3.930
    66   6 C      2.783     0.161    24.507     8.109
    67   9 F      0.787    -0.186    11.088     3.933
    68   6 C      2.913    -0.037    28.923     8.819
    69   6 C      3.047    -0.022    28.502     8.756
    70   6 C      2.866     0.230    23.190     7.894
    71   8 O      0.856    -0.362    20.942     6.136
    72   1 H      0.926     0.093     1.854     2.129
    73   1 H      0.926     0.090     1.881     2.145
    74   1 H      0.925     0.066     2.131     2.283
    75   1 H      0.924     0.093     1.851     2.128
    76   1 H      0.924     0.056     2.242     2.341
    77   1 H      0.925     0.034     2.532     2.489
    78   1 H      0.925     0.046     2.369     2.407
    79   1 H      0.925     0.042     2.419     2.432
    80   1 H      0.925     0.070     2.081     2.256
    81   1 H      0.924     0.065     2.145     2.290
    82   1 H      0.925     0.049     2.330     2.387
    83   1 H      0.925     0.057     2.240     2.341
    84   1 H      0.925     0.056     2.248     2.344
    85   1 H      0.923     0.066     2.129     2.282
    86   1 H      0.924     0.060     2.203     2.321
    87   1 H      0.925     0.069     2.098     2.265
    88   1 H      0.925     0.059     2.214     2.327
    89   1 H      0.925     0.054     2.269     2.356
    90   1 H      0.924     0.038     2.477     2.461
    91   1 H      0.924     0.052     2.298     2.371
    92   1 H      0.925     0.069     2.094     2.263
    93   1 H      0.925     0.042     2.419     2.432
    94   1 H      0.925     0.052     2.301     2.372
    95   1 H      0.925     0.066     2.131     2.283
    96   1 H      0.926     0.090     1.874     2.141
    97   1 H      0.926     0.093     1.852     2.128

 Mol. C6AA /au·bohr⁶  :     187358.468517
 Mol. C8AA /au·bohr⁸  :    5541176.858360
 Mol. α(0) /au        :        688.132574


Wiberg/Mayer (AO) data.
largest (>0.10) Wiberg bond orders for each atom
          total WBO             WBO to atom ...
     1  C   3.928        O    2 1.736    C   17 1.054    C    3 1.012
     2  O   2.048        C    1 1.736
     3  C   3.976        C    4 1.419    C   10 1.301    C    1 1.012
     4  C   3.976        C    3 1.419    C    5 1.384    H   72 0.960
     5  C   3.881        C    4 1.384    C    7 1.332    F    6 0.988
     6  F   1.126        C    5 0.988
     7  C   3.888        C    9 1.389    C    5 1.332    F    8 0.991
     8  F   1.131        C    7 0.991
     9  C   3.972        C   10 1.401    C    7 1.389    H   73 0.955
    10  C   3.982        C    9 1.401    C    3 1.301    C   11 1.081
    11  C   3.974        C   12 1.487    C   17 1.145    C   10 1.081
    12  C   3.947        C   11 1.487    C   13 1.097    C   15 1.096
    13  C   3.947        N   14 2.761    C   12 1.097
    14  N   2.965        C   13 2.761
    15  C   3.946        N   16 2.769    C   12 1.096
    16  N   2.971        C   15 2.769
    17  C   3.955        C   18 1.489    C   11 1.145    C    1 1.054
    18  C   3.943        C   17 1.489    C   19 1.294    H   74 0.936
    19  C   3.934        C   23 1.389    C   18 1.294    Se  20 1.052
    20  Se  2.637        C   21 1.144    C   19 1.052
    21  C   3.941        C   22 1.315    C   28 1.260    Se  20 1.144
    22  C   3.928        C   21 1.315    C   23 1.306    S   26 1.091
    23  C   3.954        C   19 1.389    C   22 1.306    C   24 1.023
    24  C   3.987        C   23 1.023    C   25 1.001    H   76 0.966    H   75 0.922
    25  C   3.993        C   24 1.001    H   79 0.987    H   78 0.985    H   77 0.984
    26  S   2.540        C   27 1.123    C   22 1.091
    27  C   3.919        C   28 1.301    C   33 1.267    S   26 1.123
    28  C   3.934        C   27 1.301    C   21 1.260    N   29 1.146
    29  N   3.533        C   32 1.158    C   28 1.146    C   30 0.980
    30  C   3.962        C   31 1.005    N   29 0.980    H   80 0.957    H   81 0.955
    31  C   3.988        C   30 1.005    H   82 0.986    H   83 0.982    H   84 0.978
    32  C   3.927        C   33 1.274    C   40 1.228    N   29 1.158
    33  C   3.953        C   32 1.274    C   27 1.267    C   34 1.172
    34  C   3.973        N   35 1.426    C   33 1.172    C   38 1.167    S   36 0.101
    35  N   3.075        C   34 1.426    S   36 1.396    N   37 0.148
    36  S   3.113        N   35 1.396    N   37 1.395    C   34 0.101    C   38 0.100
    37  N   3.075        C   38 1.427    S   36 1.395    N   35 0.148
    38  C   3.973        N   37 1.427    C   39 1.172    C   34 1.167    S   36 0.100
    39  C   3.953        C   45 1.273    C   40 1.268    C   38 1.172
    40  C   3.927        C   39 1.268    C   32 1.228    N   41 1.167
    41  N   3.555        C   40 1.167    C   44 1.153    C   42 0.985
    42  C   3.966        C   43 1.006    N   41 0.985    H   86 0.964    H   85 0.956
    43  C   3.984        C   42 1.006    H   88 0.983    H   89 0.979    H   87 0.962
    44  C   3.932        C   45 1.297    C   48 1.256    N   41 1.153
    45  C   3.920        C   44 1.297    C   39 1.273    S   46 1.121
    46  S   2.544        C   45 1.121    C   47 1.095
    47  C   3.929        C   48 1.320    C   51 1.299    S   46 1.095
    48  C   3.942        C   47 1.320    C   44 1.256    Se  49 1.142
    49  Se  2.653        C   48 1.142    C   50 1.057
    50  C   3.933        C   51 1.414    C   54 1.260    Se  49 1.057
    51  C   3.954        C   50 1.414    C   47 1.299    C   52 1.012
    52  C   3.993        C   51 1.012    C   53 0.998    H   90 0.973    H   91 0.956
    53  C   3.986        C   52 0.998    H   93 0.984    H   94 0.978    H   92 0.973
    54  C   3.940        C   55 1.515    C   50 1.260    H   95 0.939
    55  C   3.957        C   54 1.515    C   56 1.147    C   70 1.033
    56  C   3.974        C   57 1.484    C   55 1.147    C   62 1.082
    57  C   3.947        C   56 1.484    C   60 1.097    C   58 1.097
    58  C   3.946        N   59 2.769    C   57 1.097
    59  N   2.970        C   58 2.769
    60  C   3.947        N   61 2.763    C   57 1.097
    61  N   2.966        C   60 2.763
    62  C   3.982        C   63 1.400    C   69 1.300    C   56 1.082
    63  C   3.972        C   62 1.400    C   64 1.390    H   96 0.955
    64  C   3.889        C   63 1.390    C   66 1.330    F   65 0.992
    65  F   1.132        C   64 0.992
    66  C   3.881        C   68 1.385    C   64 1.330    F   67 0.989
    67  F   1.127        C   66 0.989
    68  C   3.978        C   69 1.418    C   66 1.385    H   97 0.960
    69  C   3.976        C   68 1.418    C   62 1.300    C   70 1.012
    70  C   3.929        O   71 1.759    C   55 1.033    C   69 1.012
    71  O   2.059        C   70 1.759
    72  H   0.991        C    4 0.960
    73  H   0.991        C    9 0.955
    74  H   0.993        C   18 0.936
    75  H   0.989        C   24 0.922
    76  H   0.997        C   24 0.966
    77  H   0.999        C   25 0.984
    78  H   0.997        C   25 0.985
    79  H   0.998        C   25 0.987
    80  H   0.994        C   30 0.957
    81  H   0.994        C   30 0.955
    82  H   0.998        C   31 0.986
    83  H   0.996        C   31 0.982
    84  H   0.997        C   31 0.978
    85  H   0.993        C   42 0.956
    86  H   0.995        C   42 0.964
    87  H   0.995        C   43 0.962
    88  H   0.996        C   43 0.983
    89  H   0.997        C   43 0.979
    90  H   0.998        C   52 0.973
    91  H   0.995        C   52 0.956
    92  H   0.995        C   53 0.973
    93  H   0.997        C   53 0.984
    94  H   0.997        C   53 0.978
    95  H   0.992        C   54 0.939
    96  H   0.991        C   63 0.955
    97  H   0.991        C   68 0.960

molecular dipole:
                 x           y           z       tot (Debye)
 q only:       -1.682       0.028      -0.382
   full:       -1.027       0.370       0.035       2.776
molecular quadrupole (traceless):
                xx          xy          yy          xz          yz          zz
 q only:       76.035     -27.802      47.816      15.382      90.156    -123.852
  q+dip:       78.734     -27.629      25.191      29.984      85.397    -103.925
   full:       85.967     -31.736      23.070      32.893      85.818    -109.037

           -------------------------------------------------
          |                Geometry Summary                 |
           -------------------------------------------------

      molecular mass/u    :     1124.9234000
   center of mass at/Å    :        0.9714171      -3.8401896       8.1918147
  moments of inertia/u·Å² :        0.8738622E+04   0.7596035E+05   0.7726283E+05
rotational constants/cm⁻¹ :        0.1929095E-02   0.2219267E-03   0.2181855E-03

 * 93 selected distances

     #   Z        #   Z                                     value/Å
     1   6 C      2   8 O                                 1.2146380
     3   6 C      4   6 C                                 1.3803430
     4   6 C      5   6 C                                 1.3858316
     5   6 C      6   9 F                                 1.3387306
     5   6 C      7   6 C                                 1.3949574
     7   6 C      8   9 F                                 1.3377135
     7   6 C      9   6 C                                 1.3872301
     3   6 C     10   6 C                                 1.4045771
     9   6 C     10   6 C                                 1.3857237
    11   6 C     12   6 C                                 1.3707171
    13   6 C     14   7 N                                 1.1484761
    15   6 C     16   7 N                                 1.1475185
    17   6 C     18   6 C                                 1.3735368
    18   6 C     19   6 C                                 1.4056495
    20  34 Se    21   6 C                                 1.8574267
    21   6 C     22   6 C                                 1.4044104
    19   6 C     23   6 C                                 1.3935952
    22   6 C     23   6 C                                 1.4016783
    23   6 C     24   6 C                                 1.4919213
    24   6 C     25   6 C                                 1.5273469
    22   6 C     26  16 S                                 1.7524088
    26  16 S     27   6 C                                 1.7247098
    21   6 C     28   6 C                                 1.3970909
    27   6 C     28   6 C                                 1.3989446
    28   6 C     29   7 N                                 1.3725349
    29   7 N     30   6 C                                 1.4465398
    30   6 C     31   6 C                                 1.5280900
    29   7 N     32   6 C                                 1.3862855
    27   6 C     33   6 C                                 1.4031042
    32   6 C     33   6 C                                 1.4248286
    33   6 C     34   6 C                                 1.4123900
    34   6 C     35   7 N                                 1.3237819
    35   7 N     36  16 S                                 1.6178026
    36  16 S     37   7 N                                 1.6179609
    34   6 C     38   6 C                                 1.4341262
    37   7 N     38   6 C                                 1.3237544
    38   6 C     39   6 C                                 1.4126682
    32   6 C     40   6 C                                 1.4179322
    39   6 C     40   6 C                                 1.4251320
    40   6 C     41   7 N                                 1.3820141
    41   7 N     42   6 C                                 1.4439498
    42   6 C     43   6 C                                 1.5291975
    41   7 N     44   6 C                                 1.3697768
    39   6 C     45   6 C                                 1.4016812
    44   6 C     45   6 C                                 1.3998230
    45   6 C     46  16 S                                 1.7235828
    46  16 S     47   6 C                                 1.7511606
    44   6 C     48   6 C                                 1.3990324
    47   6 C     48   6 C                                 1.4055594
    48   6 C     49  34 Se                                1.8605683 (max)
    47   6 C     51   6 C                                 1.4036233
    50   6 C     51   6 C                                 1.3886311
    52   6 C     53   6 C                                 1.5290163
    50   6 C     54   6 C                                 1.4114114
    54   6 C     55   6 C                                 1.3693629
    56   6 C     57   6 C                                 1.3708008
    58   6 C     59   7 N                                 1.1476736
    60   6 C     61   7 N                                 1.1483253
    62   6 C     63   6 C                                 1.3860711
    63   6 C     64   6 C                                 1.3869345
    64   6 C     65   9 F                                 1.3373829
    64   6 C     66   6 C                                 1.3953228
    66   6 C     67   9 F                                 1.3383202
    66   6 C     68   6 C                                 1.3855519
    62   6 C     69   6 C                                 1.4049653
    68   6 C     69   6 C                                 1.3806444
    70   6 C     71   8 O                                 1.2114024
     4   6 C     72   1 H                                 1.0783430
     9   6 C     73   1 H                                 1.0776337 (min)
    18   6 C     74   1 H                                 1.0869839
    24   6 C     75   1 H                                 1.0935065
    24   6 C     76   1 H                                 1.0924627
    25   6 C     77   1 H                                 1.0866422
    25   6 C     78   1 H                                 1.0868953
    25   6 C     79   1 H                                 1.0879886
    30   6 C     80   1 H                                 1.0824023
    30   6 C     81   1 H                                 1.0972426
    31   6 C     82   1 H                                 1.0881134
    31   6 C     83   1 H                                 1.0863712
    31   6 C     84   1 H                                 1.0880001
    42   6 C     85   1 H                                 1.0981155
    42   6 C     86   1 H                                 1.0908434
    43   6 C     87   1 H                                 1.0898944
    43   6 C     88   1 H                                 1.0864447
    43   6 C     89   1 H                                 1.0878186
    52   6 C     90   1 H                                 1.0907043
    52   6 C     91   1 H                                 1.0951571
    53   6 C     92   1 H                                 1.0859856
    53   6 C     93   1 H                                 1.0870520
    53   6 C     94   1 H                                 1.0862662
    54   6 C     95   1 H                                 1.0857279
    63   6 C     96   1 H                                 1.0776620
    68   6 C     97   1 H                                 1.0783127

 * 8 distinct bonds (by element types)

   Z      Z             #   av. dist./Å        max./Å        min./Å
   1 H    6 C          26     1.0874065     1.0981155     1.0776337
   6 C    6 C          41     1.4124257     1.5291975     1.3693629
   6 C    7 N          12     1.3033859     1.4465398     1.1475185
   6 C    8 O           2     1.2130202     1.2146380     1.2114024
   6 C    9 F           4     1.3380368     1.3387306     1.3373829
   6 C   16 S           4     1.7379655     1.7524088     1.7235828
   7 N   16 S           2     1.6178818     1.6179609     1.6178026
   6 C   34 Se          2     1.8589975     1.8605683     1.8574267


optimized geometry written to: xtbopt.xyz


           -------------------------------------------------
          | TOTAL ENERGY             -191.045830578956 Eh   |
          | GRADIENT NORM               0.000801616537 Eh/α |
          | HOMO-LUMO GAP               1.047368384848 eV   |
           -------------------------------------------------

------------------------------------------------------------------------
 * finished run on 2021/03/22 at 16:56:59.760     
------------------------------------------------------------------------
 total:
 * wall-time:     0 d,  0 h,  1 min, 31.710 sec
 *  cpu-time:     0 d,  0 h,  1 min, 31.493 sec
 * ratio c/w:     0.998 speedup
 SCF:
 * wall-time:     0 d,  0 h,  0 min,  0.783 sec
 *  cpu-time:     0 d,  0 h,  0 min,  0.781 sec
 * ratio c/w:     0.998 speedup
 ANC optimizer:
 * wall-time:     0 d,  0 h,  1 min, 30.706 sec
 *  cpu-time:     0 d,  0 h,  1 min, 30.492 sec
 * ratio c/w:     0.998 speedup

