      -----------------------------------------------------------      
     |                   =====================                   |     
     |                           x T B                           |     
     |                   =====================                   |     
     |                         S. Grimme                         |     
     |          Mulliken Center for Theoretical Chemistry        |     
     |                    University of Bonn                     |     
     |                Version 6.2 RC2 (SAW190805)                |     
      -----------------------------------------------------------      

   This program is distributed in the hope that it will be useful,
   but WITHOUT ANY WARRANTY; without even the implied warranty of
   MERCHANTABILITY or FITNESS FOR A PARTICULAR PURPOSE.
   
   FOR NON-COMMERCIAL, ACADEMIA USE ONLY.
   
   Cite this work as:
   * S. Grimme, C. Bannwarth, P. Shushkov, J. Chem. Theory Comput., 2017,
     13, 1989-2009. DOI: 10.1021/acs.jctc.7b00118
   * C. Bannwarth, S. Ehlert and S. Grimme., J. Chem. Theory Comput., 2019,
     15, 1652-1671. DOI: 10.1021/acs.jctc.8b01176
   * P. Pracht, E. Caldeweyher, S. Ehlert, S. Grimme, ChemRxiv, 2019, preprint.
     DOI: 10.26434/chemrxiv.8326202.v1
   
   for DFT-D4:
   * E. Caldeweyher, C. Bannwarth and S. Grimme, J. Chem. Phys., 2017,
     147, 034112. DOI: 10.1063/1.4993215
   * E. Caldeweyher, S. Ehlert, A. Hansen, H. Neugebauer, S. Spicher,
     C. Bannwarth and S. Grimme, J. Chem. Phys., 2019, 150, 154122.
     DOI: 10.1063/1.5090222
   
   for sTDA-xTB:
   * S. Grimme and C. Bannwarth, J. Chem. Phys., 2016, 145, 054103.
     DOI: 10.1063/1.4959605
   
   in the mass-spec context:
   * V. Asgeirsson, C. Bauer and S. Grimme, Chem. Sci., 2017, 8, 4879.
     DOI: 10.1039/c7sc00601b
   
   for metadynamics refer to:
   * S. Grimme, J. Chem. Theory Comput., 2019, 155, 2847-2862
     DOI: 10.1021/acs.jctc.9b00143
   
   with help from (in alphabetical order)
   C. Bannwarth, F. Bohle, G. Brandenburg, E. Caldeweyher, M. Checinski,
   S. Dohm, S. Ehlert, S. Ehrlich, F. März, H. Neugebauer, J. Pisarek,
   P. Pracht, P. Shushkov, and S. Spicher.
   
 * started run on 2021/03/22 at 16:56:59.791     

           -------------------------------------------------
          |                Calculation Setup                |
           -------------------------------------------------

          program call               : /ihome/ghutchison/geoffh/xtb/xtb N3.xyz -opt
          hostname                   : smp-n127
          coordinate file            : N3.xyz
          omp threads                :                     1
          number of atoms            :                    97
          number of electrons        :                   344
          charge                     :                     0
          spin                       :                   0.0
          first test random number   :      0.48704182933949


########################################################################
# WARNING! Please study the warnings concerning your input carefully
#  - the use of '-opt' is discouraged, please use '--opt' next time
########################################################################

           ------------------------------------------------- 
          |                 G F N 2 - x T B                 |
          | Geometry, Frequencies, Noncovalent interactions |
          |            JCTC 2019 parametrisation            |
           ------------------------------------------------- 
             KAB for C  - Si     :                1.0500
             KAB for H  - Pd     :                0.9500
             k(s)              :                1.8500
             k(p)              :                2.2300
             k(d)              :                2.2300
             k(f)              :                2.0000
             kEN (H0ij)        :               -2.0000
             D4 a1             :                0.5200
             D4 a2             :                5.0000
             D4 s6             :                1.0000
             D4 s8             :                2.7000
             D4 s9             :                5.0000
             alphaj            :                2.0000

  Z AO/shell   Hii/eV     exponent
  1     Wed Apr 25 08:07:45 CEST 2018   EN: 2.200 GM2: 0.406  GM3: 0.0800  RAES: 1.40
     1s    -10.707211    1.230000
  6     Wed Apr 25 08:07:45 CEST 2018   EN: 2.550 GM2: 0.538  GM3: 0.1500  RAES: 3.00
     2s    -13.970922    2.096432
     2p    -10.063292    1.800000
  7     Wed Apr 25 08:07:45 CEST 2018   EN: 3.040 GM2: 0.461  GM3:-0.0640  RAES: 1.90
     2s    -16.686243    2.339881
     2p    -12.523956    2.014332
  8     Wed Apr 25 08:07:45 CEST 2018   EN: 3.440 GM2: 0.452  GM3:-0.0517  RAES: 1.80
     2s    -20.229985    2.439742
     2p    -15.503117    2.137023
  9     Mon Apr 23 13:58:50 CEST 2018   EN: 3.980 GM2: 0.532  GM3: 0.1426  RAES: 2.40
     2s    -23.458179    2.416361
     2p    -15.746583    2.308399
 16     Tue Apr 24 11:44:34 CEST 2018   EN: 2.580 GM2: 0.340  GM3:-0.0502  RAES: 3.10
     3s    -20.029654    1.981333
     3p    -11.377694    2.025643
     3d     -0.420282    1.702555

           ------------------------------------------------- 
          |        Self-Consistent Charge Iterations        |
           ------------------------------------------------- 

          ...................................................
          :                      SETUP                      :
          :.................................................:
          :  # basis functions                 340          :
          :  # atomic orbitals                 335          :
          :  # shells                          173          :
          :  # electrons                       344          :
          :  max. iterations                   250          :
          :  Hamiltonian                  GFN2-xTB          :
          :  restarted?                      false          :
          :  GBSA solvation                  false          :
          :  PC potential                    false          :
          :  electronic temp.          300.0000000     K    :
          :  accuracy                    1.0000000          :
          :  -> integral cutoff          0.2500000E+02      :
          :  -> integral neglect         0.1000000E-07      :
          :  -> SCF convergence          0.1000000E-05 Eh   :
          :  -> wf. convergence          0.1000000E-03 e    :
          :  Broyden damping             0.4000000          :
          ...................................................

 iter      E             dE          RMSdq      gap      omega  full diag
   1   -192.2265388 -0.192227E+03  0.560E+00    1.03       0.0  T
   2   -192.0529359  0.173603E+00  0.400E+00    0.54       1.0  T
   3   -191.0179567  0.103498E+01  0.361E+00    0.33       1.0  T
   4   -190.2930823  0.724874E+00  0.319E+00    0.49       1.0  T
   5   -192.1564202 -0.186334E+01  0.153E+00    0.04       1.0  T
   6   -192.6457619 -0.489342E+00  0.844E-01    0.96       1.0  T
   7   -192.6647296 -0.189677E-01  0.595E-01    0.99       1.0  T
   8   -192.6640060  0.723583E-03  0.527E-01    0.92       1.0  T
   9   -192.6715178 -0.751179E-02  0.316E-01    0.80       1.0  T
  10   -192.6765243 -0.500647E-02  0.194E-01    0.52       1.0  T
  11   -192.6776853 -0.116101E-02  0.151E-01    0.41       1.0  T
  12   -192.6794156 -0.173027E-02  0.960E-02    0.24       1.0  T
  13   -192.6631314  0.162842E-01  0.326E-01    0.07       1.0  T
  14   -192.6793947 -0.162633E-01  0.103E-01    0.26       1.0  T
  15   -192.6806011 -0.120640E-02  0.397E-02    0.19       1.0  T
  16   -192.6806498 -0.486952E-04  0.368E-02    0.18       1.0  T
  17   -192.6807396 -0.898514E-04  0.252E-02    0.18       1.0  T
  18   -192.6808381 -0.984561E-04  0.562E-03    0.16       1.8  T
  19   -192.6808414 -0.335819E-05  0.331E-03    0.16       3.1  T
  20   -192.6808430 -0.151145E-05  0.815E-04    0.16      12.5  T
  21   -192.6808430 -0.287395E-07  0.253E-04    0.16      40.2  T
  22   -192.6808430  0.540791E-08  0.264E-04    0.16      38.5  T

   *** convergence criteria satisfied after 22 iterations ***

         #    Occupation            Energy/Eh            Energy/eV
      -------------------------------------------------------------
         1        2.0000           -0.8603841             -23.4122
       ...           ...                  ...                  ...
       166        2.0000           -0.4134836             -11.2515
       167        2.0000           -0.4064862             -11.0611
       168        2.0000           -0.3979824             -10.8297
       169        2.0000           -0.3882242             -10.5641
       170        2.0000           -0.3872860             -10.5386
       171        2.0000           -0.3790164             -10.3136
       172        1.9137           -0.3687401             -10.0339 (HOMO)
       173        0.0863           -0.3628512              -9.8737 (LUMO)
       174                         -0.3443548              -9.3704
       175                         -0.3370963              -9.1729
       176                         -0.3275754              -8.9138
       177                         -0.3210629              -8.7366
       ...                                ...                  ...
       335                          0.6944776              18.8977
      -------------------------------------------------------------
                  HL-Gap            0.0058889 Eh            0.1602 eV
             Fermi-level           -0.3657957 Eh           -9.9538 eV

 SCC (total)                   0 d,  0 h,  0 min,  0.835 sec
 SCC setup                      ...        0 min,  0.002 sec (  0.297%)
 Dispersion                     ...        0 min,  0.005 sec (  0.659%)
 integral evaluation            ...        0 min,  0.205 sec ( 24.573%)
 zeroth order Hamiltonian       ...        0 min,  0.001 sec (  0.163%)
 iterations                     ...        0 min,  0.440 sec ( 52.755%)
 molecular gradient             ...        0 min,  0.177 sec ( 21.234%)
 printout                       ...        0 min,  0.003 sec (  0.312%)

         :::::::::::::::::::::::::::::::::::::::::::::::::::::
         ::                     SUMMARY                     ::
         :::::::::::::::::::::::::::::::::::::::::::::::::::::
         :: total energy            -190.400901492132 Eh    ::
         :: gradient norm              0.533440118460 Eh/a0 ::
         :: HOMO-LUMO gap              0.160245527562 eV    ::
         ::.................................................::
         :: SCC energy              -192.680842975220 Eh    ::
         :: -> isotropic ES            0.142158928664 Eh    ::
         :: -> anisotropic ES          0.014087576164 Eh    ::
         :: -> anisotropic XC          0.120316180979 Eh    ::
         :: -> dispersion             -0.155747045712 Eh    ::
         :: repulsion energy           2.278302365703 Eh    ::
         :: add. restraining           0.000000000000 Eh    ::
         :::::::::::::::::::::::::::::::::::::::::::::::::::::

      ----------------------------------------------------------- 
     |                   =====================                   |
     |                        A N C O P T                        |
     |                   =====================                   |
     |               Approximate Normal Coordinate               |
     |                Rational Function Optimizer                |
      ----------------------------------------------------------- 

          ...................................................
          :                      SETUP                      :
          :.................................................:
          :   optimization level            normal          :
          :   max. optcycles                   291          :
          :   ANC micro-cycles                  20          :
          :   degrees of freedom               285          :
          :.................................................:
          :   RF solver                   davidson          :
          :   input Hessian                  false          :
          :   write xtbopt.log                true          :
          :   linear?                        false          :
          :   energy convergence         0.5000000E-05 Eh   :
          :   grad. convergence          0.1000000E-02 Eh/α :
          :   maximium RF displ.         2.0000000          :
          :   Hlow (freq-cutoff)         0.5000000E-02      :
          :   Hmax (freq-cutoff)         5.0000000          :
          :   S6 in model hess.         20.0000000          :
          ...................................................

generating ANC from model Hessian ...
Using Lindh-Hessian (1995)
 Shifting diagonal of input Hessian by   5.126362062811919E-003
 Lowest  eigenvalues of input Hessian
    0.005000    0.005120   -0.000000    0.000000    0.000000    0.000000
    0.000000    0.000000    0.005156    0.005178    0.005182    0.005265
    0.005325    0.005349    0.005424    0.005487    0.005606    0.005766
 Highest eigenvalues
    2.065291    2.079428    2.139138    2.141226    2.236774    2.256267
 

........................................................................
.............................. CYCLE    1 ..............................
........................................................................
   1   -192.6808430 -0.192681E+03  0.933E-05    0.16       0.0  T
   2   -192.6808430  0.215985E-07  0.368E-04    0.16      27.6  T
   3   -192.6808430 -0.223507E-07  0.598E-05    0.16     169.8  T
     SCC iter.                  ...        0 min,  0.063 sec
     gradient                   ...        0 min,  0.177 sec
 * total energy  :  -190.4009016 Eh     change       -0.7356186E-07 Eh
   gradient norm :     0.5334338 Eh/α   predicted     0.0000000E+00 (-100.00%)
   displ. norm   :     0.5927099 α      lambda       -0.2386924E+00
   maximum displ.:     0.1786050 α      in ANC's #154, #273, #144, ...

........................................................................
.............................. CYCLE    2 ..............................
........................................................................
   1   -193.0287592 -0.193029E+03  0.524E-01    0.39       0.0  T
   2   -192.9748231  0.539361E-01  0.653E-01    0.05       1.0  T
   3   -193.0249668 -0.501437E-01  0.325E-01    0.75       1.0  T
   4   -193.0286620 -0.369517E-02  0.240E-01    0.48       1.0  T
   5   -193.0314937 -0.283169E-02  0.156E-01    0.48       1.0  T
   6   -193.0325377 -0.104406E-02  0.111E-01    0.41       1.0  T
   7   -193.0332225 -0.684755E-03  0.887E-02    0.31       1.0  T
   8   -193.0337536 -0.531167E-03  0.503E-02    0.24       1.0  T
   9   -193.0340383 -0.284699E-03  0.157E-02    0.19       1.0  T
  10   -193.0340477 -0.931966E-05  0.951E-03    0.19       1.1  T
  11   -193.0340506 -0.294061E-05  0.595E-03    0.19       1.7  T
  12   -193.0340544 -0.380156E-05  0.322E-03    0.19       3.2  T
     SCC iter.                  ...        0 min,  0.239 sec
     gradient                   ...        0 min,  0.165 sec
 * total energy  :  -190.5773708 Eh     change       -0.1764692E+00 Eh
   gradient norm :     0.1920799 Eh/α   predicted    -0.1612785E+00 (  -8.61%)
   displ. norm   :     0.6882327 α      lambda       -0.1052140E+00
   maximum displ.:     0.1651845 α      in ANC's #154, #79, #62, ...

........................................................................
.............................. CYCLE    3 ..............................
........................................................................
   1   -193.2295499 -0.193230E+03  0.465E-01    0.35       0.0  T
   2   -193.2217917  0.775822E-02  0.377E-01    0.13       1.0  T
   3   -193.2253607 -0.356906E-02  0.280E-01    0.53       1.0  T
   4   -193.2318291 -0.646837E-02  0.113E-01    0.37       1.0  T
   5   -193.2328273 -0.998200E-03  0.544E-02    0.28       1.0  T
   6   -193.2329529 -0.125609E-03  0.323E-02    0.24       1.0  T
   7   -193.2329701 -0.172152E-04  0.199E-02    0.23       1.0  T
   8   -193.2329888 -0.186123E-04  0.984E-03    0.22       1.0  T
   9   -193.2329950 -0.622214E-05  0.635E-03    0.23       1.6  T
  10   -193.2329988 -0.385555E-05  0.251E-03    0.22       4.0  T
  11   -193.2329991 -0.223962E-06  0.187E-03    0.23       5.4  T
     SCC iter.                  ...        0 min,  0.219 sec
     gradient                   ...        0 min,  0.166 sec
 * total energy  :  -190.6560515 Eh     change       -0.7868068E-01 Eh
   gradient norm :     0.1416931 Eh/α   predicted    -0.7752516E-01 (  -1.47%)
   displ. norm   :     0.7438692 α      lambda       -0.6357089E-01
   maximum displ.:     0.2013742 α      in ANC's #62, #42, #79, ...

........................................................................
.............................. CYCLE    4 ..............................
........................................................................
   1   -193.2759089 -0.193276E+03  0.457E-01    0.31       0.0  T
   2   -193.2745478  0.136105E-02  0.298E-01    0.20       1.0  T
   3   -193.2696447  0.490313E-02  0.283E-01    0.42       1.0  T
   4   -193.2774454 -0.780074E-02  0.673E-02    0.32       1.0  T
   5   -193.2777328 -0.287392E-03  0.375E-02    0.27       1.0  T
   6   -193.2777923 -0.595090E-04  0.194E-02    0.26       1.0  T
   7   -193.2778179 -0.256049E-04  0.730E-03    0.27       1.4  T
   8   -193.2778207 -0.282707E-05  0.361E-03    0.27       2.8  T
   9   -193.2778215 -0.732501E-06  0.185E-03    0.27       5.5  T
     SCC iter.                  ...        0 min,  0.179 sec
     gradient                   ...        0 min,  0.166 sec
 * total energy  :  -190.7029410 Eh     change       -0.4688953E-01 Eh
   gradient norm :     0.0756724 Eh/α   predicted    -0.4937365E-01 (   5.30%)
   displ. norm   :     0.8328044 α      lambda       -0.4139524E-01
   maximum displ.:     0.2021144 α      in ANC's #31, #21, #54, ...

........................................................................
.............................. CYCLE    5 ..............................
........................................................................
   1   -193.3689880 -0.193369E+03  0.486E-01    0.31       0.0  T
   2   -193.3689639  0.240214E-04  0.269E-01    0.31       1.0  T
   3   -193.3642786  0.468530E-02  0.249E-01    0.39       1.0  T
   4   -193.3697193 -0.544071E-02  0.589E-02    0.32       1.0  T
   5   -193.3699435 -0.224137E-03  0.297E-02    0.33       1.0  T
   6   -193.3699779 -0.344459E-04  0.127E-02    0.34       1.0  T
   7   -193.3699911 -0.131543E-04  0.502E-03    0.33       2.0  T
   8   -193.3699926 -0.155737E-05  0.245E-03    0.33       4.1  T
   9   -193.3699929 -0.278647E-06  0.115E-03    0.33       8.9  T
     SCC iter.                  ...        0 min,  0.178 sec
     gradient                   ...        0 min,  0.166 sec
 * total energy  :  -190.7303125 Eh     change       -0.2737153E-01 Eh
   gradient norm :     0.0743494 Eh/α   predicted    -0.3505274E-01 (  28.06%)
   displ. norm   :     0.8562230 α      lambda       -0.3741173E-01
   maximum displ.:     0.3451230 α      in ANC's #42, #32, #25, ...

........................................................................
.............................. CYCLE    6 ..............................
........................................................................
   1   -193.4119914 -0.193412E+03  0.491E-01    0.45       0.0  T
   2   -193.4121581 -0.166660E-03  0.266E-01    0.52       1.0  T
   3   -193.4088792  0.327890E-02  0.191E-01    0.47       1.0  T
   4   -193.4126242 -0.374503E-02  0.366E-02    0.53       1.0  T
   5   -193.4126516 -0.273799E-04  0.239E-02    0.52       1.0  T
   6   -193.4126812 -0.295706E-04  0.945E-03    0.52       1.1  T
   7   -193.4126874 -0.619248E-05  0.445E-03    0.52       2.3  T
   8   -193.4126885 -0.109753E-05  0.245E-03    0.52       4.1  T
   9   -193.4126887 -0.269255E-06  0.119E-03    0.52       8.5  T
     SCC iter.                  ...        0 min,  0.185 sec
     gradient                   ...        0 min,  0.167 sec
 * total energy  :  -190.7570485 Eh     change       -0.2673594E-01 Eh
   gradient norm :     0.0619240 Eh/α   predicted    -0.3241948E-01 (  21.26%)
   displ. norm   :     0.8157306 α      lambda       -0.2571188E-01
   maximum displ.:     0.2838560 α      in ANC's #21, #25, #31, ...

........................................................................
.............................. CYCLE    7 ..............................
........................................................................
   1   -193.4131972 -0.193413E+03  0.373E-01    0.56       0.0  T
   2   -193.4133202 -0.123022E-03  0.200E-01    0.61       1.0  T
   3   -193.4114039  0.191627E-02  0.149E-01    0.59       1.0  T
   4   -193.4136087 -0.220477E-02  0.296E-02    0.62       1.0  T
   5   -193.4136338 -0.251033E-04  0.196E-02    0.62       1.0  T
   6   -193.4136522 -0.184102E-04  0.877E-03    0.62       1.2  T
   7   -193.4136586 -0.642370E-05  0.363E-03    0.62       2.8  T
   8   -193.4136594 -0.740408E-06  0.184E-03    0.62       5.5  T
   9   -193.4136595 -0.873266E-07  0.107E-03    0.62       9.5  T
     SCC iter.                  ...        0 min,  0.178 sec
     gradient                   ...        0 min,  0.167 sec
 * total energy  :  -190.7777942 Eh     change       -0.2074573E-01 Eh
   gradient norm :     0.0650942 Eh/α   predicted    -0.2141050E-01 (   3.20%)
   displ. norm   :     0.8850906 α      lambda       -0.2688570E-01
   maximum displ.:     0.2793841 α      in ANC's #25, #14, #7, ...

........................................................................
.............................. CYCLE    8 ..............................
........................................................................
   1   -193.4516154 -0.193452E+03  0.434E-01    0.67       0.0  T
   2   -193.4518752 -0.259798E-03  0.234E-01    0.73       1.0  T
   3   -193.4499125  0.196263E-02  0.149E-01    0.70       1.0  T
   4   -193.4521558 -0.224326E-02  0.344E-02    0.73       1.0  T
   5   -193.4522073 -0.514788E-04  0.202E-02    0.73       1.0  T
   6   -193.4522298 -0.225315E-04  0.744E-03    0.73       1.4  T
   7   -193.4522335 -0.364330E-05  0.374E-03    0.73       2.7  T
   8   -193.4522343 -0.812528E-06  0.199E-03    0.73       5.1  T
     SCC iter.                  ...        0 min,  0.159 sec
     gradient                   ...        0 min,  0.167 sec
 * total energy  :  -190.7986823 Eh     change       -0.2088808E-01 Eh
   gradient norm :     0.0718998 Eh/α   predicted    -0.2397378E-01 (  14.77%)
   displ. norm   :     0.8515676 α      lambda       -0.2222456E-01
   maximum displ.:     0.3038718 α      in ANC's #21, #25, #7, ...

........................................................................
.............................. CYCLE    9 ..............................
........................................................................
   1   -193.4967009 -0.193497E+03  0.306E-01    0.73       0.0  T
   2   -193.4968496 -0.148723E-03  0.165E-01    0.80       1.0  T
   3   -193.4956360  0.121360E-02  0.112E-01    0.74       1.0  T
   4   -193.4970212 -0.138525E-02  0.289E-02    0.79       1.0  T
   5   -193.4970389 -0.176546E-04  0.181E-02    0.79       1.0  T
   6   -193.4970533 -0.143680E-04  0.806E-03    0.79       1.3  T
   7   -193.4970591 -0.581550E-05  0.304E-03    0.79       3.3  T
   8   -193.4970595 -0.461663E-06  0.156E-03    0.79       6.5  T
     SCC iter.                  ...        0 min,  0.159 sec
     gradient                   ...        0 min,  0.167 sec
 * total energy  :  -190.8173563 Eh     change       -0.1867400E-01 Eh
   gradient norm :     0.0697966 Eh/α   predicted    -0.1917053E-01 (   2.66%)
   displ. norm   :     0.8902053 α      lambda       -0.2225216E-01
   maximum displ.:     0.3087104 α      in ANC's #25, #21, #7, ...

........................................................................
.............................. CYCLE   10 ..............................
........................................................................
   1   -193.5013103 -0.193501E+03  0.350E-01    0.73       0.0  T
   2   -193.5014309 -0.120579E-03  0.191E-01    0.80       1.0  T
   3   -193.4995191  0.191187E-02  0.151E-01    0.75       1.0  T
   4   -193.5017364 -0.221734E-02  0.282E-02    0.81       1.0  T
   5   -193.5017517 -0.152786E-04  0.204E-02    0.80       1.0  T
   6   -193.5017787 -0.270683E-04  0.753E-03    0.80       1.3  T
   7   -193.5017830 -0.427017E-05  0.317E-03    0.80       3.2  T
   8   -193.5017834 -0.359289E-06  0.177E-03    0.80       5.7  T
     SCC iter.                  ...        0 min,  0.160 sec
     gradient                   ...        0 min,  0.167 sec
 * total energy  :  -190.8346389 Eh     change       -0.1728263E-01 Eh
   gradient norm :     0.0825142 Eh/α   predicted    -0.1994314E-01 (  15.39%)
   displ. norm   :     0.8492516 α      lambda       -0.1982495E-01
   maximum displ.:     0.3026769 α      in ANC's #21, #25, #7, ...

........................................................................
.............................. CYCLE   11 ..............................
........................................................................
   1   -193.5222291 -0.193522E+03  0.313E-01    0.81       0.0  T
   2   -193.5222872 -0.580749E-04  0.171E-01    0.86       1.0  T
   3   -193.5205782  0.170904E-02  0.139E-01    0.81       1.0  T
   4   -193.5225520 -0.197384E-02  0.277E-02    0.86       1.0  T
   5   -193.5225649 -0.129009E-04  0.191E-02    0.85       1.0  T
   6   -193.5225864 -0.214686E-04  0.615E-03    0.85       1.7  T
   7   -193.5225893 -0.297727E-05  0.283E-03    0.85       3.6  T
   8   -193.5225897 -0.381915E-06  0.165E-03    0.85       6.1  T
     SCC iter.                  ...        0 min,  0.159 sec
     gradient                   ...        0 min,  0.167 sec
 * total energy  :  -190.8518837 Eh     change       -0.1724478E-01 Eh
   gradient norm :     0.0446799 Eh/α   predicted    -0.1706165E-01 (  -1.06%)
   displ. norm   :     0.8768155 α      lambda       -0.1816632E-01
   maximum displ.:     0.3166665 α      in ANC's #7, #25, #21, ...

........................................................................
.............................. CYCLE   12 ..............................
........................................................................
   1   -193.5556767 -0.193556E+03  0.312E-01    0.83       0.0  T
   2   -193.5556754  0.129412E-05  0.175E-01    0.89       1.0  T
   3   -193.5534122  0.226329E-02  0.161E-01    0.82       1.0  T
   4   -193.5561104 -0.269826E-02  0.283E-02    0.88       1.0  T
   5   -193.5561334 -0.229637E-04  0.176E-02    0.87       1.0  T
   6   -193.5561500 -0.166311E-04  0.560E-03    0.87       1.8  T
   7   -193.5561519 -0.184984E-05  0.242E-03    0.87       4.2  T
   8   -193.5561520 -0.144660E-06  0.149E-03    0.87       6.8  T
     SCC iter.                  ...        0 min,  0.159 sec
     gradient                   ...        0 min,  0.169 sec
 * total energy  :  -190.8677248 Eh     change       -0.1584113E-01 Eh
   gradient norm :     0.0393877 Eh/α   predicted    -0.1606634E-01 (   1.42%)
   displ. norm   :     0.9231465 α      lambda       -0.1724815E-01
   maximum displ.:     0.3353642 α      in ANC's #7, #21, #25, ...

........................................................................
.............................. CYCLE   13 ..............................
........................................................................
   1   -193.5635210 -0.193564E+03  0.357E-01    0.83       0.0  T
   2   -193.5636255 -0.104477E-03  0.202E-01    0.91       1.0  T
   3   -193.5607868  0.283866E-02  0.179E-01    0.84       1.0  T
   4   -193.5641318 -0.334500E-02  0.325E-02    0.90       1.0  T
   5   -193.5641747 -0.428165E-04  0.200E-02    0.89       1.0  T
   6   -193.5641960 -0.213463E-04  0.815E-03    0.90       1.2  T
   7   -193.5641996 -0.356592E-05  0.353E-03    0.89       2.9  T
   8   -193.5642001 -0.572279E-06  0.213E-03    0.90       4.8  T
     SCC iter.                  ...        0 min,  0.161 sec
     gradient                   ...        0 min,  0.167 sec
 * total energy  :  -190.8822133 Eh     change       -0.1448847E-01 Eh
   gradient norm :     0.0656518 Eh/α   predicted    -0.1597352E-01 (  10.25%)
   displ. norm   :     0.8648320 α      lambda       -0.1631058E-01
   maximum displ.:     0.3333766 α      in ANC's #7, #25, #21, ...

........................................................................
.............................. CYCLE   14 ..............................
........................................................................
   1   -193.5891203 -0.193589E+03  0.287E-01    0.92       0.0  T
   2   -193.5890940  0.262586E-04  0.165E-01    0.98       1.0  T
   3   -193.5867419  0.235205E-02  0.161E-01    0.91       1.0  T
   4   -193.5896225 -0.288060E-02  0.258E-02    0.97       1.0  T
   5   -193.5896422 -0.196309E-04  0.161E-02    0.96       1.0  T
   6   -193.5896568 -0.146490E-04  0.675E-03    0.97       1.5  T
   7   -193.5896600 -0.314947E-05  0.284E-03    0.96       3.6  T
   8   -193.5896604 -0.422736E-06  0.148E-03    0.96       6.8  T
     SCC iter.                  ...        0 min,  0.159 sec
     gradient                   ...        0 min,  0.168 sec
 * total energy  :  -190.8954051 Eh     change       -0.1319186E-01 Eh
   gradient norm :     0.0459788 Eh/α   predicted    -0.1425494E-01 (   8.06%)
   displ. norm   :     0.8786509 α      lambda       -0.1460687E-01
   maximum displ.:     0.3523538 α      in ANC's #7, #21, #25, ...

........................................................................
.............................. CYCLE   15 ..............................
........................................................................
   1   -193.6028528 -0.193603E+03  0.299E-01    0.97       0.0  T
   2   -193.6028459  0.691992E-05  0.170E-01    1.00       1.0  T
   3   -193.6006109  0.223499E-02  0.151E-01    0.95       1.0  T
   4   -193.6032032 -0.259233E-02  0.253E-02    1.00       1.0  T
   5   -193.6032227 -0.194808E-04  0.170E-02    0.99       1.0  T
   6   -193.6032409 -0.182028E-04  0.549E-03    0.99       1.8  T
   7   -193.6032426 -0.166113E-05  0.281E-03    0.99       3.6  T
   8   -193.6032430 -0.383083E-06  0.161E-03    0.99       6.3  T
     SCC iter.                  ...        0 min,  0.159 sec
     gradient                   ...        0 min,  0.167 sec
 * total energy  :  -190.9076170 Eh     change       -0.1221185E-01 Eh
   gradient norm :     0.0371257 Eh/α   predicted    -0.1294190E-01 (   5.98%)
   displ. norm   :     0.8873531 α      lambda       -0.1402231E-01
   maximum displ.:     0.3239956 α      in ANC's #7, #31, #21, ...

........................................................................
.............................. CYCLE   16 ..............................
........................................................................
   1   -193.6215152 -0.193622E+03  0.301E-01    0.96       0.0  T
   2   -193.6217286 -0.213416E-03  0.175E-01    1.00       1.0  T
   3   -193.6202995  0.142910E-02  0.135E-01    0.96       1.0  T
   4   -193.6220263 -0.172677E-02  0.336E-02    1.00       1.0  T
   5   -193.6220960 -0.696787E-04  0.192E-02    0.99       1.0  T
   6   -193.6221187 -0.226959E-04  0.783E-03    0.99       1.3  T
   7   -193.6221217 -0.304557E-05  0.356E-03    0.99       2.9  T
   8   -193.6221225 -0.775012E-06  0.197E-03    0.99       5.2  T
     SCC iter.                  ...        0 min,  0.159 sec
     gradient                   ...        0 min,  0.168 sec
 * total energy  :  -190.9180937 Eh     change       -0.1047671E-01 Eh
   gradient norm :     0.0543776 Eh/α   predicted    -0.1253171E-01 (  19.61%)
   displ. norm   :     0.8287922 α      lambda       -0.1375250E-01
   maximum displ.:     0.3519155 α      in ANC's #7, #13, #9, ...

........................................................................
.............................. CYCLE   17 ..............................
........................................................................
   1   -193.6272433 -0.193627E+03  0.288E-01    0.97       0.0  T
   2   -193.6277783 -0.535011E-03  0.161E-01    1.00       1.0  T
   3   -193.6268990  0.879337E-03  0.106E-01    0.97       1.0  T
   4   -193.6278683 -0.969373E-03  0.367E-02    1.01       1.0  T
   5   -193.6279901 -0.121743E-03  0.160E-02    0.99       1.0  T
   6   -193.6280086 -0.185509E-04  0.712E-03    1.00       1.4  T
   7   -193.6280112 -0.253251E-05  0.324E-03    1.00       3.1  T
   8   -193.6280118 -0.595060E-06  0.160E-03    1.00       6.3  T
     SCC iter.                  ...        0 min,  0.159 sec
     gradient                   ...        0 min,  0.168 sec
 * total energy  :  -190.9262322 Eh     change       -0.8138536E-02 Eh
   gradient norm :     0.0915277 Eh/α   predicted    -0.1159951E-01 (  42.53%)
   displ. norm   :     0.7117962 α      lambda       -0.1511723E-01
   maximum displ.:     0.2940682 α      in ANC's #7, #9, #18, ...

........................................................................
.............................. CYCLE   18 ..............................
........................................................................
   1   -193.6223088 -0.193622E+03  0.250E-01    1.03       0.0  T
   2   -193.6225959 -0.287091E-03  0.157E-01    1.07       1.0  T
   3   -193.6218981  0.697768E-03  0.123E-01    1.02       1.0  T
   4   -193.6230553 -0.115714E-02  0.411E-02    1.06       1.0  T
   5   -193.6232092 -0.153960E-03  0.193E-02    1.05       1.0  T
   6   -193.6232404 -0.311584E-04  0.689E-03    1.05       1.5  T
   7   -193.6232421 -0.169151E-05  0.357E-03    1.05       2.8  T
   8   -193.6232427 -0.604328E-06  0.150E-03    1.05       6.8  T
     SCC iter.                  ...        0 min,  0.159 sec
     gradient                   ...        0 min,  0.168 sec
 * total energy  :  -190.9343904 Eh     change       -0.8158144E-02 Eh
   gradient norm :     0.0551755 Eh/α   predicted    -0.1138822E-01 (  39.59%)
   displ. norm   :     0.7085764 α      lambda       -0.1341341E-01
   maximum displ.:     0.2650757 α      in ANC's #7, #20, #16, ...

........................................................................
.............................. CYCLE   19 ..............................
........................................................................
   1   -193.6682136 -0.193668E+03  0.236E-01    1.02       0.0  T
   2   -193.6683914 -0.177863E-03  0.137E-01    1.04       1.0  T
   3   -193.6677285  0.662939E-03  0.954E-02    1.02       1.0  T
   4   -193.6685268 -0.798340E-03  0.266E-02    1.04       1.0  T
   5   -193.6685772 -0.503440E-04  0.130E-02    1.03       1.0  T
   6   -193.6685873 -0.101017E-04  0.578E-03    1.03       1.8  T
   7   -193.6685895 -0.217532E-05  0.293E-03    1.03       3.5  T
   8   -193.6685902 -0.705929E-06  0.128E-03    1.03       7.9  T
     SCC iter.                  ...        0 min,  0.158 sec
     gradient                   ...        0 min,  0.168 sec
 * total energy  :  -190.9401533 Eh     change       -0.5762924E-02 Eh
   gradient norm :     0.1009802 Eh/α   predicted    -0.1007399E-01 (  74.81%)
   displ. norm   :     0.6597089 α      lambda       -0.1457292E-01
   maximum displ.:     0.2686107 α      in ANC's #7, #18, #9, ...

........................................................................
.............................. CYCLE   20 ..............................
........................................................................
   1   -193.6617552 -0.193662E+03  0.231E-01    1.02       0.0  T
   2   -193.6619718 -0.216526E-03  0.133E-01    1.03       1.0  T
   3   -193.6614261  0.545677E-03  0.889E-02    1.02       1.0  T
   4   -193.6620817 -0.655644E-03  0.223E-02    1.03       1.0  T
   5   -193.6621106 -0.288954E-04  0.139E-02    1.02       1.0  T
   6   -193.6621269 -0.162711E-04  0.590E-03    1.03       1.7  T
   7   -193.6621288 -0.191722E-05  0.267E-03    1.03       3.8  T
   8   -193.6621292 -0.369877E-06  0.143E-03    1.03       7.1  T
     SCC iter.                  ...        0 min,  0.159 sec
     gradient                   ...        0 min,  0.168 sec
 * total energy  :  -190.9487901 Eh     change       -0.8636741E-02 Eh
   gradient norm :     0.0586544 Eh/α   predicted    -0.1045764E-01 (  21.08%)
   displ. norm   :     0.7593265 α      lambda       -0.1049810E-01
   maximum displ.:     0.3321754 α      in ANC's #7, #9, #18, ...
 * RMSD in coord.:     1.3592733 α      energy gain  -0.5478886E+00 Eh

generating ANC from model Hessian ...
Using Lindh-Hessian (1995)
 Shifting diagonal of input Hessian by   4.983678014826614E-003
 Lowest  eigenvalues of input Hessian
   -0.000000   -0.000000   -0.000000    0.000000    0.000000    0.000000
    0.005000    0.005016    0.005036    0.005105    0.005190    0.005256
    0.005330    0.005361    0.005575    0.005840    0.006071    0.006223
 Highest eigenvalues
    2.236245    2.278311    2.558630    2.562840    2.611106    2.643784
 

........................................................................
.............................. CYCLE   21 ..............................
........................................................................
   1   -193.6480564 -0.193648E+03  0.246E-01    1.02       0.0  T
   2   -193.6481189 -0.624638E-04  0.137E-01    1.05       1.0  T
   3   -193.6470210  0.109783E-02  0.988E-02    1.00       1.0  T
   4   -193.6482234 -0.120240E-02  0.231E-02    1.05       1.0  T
   5   -193.6482530 -0.295195E-04  0.145E-02    1.04       1.0  T
   6   -193.6482686 -0.156333E-04  0.444E-03    1.04       2.3  T
   7   -193.6482698 -0.122002E-05  0.182E-03    1.04       5.6  T
   8   -193.6482699 -0.914641E-07  0.110E-03    1.04       9.2  T
   9   -193.6482699 -0.200116E-07  0.613E-04    1.04      16.6  T
  10   -193.6482699 -0.268212E-07  0.256E-04    1.04      39.7  T
     SCC iter.                  ...        0 min,  0.199 sec
     gradient                   ...        0 min,  0.181 sec
 * total energy  :  -190.9563948 Eh     change       -0.7604755E-02 Eh
   gradient norm :     0.0557784 Eh/α   predicted     0.0000000E+00 (-100.00%)
   displ. norm   :     0.6543422 α      lambda       -0.8857094E-02
   maximum displ.:     0.3755859 α      in ANC's #8, #14, #6, ...

........................................................................
.............................. CYCLE   22 ..............................
........................................................................
   1   -193.6890449 -0.193689E+03  0.177E-01    1.05       0.0  T
   2   -193.6890921 -0.471963E-04  0.974E-02    1.05       1.0  T
   3   -193.6889252  0.166936E-03  0.421E-02    1.04       1.0  T
   4   -193.6891124 -0.187244E-03  0.131E-02    1.05       1.0  T
   5   -193.6891168 -0.435874E-05  0.784E-03    1.05       1.3  T
   6   -193.6891219 -0.508318E-05  0.326E-03    1.05       3.1  T
   7   -193.6891228 -0.926453E-06  0.148E-03    1.05       6.9  T
     SCC iter.                  ...        0 min,  0.140 sec
     gradient                   ...        0 min,  0.168 sec
 * total energy  :  -190.9639720 Eh     change       -0.7577180E-02 Eh
   gradient norm :     0.0172380 Eh/α   predicted    -0.6325333E-02 ( -16.52%)
   displ. norm   :     0.7279167 α      lambda       -0.7569861E-02
   maximum displ.:     0.3811055 α      in ANC's #8, #14, #24, ...

........................................................................
.............................. CYCLE   23 ..............................
........................................................................
   1   -193.7097322 -0.193710E+03  0.207E-01    1.05       0.0  T
   2   -193.7097854 -0.531644E-04  0.113E-01    1.05       1.0  T
   3   -193.7095626  0.222788E-03  0.479E-02    1.04       1.0  T
   4   -193.7098094 -0.246744E-03  0.151E-02    1.05       1.0  T
   5   -193.7098161 -0.671471E-05  0.877E-03    1.05       1.2  T
   6   -193.7098225 -0.645728E-05  0.361E-03    1.05       2.8  T
   7   -193.7098237 -0.114762E-05  0.165E-03    1.05       6.1  T
   8   -193.7098238 -0.109829E-06  0.981E-04    1.05      10.4  T
     SCC iter.                  ...        0 min,  0.160 sec
     gradient                   ...        0 min,  0.170 sec
 * total energy  :  -190.9710120 Eh     change       -0.7040022E-02 Eh
   gradient norm :     0.0220306 Eh/α   predicted    -0.5790423E-02 ( -17.75%)
   displ. norm   :     0.9187850 α      lambda       -0.9154659E-02
   maximum displ.:     0.4703003 α      in ANC's #8, #14, #24, ...

........................................................................
.............................. CYCLE   24 ..............................
........................................................................
   1   -193.7147698 -0.193715E+03  0.272E-01    1.04       0.0  T
   2   -193.7148599 -0.901390E-04  0.149E-01    1.05       1.0  T
   3   -193.7144810  0.378925E-03  0.618E-02    1.03       1.0  T
   4   -193.7148990 -0.418008E-03  0.189E-02    1.05       1.0  T
   5   -193.7149130 -0.140124E-04  0.106E-02    1.04       1.0  T
   6   -193.7149221 -0.908622E-05  0.433E-03    1.05       2.3  T
   7   -193.7149237 -0.158135E-05  0.213E-03    1.05       4.8  T
   8   -193.7149239 -0.219939E-06  0.121E-03    1.05       8.4  T
     SCC iter.                  ...        0 min,  0.160 sec
     gradient                   ...        0 min,  0.168 sec
 * total energy  :  -190.9793235 Eh     change       -0.8311441E-02 Eh
   gradient norm :     0.0244081 Eh/α   predicted    -0.8441359E-02 (   1.56%)
   displ. norm   :     0.9164204 α      lambda       -0.8877209E-02
   maximum displ.:     0.4868804 α      in ANC's #8, #14, #6, ...

........................................................................
.............................. CYCLE   25 ..............................
........................................................................
   1   -193.7147466 -0.193715E+03  0.255E-01    1.04       0.0  T
   2   -193.7148270 -0.803920E-04  0.140E-01    1.05       1.0  T
   3   -193.7145051  0.321896E-03  0.567E-02    1.03       1.0  T
   4   -193.7148625 -0.357447E-03  0.180E-02    1.04       1.0  T
   5   -193.7148758 -0.132930E-04  0.977E-03    1.04       1.0  T
   6   -193.7148826 -0.681933E-05  0.395E-03    1.04       2.6  T
   7   -193.7148839 -0.123457E-05  0.202E-03    1.04       5.0  T
   8   -193.7148840 -0.176972E-06  0.124E-03    1.04       8.2  T
     SCC iter.                  ...        0 min,  0.160 sec
     gradient                   ...        0 min,  0.168 sec
 * total energy  :  -190.9875298 Eh     change       -0.8206362E-02 Eh
   gradient norm :     0.0313599 Eh/α   predicted    -0.8166258E-02 (  -0.49%)
   displ. norm   :     0.9084859 α      lambda       -0.8888783E-02
   maximum displ.:     0.5083419 α      in ANC's #8, #14, #26, ...

........................................................................
.............................. CYCLE   26 ..............................
........................................................................
   1   -193.7248865 -0.193725E+03  0.242E-01    1.04       0.0  T
   2   -193.7249605 -0.739950E-04  0.133E-01    1.04       1.0  T
   3   -193.7246173  0.343168E-03  0.600E-02    1.03       1.0  T
   4   -193.7250031 -0.385850E-03  0.179E-02    1.04       1.0  T
   5   -193.7250147 -0.115837E-04  0.959E-03    1.04       1.1  T
   6   -193.7250206 -0.584385E-05  0.362E-03    1.04       2.8  T
   7   -193.7250214 -0.817666E-06  0.168E-03    1.04       6.1  T
     SCC iter.                  ...        0 min,  0.141 sec
     gradient                   ...        0 min,  0.168 sec
 * total energy  :  -190.9954242 Eh     change       -0.7894418E-02 Eh
   gradient norm :     0.0233016 Eh/α   predicted    -0.8112555E-02 (   2.76%)
   displ. norm   :     0.9087853 α      lambda       -0.8452057E-02
   maximum displ.:     0.5234897 α      in ANC's #8, #14, #9, ...

........................................................................
.............................. CYCLE   27 ..............................
........................................................................
   1   -193.7291887 -0.193729E+03  0.240E-01    1.03       0.0  T
   2   -193.7292603 -0.716174E-04  0.132E-01    1.04       1.0  T
   3   -193.7290025  0.257838E-03  0.533E-02    1.02       1.0  T
   4   -193.7292896 -0.287139E-03  0.174E-02    1.04       1.0  T
   5   -193.7292991 -0.944281E-05  0.106E-02    1.03       1.0  T
   6   -193.7293085 -0.939764E-05  0.400E-03    1.04       2.5  T
   7   -193.7293097 -0.120633E-05  0.195E-03    1.03       5.2  T
   8   -193.7293098 -0.112303E-06  0.123E-03    1.03       8.2  T
     SCC iter.                  ...        0 min,  0.160 sec
     gradient                   ...        0 min,  0.169 sec
 * total energy  :  -191.0033384 Eh     change       -0.7914181E-02 Eh
   gradient norm :     0.0256259 Eh/α   predicted    -0.7716269E-02 (  -2.50%)
   displ. norm   :     0.9074615 α      lambda       -0.8526758E-02
   maximum displ.:     0.5302073 α      in ANC's #8, #14, #9, ...

........................................................................
.............................. CYCLE   28 ..............................
........................................................................
   1   -193.7511740 -0.193751E+03  0.240E-01    1.02       0.0  T
   2   -193.7512442 -0.701998E-04  0.132E-01    1.04       1.0  T
   3   -193.7508704  0.373746E-03  0.590E-02    1.01       1.0  T
   4   -193.7512729 -0.402501E-03  0.191E-02    1.04       1.0  T
   5   -193.7512915 -0.185815E-04  0.113E-02    1.03       1.0  T
   6   -193.7513003 -0.875577E-05  0.384E-03    1.03       2.6  T
   7   -193.7513011 -0.828662E-06  0.197E-03    1.03       5.2  T
   8   -193.7513012 -0.131168E-06  0.118E-03    1.03       8.6  T
     SCC iter.                  ...        0 min,  0.160 sec
     gradient                   ...        0 min,  0.168 sec
 * total energy  :  -191.0109819 Eh     change       -0.7643534E-02 Eh
   gradient norm :     0.0328413 Eh/α   predicted    -0.7774204E-02 (   1.71%)
   displ. norm   :     0.9288333 α      lambda       -0.8518793E-02
   maximum displ.:     0.5249009 α      in ANC's #8, #9, #14, ...

........................................................................
.............................. CYCLE   29 ..............................
........................................................................
   1   -193.7601834 -0.193760E+03  0.236E-01    1.03       0.0  T
   2   -193.7602373 -0.538429E-04  0.130E-01    1.05       1.0  T
   3   -193.7596130  0.624227E-03  0.711E-02    1.01       1.0  T
   4   -193.7602917 -0.678664E-03  0.185E-02    1.04       1.0  T
   5   -193.7603037 -0.120256E-04  0.106E-02    1.04       1.0  T
   6   -193.7603108 -0.706222E-05  0.313E-03    1.04       3.2  T
   7   -193.7603112 -0.457174E-06  0.172E-03    1.04       5.9  T
   8   -193.7603113 -0.660415E-07  0.103E-03    1.04       9.8  T
     SCC iter.                  ...        0 min,  0.160 sec
     gradient                   ...        0 min,  0.168 sec
 * total energy  :  -191.0185306 Eh     change       -0.7548660E-02 Eh
   gradient norm :     0.0265647 Eh/α   predicted    -0.7934109E-02 (   5.11%)
   displ. norm   :     0.9088828 α      lambda       -0.7960505E-02
   maximum displ.:     0.5268519 α      in ANC's #8, #9, #14, ...

........................................................................
.............................. CYCLE   30 ..............................
........................................................................
   1   -193.7608560 -0.193761E+03  0.252E-01    1.03       0.0  T
   2   -193.7609167 -0.607216E-04  0.137E-01    1.04       1.0  T
   3   -193.7605115  0.405201E-03  0.617E-02    1.02       1.0  T
   4   -193.7609526 -0.441119E-03  0.186E-02    1.04       1.0  T
   5   -193.7609646 -0.119743E-04  0.111E-02    1.04       1.0  T
   6   -193.7609745 -0.986027E-05  0.293E-03    1.04       3.5  T
   7   -193.7609748 -0.276938E-06  0.170E-03    1.04       6.0  T
   8   -193.7609748 -0.209377E-07  0.961E-04    1.04      10.6  T
     SCC iter.                  ...        0 min,  0.160 sec
     gradient                   ...        0 min,  0.169 sec
 * total energy  :  -191.0258520 Eh     change       -0.7321423E-02 Eh
   gradient norm :     0.0329904 Eh/α   predicted    -0.7268217E-02 (  -0.73%)
   displ. norm   :     0.8883073 α      lambda       -0.8210868E-02
   maximum displ.:     0.5264590 α      in ANC's #8, #9, #6, ...

........................................................................
.............................. CYCLE   31 ..............................
........................................................................
   1   -193.7985802 -0.193799E+03  0.224E-01    1.04       0.0  T
   2   -193.7986341 -0.539553E-04  0.121E-01    1.05       1.0  T
   3   -193.7983294  0.304677E-03  0.555E-02    1.03       1.0  T
   4   -193.7986621 -0.332631E-03  0.185E-02    1.04       1.0  T
   5   -193.7986698 -0.767513E-05  0.120E-02    1.04       1.0  T
   6   -193.7986810 -0.112854E-04  0.339E-03    1.04       3.0  T
   7   -193.7986817 -0.705833E-06  0.184E-03    1.04       5.5  T
   8   -193.7986819 -0.122515E-06  0.105E-03    1.04       9.6  T
     SCC iter.                  ...        0 min,  0.160 sec
     gradient                   ...        0 min,  0.168 sec
 * total energy  :  -191.0327994 Eh     change       -0.6947361E-02 Eh
   gradient norm :     0.0309042 Eh/α   predicted    -0.7344988E-02 (   5.72%)
   displ. norm   :     0.9208166 α      lambda       -0.8335726E-02
   maximum displ.:     0.5071937 α      in ANC's #8, #26, #9, ...

........................................................................
.............................. CYCLE   32 ..............................
........................................................................
   1   -193.7819662 -0.193782E+03  0.235E-01    1.03       0.0  T
   2   -193.7820336 -0.673564E-04  0.129E-01    1.04       1.0  T
   3   -193.7818118  0.221809E-03  0.473E-02    1.03       1.0  T
   4   -193.7820472 -0.235477E-03  0.178E-02    1.04       1.0  T
   5   -193.7820632 -0.159583E-04  0.941E-03    1.04       1.1  T
   6   -193.7820709 -0.774034E-05  0.320E-03    1.04       3.2  T
   7   -193.7820716 -0.680691E-06  0.159E-03    1.04       6.4  T
   8   -193.7820717 -0.480658E-07  0.959E-04    1.04      10.6  T
     SCC iter.                  ...        0 min,  0.159 sec
     gradient                   ...        0 min,  0.168 sec
 * total energy  :  -191.0392854 Eh     change       -0.6486049E-02 Eh
   gradient norm :     0.0431842 Eh/α   predicted    -0.7701815E-02 (  18.74%)
   displ. norm   :     0.8524312 α      lambda       -0.7931412E-02
   maximum displ.:     0.4910728 α      in ANC's #8, #9, #6, ...

........................................................................
.............................. CYCLE   33 ..............................
........................................................................
   1   -193.7786964 -0.193779E+03  0.224E-01    1.03       0.0  T
   2   -193.7787525 -0.561150E-04  0.122E-01    1.04       1.0  T
   3   -193.7785874  0.165092E-03  0.467E-02    1.03       1.0  T
   4   -193.7787711 -0.183721E-03  0.168E-02    1.04       1.0  T
   5   -193.7787736 -0.249799E-05  0.105E-02    1.03       1.0  T
   6   -193.7787859 -0.122823E-04  0.277E-03    1.04       3.7  T
   7   -193.7787862 -0.318476E-06  0.158E-03    1.04       6.4  T
   8   -193.7787862 -0.324182E-07  0.985E-04    1.04      10.3  T
     SCC iter.                  ...        0 min,  0.160 sec
     gradient                   ...        0 min,  0.169 sec
 * total energy  :  -191.0459333 Eh     change       -0.6647814E-02 Eh
   gradient norm :     0.0280056 Eh/α   predicted    -0.6847349E-02 (   3.00%)
   displ. norm   :     0.8502610 α      lambda       -0.7416240E-02
   maximum displ.:     0.4880699 α      in ANC's #8, #9, #6, ...

........................................................................
.............................. CYCLE   34 ..............................
........................................................................
   1   -193.8020667 -0.193802E+03  0.234E-01    1.03       0.0  T
   2   -193.8021388 -0.721103E-04  0.125E-01    1.04       1.0  T
   3   -193.8020053  0.133541E-03  0.434E-02    1.03       1.0  T
   4   -193.8021529 -0.147568E-03  0.180E-02    1.04       1.0  T
   5   -193.8021634 -0.105063E-04  0.924E-03    1.03       1.1  T
   6   -193.8021715 -0.808681E-05  0.327E-03    1.04       3.1  T
   7   -193.8021722 -0.691460E-06  0.168E-03    1.04       6.0  T
   8   -193.8021722 -0.504152E-07  0.108E-03    1.04       9.4  T
     SCC iter.                  ...        0 min,  0.159 sec
     gradient                   ...        0 min,  0.169 sec
 * total energy  :  -191.0516283 Eh     change       -0.5695004E-02 Eh
   gradient norm :     0.0590437 Eh/α   predicted    -0.6388883E-02 (  12.18%)
   displ. norm   :     0.8157501 α      lambda       -0.8522587E-02
   maximum displ.:     0.4450351 α      in ANC's #8, #26, #6, ...

........................................................................
.............................. CYCLE   35 ..............................
........................................................................
   1   -193.8294096 -0.193829E+03  0.244E-01    1.04       0.0  T
   2   -193.8295040 -0.943845E-04  0.131E-01    1.03       1.0  T
   3   -193.8292724  0.231539E-03  0.572E-02    1.04       1.0  T
   4   -193.8295440 -0.271565E-03  0.170E-02    1.03       1.0  T
   5   -193.8295503 -0.628088E-05  0.831E-03    1.03       1.2  T
   6   -193.8295558 -0.554029E-05  0.342E-03    1.03       3.0  T
   7   -193.8295566 -0.769790E-06  0.166E-03    1.03       6.1  T
     SCC iter.                  ...        0 min,  0.140 sec
     gradient                   ...        0 min,  0.169 sec
 * total energy  :  -191.0576566 Eh     change       -0.6028358E-02 Eh
   gradient norm :     0.0415486 Eh/α   predicted    -0.7096973E-02 (  17.73%)
   displ. norm   :     0.8572557 α      lambda       -0.7859625E-02
   maximum displ.:     0.4568509 α      in ANC's #8, #6, #5, ...

........................................................................
.............................. CYCLE   36 ..............................
........................................................................
   1   -193.8173982 -0.193817E+03  0.223E-01    1.03       0.0  T
   2   -193.8174715 -0.733067E-04  0.122E-01    1.03       1.0  T
   3   -193.8173806  0.908670E-04  0.373E-02    1.03       1.0  T
   4   -193.8174859 -0.105253E-03  0.164E-02    1.03       1.0  T
   5   -193.8174946 -0.875949E-05  0.745E-03    1.03       1.4  T
   6   -193.8174989 -0.427342E-05  0.313E-03    1.03       3.2  T
   7   -193.8174997 -0.768481E-06  0.144E-03    1.03       7.1  T
     SCC iter.                  ...        0 min,  0.139 sec
     gradient                   ...        0 min,  0.169 sec
 * total energy  :  -191.0628894 Eh     change       -0.5232739E-02 Eh
   gradient norm :     0.0438490 Eh/α   predicted    -0.6817784E-02 (  30.29%)
   displ. norm   :     0.7944278 α      lambda       -0.7620801E-02
   maximum displ.:     0.4574080 α      in ANC's #8, #3, #6, ...

........................................................................
.............................. CYCLE   37 ..............................
........................................................................
   1   -193.7948381 -0.193795E+03  0.225E-01    1.02       0.0  T
   2   -193.7949089 -0.708163E-04  0.123E-01    1.02       1.0  T
   3   -193.7946792  0.229656E-03  0.548E-02    1.02       1.0  T
   4   -193.7949454 -0.266186E-03  0.159E-02    1.03       1.0  T
   5   -193.7949484 -0.300245E-05  0.954E-03    1.02       1.1  T
   6   -193.7949562 -0.778528E-05  0.378E-03    1.02       2.7  T
   7   -193.7949574 -0.122732E-05  0.145E-03    1.02       7.0  T
   8   -193.7949574 -0.228095E-07  0.953E-04    1.02      10.7  T
     SCC iter.                  ...        0 min,  0.158 sec
     gradient                   ...        0 min,  0.168 sec
 * total energy  :  -191.0678083 Eh     change       -0.4918989E-02 Eh
   gradient norm :     0.0446710 Eh/α   predicted    -0.6215206E-02 (  26.35%)
   displ. norm   :     0.6649423 α      lambda       -0.7765588E-02
   maximum displ.:     0.3455665 α      in ANC's #8, #3, #6, ...

........................................................................
.............................. CYCLE   38 ..............................
........................................................................
   1   -193.8370689 -0.193837E+03  0.190E-01    1.03       0.0  T
   2   -193.8371267 -0.578083E-04  0.991E-02    1.02       1.0  T
   3   -193.8368992  0.227505E-03  0.475E-02    1.04       1.0  T
   4   -193.8371477 -0.248518E-03  0.177E-02    1.02       1.0  T
   5   -193.8371601 -0.123120E-04  0.942E-03    1.02       1.1  T
   6   -193.8371654 -0.533412E-05  0.304E-03    1.02       3.3  T
   7   -193.8371659 -0.535893E-06  0.130E-03    1.02       7.8  T
     SCC iter.                  ...        0 min,  0.139 sec
     gradient                   ...        0 min,  0.169 sec
 * total energy  :  -191.0727353 Eh     change       -0.4926938E-02 Eh
   gradient norm :     0.0355607 Eh/α   predicted    -0.5599564E-02 (  13.65%)
   displ. norm   :     0.8356399 α      lambda       -0.7598424E-02
   maximum displ.:     0.4385725 α      in ANC's #8, #9, #6, ...

........................................................................
.............................. CYCLE   39 ..............................
........................................................................
   1   -193.8457813 -0.193846E+03  0.219E-01    1.02       0.0  T
   2   -193.8458523 -0.710000E-04  0.118E-01    1.03       1.0  T
   3   -193.8456034  0.248937E-03  0.526E-02    1.01       1.0  T
   4   -193.8458736 -0.270211E-03  0.193E-02    1.03       1.0  T
   5   -193.8458893 -0.156522E-04  0.115E-02    1.03       1.0  T
   6   -193.8458991 -0.986858E-05  0.317E-03    1.03       3.2  T
   7   -193.8458998 -0.663039E-06  0.149E-03    1.03       6.8  T
   8   -193.8458999 -0.677201E-07  0.899E-04    1.03      11.3  T
     SCC iter.                  ...        0 min,  0.159 sec
     gradient                   ...        0 min,  0.168 sec
 * total energy  :  -191.0777043 Eh     change       -0.4969058E-02 Eh
   gradient norm :     0.0434118 Eh/α   predicted    -0.6452174E-02 (  29.85%)
   displ. norm   :     0.7956612 α      lambda       -0.6711150E-02
   maximum displ.:     0.4295413 α      in ANC's #8, #3, #6, ...

........................................................................
.............................. CYCLE   40 ..............................
........................................................................
   1   -193.8409400 -0.193841E+03  0.221E-01    1.02       0.0  T
   2   -193.8410105 -0.705077E-04  0.120E-01    1.02       1.0  T
   3   -193.8408616  0.148843E-03  0.435E-02    1.03       1.0  T
   4   -193.8410362 -0.174542E-03  0.161E-02    1.02       1.0  T
   5   -193.8410397 -0.355303E-05  0.925E-03    1.02       1.1  T
   6   -193.8410472 -0.752013E-05  0.327E-03    1.02       3.1  T
   7   -193.8410481 -0.893965E-06  0.140E-03    1.02       7.2  T
   8   -193.8410482 -0.645645E-07  0.818E-04    1.02      12.4  T
     SCC iter.                  ...        0 min,  0.159 sec
     gradient                   ...        0 min,  0.169 sec
 * total energy  :  -191.0824164 Eh     change       -0.4712048E-02 Eh
   gradient norm :     0.0284136 Eh/α   predicted    -0.5479903E-02 (  16.30%)
   displ. norm   :     0.7673378 α      lambda       -0.7094559E-02
   maximum displ.:     0.4042752 α      in ANC's #8, #3, #6, ...

........................................................................
.............................. CYCLE   41 ..............................
........................................................................
   1   -193.8249019 -0.193825E+03  0.214E-01    1.01       0.0  T
   2   -193.8249839 -0.820692E-04  0.117E-01    1.00       1.0  T
   3   -193.8247541  0.229805E-03  0.518E-02    1.02       1.0  T
   4   -193.8250087 -0.254604E-03  0.189E-02    1.01       1.0  T
   5   -193.8250241 -0.153828E-04  0.103E-02    1.01       1.0  T
   6   -193.8250307 -0.658332E-05  0.397E-03    1.01       2.6  T
   7   -193.8250321 -0.136026E-05  0.133E-03    1.01       7.6  T
   8   -193.8250321 -0.443638E-07  0.808E-04    1.01      12.6  T
     SCC iter.                  ...        0 min,  0.166 sec
     gradient                   ...        0 min,  0.169 sec
 * total energy  :  -191.0859750 Eh     change       -0.3558643E-02 Eh
   gradient norm :     0.0517502 Eh/α   predicted    -0.5635934E-02 (  58.37%)
   displ. norm   :     0.6856243 α      lambda       -0.7109740E-02
   maximum displ.:     0.3775456 α      in ANC's #8, #6, #3, ...

........................................................................
.............................. CYCLE   42 ..............................
........................................................................
   1   -193.8435222 -0.193844E+03  0.194E-01    1.01       0.0  T
   2   -193.8436027 -0.805394E-04  0.102E-01    1.02       1.0  T
   3   -193.8434679  0.134808E-03  0.405E-02    1.00       1.0  T
   4   -193.8436094 -0.141508E-03  0.180E-02    1.01       1.0  T
   5   -193.8436282 -0.187477E-04  0.894E-03    1.01       1.1  T
   6   -193.8436333 -0.508216E-05  0.339E-03    1.01       3.0  T
   7   -193.8436341 -0.801428E-06  0.139E-03    1.01       7.3  T
     SCC iter.                  ...        0 min,  0.139 sec
     gradient                   ...        0 min,  0.168 sec
 * total energy  :  -191.0904691 Eh     change       -0.4494045E-02 Eh
   gradient norm :     0.0381637 Eh/α   predicted    -0.5225937E-02 (  16.29%)
   displ. norm   :     0.6988778 α      lambda       -0.7004483E-02
   maximum displ.:     0.3021958 α      in ANC's #8, #3, #6, ...
 * RMSD in coord.:     1.7438014 α      energy gain  -0.1416790E+00 Eh

generating ANC from model Hessian ...
Using Lindh-Hessian (1995)
 Shifting diagonal of input Hessian by   5.027384796314192E-003
 Lowest  eigenvalues of input Hessian
    0.005000   -0.000000   -0.000000   -0.000000   -0.000000    0.000000
    0.000000    0.005041    0.005067    0.005125    0.005251    0.005312
    0.005373    0.005516    0.005651    0.005821    0.005939    0.006158
 Highest eigenvalues
    2.270096    2.289707    2.602050    2.607475    2.670876    2.681673
 

........................................................................
.............................. CYCLE   43 ..............................
........................................................................
   1   -193.8734169 -0.193873E+03  0.185E-01    1.01       0.0  T
   2   -193.8735064 -0.895183E-04  0.102E-01    1.02       1.0  T
   3   -193.8733553  0.151096E-03  0.502E-02    1.01       1.0  T
   4   -193.8735466 -0.191321E-03  0.150E-02    1.01       1.0  T
   5   -193.8735528 -0.617553E-05  0.658E-03    1.01       1.5  T
   6   -193.8735540 -0.122650E-05  0.298E-03    1.01       3.4  T
   7   -193.8735546 -0.607360E-06  0.127E-03    1.01       8.0  T
   8   -193.8735547 -0.706869E-07  0.717E-04    1.01      14.2  T
   9   -193.8735547 -0.177247E-07  0.390E-04    1.01      26.0  T
     SCC iter.                  ...        0 min,  0.179 sec
     gradient                   ...        0 min,  0.181 sec
 * total energy  :  -191.0923919 Eh     change       -0.1922849E-02 Eh
   gradient norm :     0.0581988 Eh/α   predicted     0.0000000E+00 (-100.00%)
   displ. norm   :     0.4523234 α      lambda       -0.6542663E-02
   maximum displ.:     0.2395403 α      in ANC's #6, #7, #3, ...

........................................................................
.............................. CYCLE   44 ..............................
........................................................................
   1   -193.8601526 -0.193860E+03  0.150E-01    1.01       0.0  T
   2   -193.8601984 -0.457668E-04  0.828E-02    1.01       1.0  T
   3   -193.8601171  0.813192E-04  0.349E-02    1.01       1.0  T
   4   -193.8602158 -0.986637E-04  0.111E-02    1.01       1.0  T
   5   -193.8602195 -0.378557E-05  0.476E-03    1.01       2.1  T
   6   -193.8602203 -0.783204E-06  0.235E-03    1.01       4.3  T
     SCC iter.                  ...        0 min,  0.120 sec
     gradient                   ...        0 min,  0.168 sec
 * total energy  :  -191.0969870 Eh     change       -0.4595034E-02 Eh
   gradient norm :     0.0190161 Eh/α   predicted    -0.3940646E-02 ( -14.24%)
   displ. norm   :     0.5439000 α      lambda       -0.4110419E-02
   maximum displ.:     0.2545966 α      in ANC's #6, #7, #24, ...

........................................................................
.............................. CYCLE   45 ..............................
........................................................................
   1   -193.8561022 -0.193856E+03  0.241E-01    1.01       0.0  T
   2   -193.8561736 -0.713747E-04  0.131E-01    1.01       1.0  T
   3   -193.8560507  0.122849E-03  0.387E-02    1.01       1.0  T
   4   -193.8562048 -0.154051E-03  0.124E-02    1.01       1.0  T
   5   -193.8562099 -0.516703E-05  0.575E-03    1.01       1.8  T
   6   -193.8562119 -0.197469E-05  0.245E-03    1.01       4.1  T
   7   -193.8562124 -0.476662E-06  0.114E-03    1.01       8.9  T
     SCC iter.                  ...        0 min,  0.139 sec
     gradient                   ...        0 min,  0.169 sec
 * total energy  :  -191.0990316 Eh     change       -0.2044660E-02 Eh
   gradient norm :     0.0299521 Eh/α   predicted    -0.2663200E-02 (  30.25%)
   displ. norm   :     0.5670915 α      lambda       -0.4185162E-02
   maximum displ.:     0.2811407 α      in ANC's #6, #7, #24, ...

........................................................................
.............................. CYCLE   46 ..............................
........................................................................
   1   -193.8667380 -0.193867E+03  0.200E-01    1.00       0.0  T
   2   -193.8667882 -0.501396E-04  0.108E-01    1.01       1.0  T
   3   -193.8667026  0.855950E-04  0.340E-02    1.00       1.0  T
   4   -193.8668061 -0.103531E-03  0.122E-02    1.01       1.0  T
   5   -193.8668099 -0.382443E-05  0.637E-03    1.00       1.6  T
   6   -193.8668138 -0.385334E-05  0.212E-03    1.01       4.8  T
   7   -193.8668141 -0.314216E-06  0.102E-03    1.01      10.0  T
     SCC iter.                  ...        0 min,  0.140 sec
     gradient                   ...        0 min,  0.168 sec
 * total energy  :  -191.1021042 Eh     change       -0.3072567E-02 Eh
   gradient norm :     0.0312508 Eh/α   predicted    -0.2765538E-02 (  -9.99%)
   displ. norm   :     0.6633586 α      lambda       -0.4058743E-02
   maximum displ.:     0.3432144 α      in ANC's #6, #7, #3, ...

........................................................................
.............................. CYCLE   47 ..............................
........................................................................
   1   -193.8674406 -0.193867E+03  0.194E-01    1.00       0.0  T
   2   -193.8674810 -0.403896E-04  0.104E-01    1.01       1.0  T
   3   -193.8674284  0.525508E-04  0.284E-02    1.00       1.0  T
   4   -193.8674867 -0.582288E-04  0.142E-02    1.01       1.0  T
   5   -193.8674954 -0.879287E-05  0.636E-03    1.00       1.6  T
   6   -193.8674994 -0.400226E-05  0.180E-03    1.00       5.6  T
   7   -193.8674996 -0.151692E-06  0.102E-03    1.00       9.9  T
     SCC iter.                  ...        0 min,  0.139 sec
     gradient                   ...        0 min,  0.168 sec
 * total energy  :  -191.1055653 Eh     change       -0.3461156E-02 Eh
   gradient norm :     0.0202564 Eh/α   predicted    -0.2922385E-02 ( -15.57%)
   displ. norm   :     0.8022845 α      lambda       -0.4605377E-02
   maximum displ.:     0.4193048 α      in ANC's #6, #7, #3, ...

........................................................................
.............................. CYCLE   48 ..............................
........................................................................
   1   -193.8684957 -0.193868E+03  0.244E-01    0.99       0.0  T
   2   -193.8685614 -0.656510E-04  0.131E-01    1.00       1.0  T
   3   -193.8684919  0.694561E-04  0.332E-02    0.99       1.0  T
   4   -193.8685714 -0.794719E-04  0.169E-02    1.00       1.0  T
   5   -193.8685843 -0.129640E-04  0.830E-03    1.00       1.2  T
   6   -193.8685906 -0.623665E-05  0.221E-03    1.00       4.6  T
   7   -193.8685907 -0.169005E-06  0.128E-03    1.00       7.9  T
   8   -193.8685908 -0.338407E-07  0.622E-04    1.00      16.3  T
     SCC iter.                  ...        0 min,  0.159 sec
     gradient                   ...        0 min,  0.168 sec
 * total energy  :  -191.1091025 Eh     change       -0.3537157E-02 Eh
   gradient norm :     0.0194052 Eh/α   predicted    -0.3784859E-02 (   7.00%)
   displ. norm   :     0.8042537 α      lambda       -0.4566495E-02
   maximum displ.:     0.4272706 α      in ANC's #6, #7, #3, ...

........................................................................
.............................. CYCLE   49 ..............................
........................................................................
   1   -193.8780934 -0.193878E+03  0.239E-01    1.00       0.0  T
   2   -193.8781560 -0.625935E-04  0.127E-01    1.00       1.0  T
   3   -193.8780806  0.754151E-04  0.339E-02    0.99       1.0  T
   4   -193.8781668 -0.862757E-04  0.165E-02    1.00       1.0  T
   5   -193.8781790 -0.121660E-04  0.756E-03    1.00       1.3  T
   6   -193.8781840 -0.504036E-05  0.218E-03    1.00       4.7  T
   7   -193.8781843 -0.206933E-06  0.127E-03    1.00       8.0  T
   8   -193.8781843 -0.403990E-07  0.670E-04    1.00      15.1  T
     SCC iter.                  ...        0 min,  0.159 sec
     gradient                   ...        0 min,  0.169 sec
 * total energy  :  -191.1127305 Eh     change       -0.3628003E-02 Eh
   gradient norm :     0.0212686 Eh/α   predicted    -0.3760109E-02 (   3.64%)
   displ. norm   :     0.8325437 α      lambda       -0.4168153E-02
   maximum displ.:     0.4402542 α      in ANC's #6, #7, #3, ...

........................................................................
.............................. CYCLE   50 ..............................
........................................................................
   1   -193.8729059 -0.193873E+03  0.267E-01    0.99       0.0  T
   2   -193.8729834 -0.774975E-04  0.143E-01    1.00       1.0  T
   3   -193.8728546  0.128741E-03  0.432E-02    0.99       1.0  T
   4   -193.8730076 -0.152968E-03  0.173E-02    1.00       1.0  T
   5   -193.8730151 -0.747826E-05  0.830E-03    0.99       1.2  T
   6   -193.8730231 -0.802183E-05  0.240E-03    1.00       4.2  T
   7   -193.8730234 -0.341659E-06  0.127E-03    0.99       8.0  T
   8   -193.8730235 -0.129114E-07  0.695E-04    0.99      14.6  T
     SCC iter.                  ...        0 min,  0.159 sec
     gradient                   ...        0 min,  0.168 sec
 * total energy  :  -191.1159319 Eh     change       -0.3201353E-02 Eh
   gradient norm :     0.0202067 Eh/α   predicted    -0.3528613E-02 (  10.22%)
   displ. norm   :     0.7989647 α      lambda       -0.3862498E-02
   maximum displ.:     0.4412022 α      in ANC's #6, #7, #3, ...

........................................................................
.............................. CYCLE   51 ..............................
........................................................................
   1   -193.8785012 -0.193879E+03  0.230E-01    0.99       0.0  T
   2   -193.8785558 -0.545826E-04  0.122E-01    1.00       1.0  T
   3   -193.8784913  0.644469E-04  0.336E-02    0.99       1.0  T
   4   -193.8785652 -0.738441E-04  0.166E-02    0.99       1.0  T
   5   -193.8785764 -0.112600E-04  0.631E-03    1.00       1.6  T
   6   -193.8785801 -0.373409E-05  0.197E-03    0.99       5.2  T
   7   -193.8785803 -0.158925E-06  0.114E-03    0.99       8.9  T
     SCC iter.                  ...        0 min,  0.139 sec
     gradient                   ...        0 min,  0.168 sec
 * total energy  :  -191.1192163 Eh     change       -0.3284424E-02 Eh
   gradient norm :     0.0218431 Eh/α   predicted    -0.3164054E-02 (  -3.66%)
   displ. norm   :     0.8314191 α      lambda       -0.3703881E-02
   maximum displ.:     0.4785793 α      in ANC's #6, #7, #2, ...

........................................................................
.............................. CYCLE   52 ..............................
........................................................................
   1   -193.8959137 -0.193896E+03  0.208E-01    0.99       0.0  T
   2   -193.8959632 -0.495039E-04  0.109E-01    0.99       1.0  T
   3   -193.8959335  0.296926E-04  0.271E-02    0.99       1.0  T
   4   -193.8959646 -0.311373E-04  0.155E-02    1.00       1.0  T
   5   -193.8959775 -0.129417E-04  0.575E-03    0.99       1.8  T
   6   -193.8959802 -0.269404E-05  0.201E-03    0.99       5.1  T
   7   -193.8959805 -0.254777E-06  0.108E-03    0.99       9.4  T
     SCC iter.                  ...        0 min,  0.140 sec
     gradient                   ...        0 min,  0.168 sec
 * total energy  :  -191.1222463 Eh     change       -0.3030000E-02 Eh
   gradient norm :     0.0209110 Eh/α   predicted    -0.3132110E-02 (   3.37%)
   displ. norm   :     0.8974994 α      lambda       -0.3530538E-02
   maximum displ.:     0.5046704 α      in ANC's #6, #7, #3, ...

........................................................................
.............................. CYCLE   53 ..............................
........................................................................
   1   -193.8883620 -0.193888E+03  0.229E-01    0.99       0.0  T
   2   -193.8884141 -0.520815E-04  0.122E-01    0.99       1.0  T
   3   -193.8883821  0.319824E-04  0.271E-02    0.99       1.0  T
   4   -193.8884034 -0.213665E-04  0.180E-02    1.00       1.0  T
   5   -193.8884295 -0.260742E-04  0.615E-03    0.99       1.6  T
   6   -193.8884330 -0.349556E-05  0.190E-03    0.99       5.4  T
   7   -193.8884332 -0.178278E-06  0.106E-03    0.99       9.6  T
     SCC iter.                  ...        0 min,  0.140 sec
     gradient                   ...        0 min,  0.168 sec
 * total energy  :  -191.1253703 Eh     change       -0.3123977E-02 Eh
   gradient norm :     0.0114269 Eh/α   predicted    -0.3187210E-02 (   2.02%)
   displ. norm   :     0.8804692 α      lambda       -0.3266945E-02
   maximum displ.:     0.5144680 α      in ANC's #6, #7, #3, ...

........................................................................
.............................. CYCLE   54 ..............................
........................................................................
   1   -193.8920113 -0.193892E+03  0.234E-01    0.99       0.0  T
   2   -193.8920674 -0.561162E-04  0.125E-01    0.99       1.0  T
   3   -193.8920356  0.318210E-04  0.289E-02    0.99       1.0  T
   4   -193.8920702 -0.346879E-04  0.167E-02    1.00       1.0  T
   5   -193.8920839 -0.136277E-04  0.609E-03    0.99       1.7  T
   6   -193.8920881 -0.427344E-05  0.202E-03    0.99       5.0  T
   7   -193.8920884 -0.252700E-06  0.107E-03    0.99       9.5  T
   8   -193.8920884 -0.188147E-07  0.507E-04    0.99      20.0  T
     SCC iter.                  ...        0 min,  0.159 sec
     gradient                   ...        0 min,  0.169 sec
 * total energy  :  -191.1282451 Eh     change       -0.2874858E-02 Eh
   gradient norm :     0.0229161 Eh/α   predicted    -0.2899789E-02 (   0.87%)
   displ. norm   :     0.8890649 α      lambda       -0.3206110E-02
   maximum displ.:     0.5215966 α      in ANC's #6, #7, #2, ...

........................................................................
.............................. CYCLE   55 ..............................
........................................................................
   1   -193.8990672 -0.193899E+03  0.215E-01    0.99       0.0  T
   2   -193.8991125 -0.453366E-04  0.113E-01    0.99       1.0  T
   3   -193.8990887  0.237785E-04  0.268E-02    0.99       1.0  T
   4   -193.8991087 -0.199810E-04  0.171E-02    0.99       1.0  T
   5   -193.8991271 -0.183871E-04  0.419E-03    0.99       2.4  T
   6   -193.8991286 -0.150293E-05  0.162E-03    0.99       6.3  T
   7   -193.8991287 -0.108770E-06  0.929E-04    0.99      10.9  T
     SCC iter.                  ...        0 min,  0.140 sec
     gradient                   ...        0 min,  0.168 sec
 * total energy  :  -191.1311841 Eh     change       -0.2939005E-02 Eh
   gradient norm :     0.0100306 Eh/α   predicted    -0.2870170E-02 (  -2.34%)
   displ. norm   :     0.9055487 α      lambda       -0.3112531E-02
   maximum displ.:     0.5430481 α      in ANC's #6, #7, #2, ...

........................................................................
.............................. CYCLE   56 ..............................
........................................................................
   1   -193.9127177 -0.193913E+03  0.217E-01    0.99       0.0  T
   2   -193.9127681 -0.503790E-04  0.114E-01    0.99       1.0  T
   3   -193.9127461  0.219927E-04  0.261E-02    0.99       1.0  T
   4   -193.9127661 -0.200036E-04  0.166E-02    0.99       1.0  T
   5   -193.9127835 -0.173849E-04  0.426E-03    0.99       2.4  T
   6   -193.9127851 -0.162405E-05  0.164E-03    0.99       6.2  T
   7   -193.9127852 -0.106726E-06  0.988E-04    0.99      10.3  T
     SCC iter.                  ...        0 min,  0.139 sec
     gradient                   ...        0 min,  0.169 sec
 * total energy  :  -191.1339805 Eh     change       -0.2796419E-02 Eh
   gradient norm :     0.0185908 Eh/α   predicted    -0.2832426E-02 (   1.29%)
   displ. norm   :     0.9241538 α      lambda       -0.3132184E-02
   maximum displ.:     0.5507581 α      in ANC's #6, #7, #2, ...

........................................................................
.............................. CYCLE   57 ..............................
........................................................................
   1   -193.9015882 -0.193902E+03  0.237E-01    0.99       0.0  T
   2   -193.9016453 -0.571127E-04  0.126E-01    0.99       1.0  T
   3   -193.9015853  0.599984E-04  0.341E-02    0.98       1.0  T
   4   -193.9016530 -0.677246E-04  0.175E-02    0.99       1.0  T
   5   -193.9016653 -0.122081E-04  0.615E-03    0.99       1.7  T
   6   -193.9016696 -0.438182E-05  0.196E-03    0.99       5.2  T
   7   -193.9016698 -0.191243E-06  0.109E-03    0.99       9.3  T
   8   -193.9016699 -0.243341E-07  0.517E-04    0.99      19.7  T
     SCC iter.                  ...        0 min,  0.159 sec
     gradient                   ...        0 min,  0.168 sec
 * total energy  :  -191.1366094 Eh     change       -0.2628872E-02 Eh
   gradient norm :     0.0242873 Eh/α   predicted    -0.2903631E-02 (  10.45%)
   displ. norm   :     0.8859118 α      lambda       -0.2995381E-02
   maximum displ.:     0.5223565 α      in ANC's #6, #7, #2, ...

........................................................................
.............................. CYCLE   58 ..............................
........................................................................
[...]
     5   6 C      2.782     0.161    24.509     8.109
     6   9 F      0.787    -0.186    11.092     3.934
     7   6 C      2.782     0.163    24.469     8.102
     8   9 F      0.787    -0.184    11.075     3.931
     9   6 C      2.913    -0.049    29.225     8.865
    10   6 C      3.034     0.004    27.897     8.663
    11   6 C      3.021     0.029    27.332     8.576
    12   6 C      2.947     0.008    27.833     8.653
    13   6 C      1.938     0.121    28.112     8.562
    14   7 N      0.911    -0.230    26.039     7.380
    15   6 C      1.939     0.122    28.090     8.559
    16   7 N      0.911    -0.224    25.902     7.361
    17   6 C      3.006    -0.038    28.934     8.824
    18   6 C      2.972    -0.006    28.162     8.705
    19   6 C      2.994     0.027    27.392     8.585
    20  16 S      2.302    -0.044   142.894    20.119
    21   6 C      3.111     0.009    27.663     8.617
    22   6 C      3.208     0.006    27.258     8.501
    23   6 C      3.084     0.022    27.426     8.585
    24   6 C      3.805    -0.061    21.667     6.627
    25   6 C      3.752    -0.099    22.448     6.757
    26  16 S      2.176    -0.008   141.402    20.014
    27   6 C      3.096     0.007    27.757     8.635
    28   6 C      3.252     0.025    26.395     8.314
    29   7 N      2.802    -0.030    21.827     6.939
    30   6 C      3.746    -0.007    20.771     6.501
    31   6 C      3.752    -0.115    22.765     6.804
    32   6 C      3.060     0.027    27.336     8.574
    33   6 C      3.093    -0.032    28.687     8.779
    34   6 C      3.344     0.070    23.941     7.728
    35   7 N      1.855    -0.263    27.697     7.800
    36  16 S      2.690     0.318   128.769    19.099
    37   7 N      1.855    -0.264    27.702     7.801
    38   6 C      3.343     0.070    23.942     7.729
    39   6 C      3.093    -0.032    28.688     8.779
    40   6 C      3.060     0.027    27.347     8.576
    41   7 N      2.803    -0.029    21.812     6.937
    42   6 C      3.746    -0.008    20.787     6.503
    43   6 C      3.752    -0.115    22.762     6.804
    44   6 C      3.253     0.025    26.376     8.309
    45   6 C      3.096     0.005    27.797     8.641
    46  16 S      2.180    -0.005   141.273    20.005
    47   6 C      3.197     0.009    27.278     8.514
    48   6 C      3.117     0.008    27.682     8.618
    49  16 S      2.278    -0.040   142.690    20.105
    50   6 C      2.999     0.025    27.430     8.591
    51   6 C      3.088     0.020    27.453     8.589
    52   6 C      3.804    -0.045    21.386     6.584
    53   6 C      3.753    -0.108    22.620     6.782
    54   6 C      2.954    -0.006    28.180     8.707
    55   6 C      3.009    -0.039    28.941     8.825
    56   6 C      3.018     0.029    27.332     8.576
    57   6 C      2.947     0.008    27.829     8.652
    58   6 C      1.936     0.122    28.095     8.560
    59   7 N      0.911    -0.224    25.906     7.361
    60   6 C      1.936     0.121    28.112     8.562
    61   7 N      0.911    -0.230    26.036     7.380
    62   6 C      3.034     0.005    27.869     8.659
    63   6 C      2.914    -0.049    29.222     8.864
    64   6 C      2.782     0.164    24.455     8.100
    65   9 F      0.787    -0.183    11.065     3.929
    66   6 C      2.782     0.161    24.505     8.108
    67   9 F      0.787    -0.185    11.086     3.933
    68   6 C      2.913    -0.037    28.922     8.819
    69   6 C      3.047    -0.022    28.500     8.756
    70   6 C      2.866     0.229    23.196     7.895
    71   8 O      0.856    -0.361    20.917     6.132
    72   1 H      0.926     0.093     1.852     2.128
    73   1 H      0.926     0.090     1.878     2.143
    74   1 H      0.925     0.067     2.115     2.274
    75   1 H      0.924     0.096     1.827     2.114
    76   1 H      0.924     0.057     2.240     2.341
    77   1 H      0.925     0.034     2.536     2.490
    78   1 H      0.925     0.047     2.362     2.404
    79   1 H      0.925     0.042     2.419     2.432
    80   1 H      0.924     0.064     2.154     2.295
    81   1 H      0.925     0.067     2.122     2.278
    82   1 H      0.925     0.046     2.368     2.407
    83   1 H      0.925     0.059     2.208     2.324
    84   1 H      0.925     0.056     2.250     2.346
    85   1 H      0.924     0.064     2.153     2.295
    86   1 H      0.925     0.067     2.121     2.278
    87   1 H      0.925     0.059     2.209     2.324
    88   1 H      0.925     0.056     2.247     2.344
    89   1 H      0.925     0.046     2.368     2.406
    90   1 H      0.924     0.039     2.468     2.457
    91   1 H      0.924     0.052     2.290     2.367
    92   1 H      0.925     0.043     2.412     2.429
    93   1 H      0.925     0.051     2.306     2.375
    94   1 H      0.925     0.070     2.089     2.260
    95   1 H      0.925     0.068     2.110     2.272
    96   1 H      0.926     0.091     1.871     2.139
    97   1 H      0.926     0.093     1.848     2.126

 Mol. C6AA /au·bohr⁶  :     181470.499253
 Mol. C8AA /au·bohr⁸  :    5117153.476321
 Mol. α(0) /au        :        674.564112


Wiberg/Mayer (AO) data.
largest (>0.10) Wiberg bond orders for each atom
          total WBO             WBO to atom ...
     1  C   3.928        O    2 1.737    C   17 1.053    C    3 1.013
     2  O   2.048        C    1 1.737
     3  C   3.976        C    4 1.419    C   10 1.301    C    1 1.013
     4  C   3.976        C    3 1.419    C    5 1.384    H   72 0.960
     5  C   3.881        C    4 1.384    C    7 1.331    F    6 0.989
     6  F   1.127        C    5 0.989
     7  C   3.888        C    9 1.390    C    5 1.331    F    8 0.991
     8  F   1.131        C    7 0.991
     9  C   3.972        C   10 1.400    C    7 1.390    H   73 0.955
    10  C   3.982        C    9 1.400    C    3 1.301    C   11 1.081
    11  C   3.974        C   12 1.489    C   17 1.143    C   10 1.081
    12  C   3.947        C   11 1.489    C   13 1.096    C   15 1.095
    13  C   3.947        N   14 2.762    C   12 1.096
    14  N   2.965        C   13 2.762
    15  C   3.946        N   16 2.770    C   12 1.095
    16  N   2.971        C   15 2.770
    17  C   3.956        C   18 1.496    C   11 1.143    C    1 1.053
    18  C   3.946        C   17 1.496    C   19 1.287    H   74 0.942
    19  C   3.923        C   23 1.378    C   18 1.287    S   20 1.054
    20  S   2.537        C   21 1.135    C   19 1.054
    21  C   3.931        C   22 1.312    C   28 1.256    S   20 1.135
    22  C   3.927        C   23 1.318    C   21 1.312    S   26 1.090
    23  C   3.954        C   19 1.378    C   22 1.318    C   24 1.026
    24  C   3.987        C   23 1.026    C   25 1.001    H   76 0.968    H   75 0.919
    25  C   3.993        C   24 1.001    H   79 0.987    H   78 0.985    H   77 0.984
    26  S   2.524        C   27 1.118    C   22 1.090
    27  C   3.920        C   28 1.296    C   33 1.281    S   26 1.118
    28  C   3.936        C   27 1.296    C   21 1.256    N   29 1.158
    29  N   3.564        C   32 1.173    C   28 1.158    C   30 0.983
    30  C   3.963        C   31 1.005    N   29 0.983    H   80 0.964    H   81 0.959
    31  C   3.987        C   30 1.005    H   84 0.983    H   83 0.982    H   82 0.980
    32  C   3.924        C   33 1.264    C   40 1.222    N   29 1.173
    33  C   3.953        C   27 1.281    C   32 1.264    C   34 1.171
    34  C   3.974        N   35 1.425    C   38 1.171    C   33 1.171    S   36 0.101
    35  N   3.074        C   34 1.425    S   36 1.395    N   37 0.149
    36  S   3.111        N   35 1.395    N   37 1.394    C   34 0.101    C   38 0.101
    37  N   3.074        C   38 1.425    S   36 1.394    N   35 0.149
    38  C   3.973        N   37 1.425    C   34 1.171    C   39 1.171    S   36 0.101
    39  C   3.953        C   45 1.281    C   40 1.264    C   38 1.171
    40  C   3.924        C   39 1.264    C   32 1.222    N   41 1.172
    41  N   3.565        C   40 1.172    C   44 1.159    C   42 0.983
    42  C   3.963        C   43 1.005    N   41 0.983    H   85 0.964    H   86 0.958
    43  C   3.986        C   42 1.005    H   88 0.983    H   87 0.982    H   89 0.980
    44  C   3.936        C   45 1.297    C   48 1.255    N   41 1.159
    45  C   3.920        C   44 1.297    C   39 1.281    S   46 1.116
    46  S   2.529        C   45 1.116    C   47 1.092
    47  C   3.930        C   48 1.316    C   51 1.313    S   46 1.092
    48  C   3.933        C   47 1.316    C   44 1.255    S   49 1.133
    49  S   2.542        C   48 1.133    C   50 1.063
    50  C   3.923        C   51 1.398    C   54 1.255    S   49 1.063
    51  C   3.955        C   50 1.398    C   47 1.313    C   52 1.016
    52  C   3.993        C   51 1.016    C   53 0.998    H   90 0.973    H   91 0.956
    53  C   3.986        C   52 0.998    H   92 0.984    H   93 0.980    H   94 0.974
    54  C   3.944        C   55 1.519    C   50 1.255    H   95 0.943
    55  C   3.956        C   54 1.519    C   56 1.147    C   70 1.032
    56  C   3.974        C   57 1.484    C   55 1.147    C   62 1.082
    57  C   3.947        C   56 1.484    C   60 1.097    C   58 1.097
    58  C   3.946        N   59 2.769    C   57 1.097
    59  N   2.970        C   58 2.769
    60  C   3.947        N   61 2.764    C   57 1.097
    61  N   2.966        C   60 2.764
    62  C   3.982        C   63 1.399    C   69 1.300    C   56 1.082
    63  C   3.972        C   62 1.399    C   64 1.390    H   96 0.955
    64  C   3.889        C   63 1.390    C   66 1.330    F   65 0.992
    65  F   1.132        C   64 0.992
    66  C   3.881        C   68 1.385    C   64 1.330    F   67 0.989
    67  F   1.127        C   66 0.989
    68  C   3.978        C   69 1.418    C   66 1.385    H   97 0.959
    69  C   3.976        C   68 1.418    C   62 1.300    C   70 1.012
    70  C   3.929        O   71 1.761    C   55 1.032    C   69 1.012
    71  O   2.059        C   70 1.761
    72  H   0.991        C    4 0.960
    73  H   0.991        C    9 0.955
    74  H   0.993        C   18 0.942
    75  H   0.988        C   24 0.919
    76  H   0.996        C   24 0.968
    77  H   0.999        C   25 0.984
    78  H   0.997        C   25 0.985
    79  H   0.998        C   25 0.987
    80  H   0.994        C   30 0.964
    81  H   0.994        C   30 0.959
    82  H   0.998        C   31 0.980
    83  H   0.996        C   31 0.982
    84  H   0.996        C   31 0.983
    85  H   0.994        C   42 0.964
    86  H   0.994        C   42 0.958
    87  H   0.996        C   43 0.982
    88  H   0.996        C   43 0.983
    89  H   0.998        C   43 0.980
    90  H   0.998        C   52 0.973
    91  H   0.995        C   52 0.956
    92  H   0.997        C   53 0.984
    93  H   0.997        C   53 0.980
    94  H   0.995        C   53 0.974
    95  H   0.992        C   54 0.943
    96  H   0.991        C   63 0.955
    97  H   0.991        C   68 0.959

molecular dipole:
                 x           y           z       tot (Debye)
 q only:       -1.114       0.606      -0.102
   full:       -0.563       0.890       0.214       2.732
molecular quadrupole (traceless):
                xx          xy          yy          xz          yz          zz
 q only:       69.308     -36.196      40.084      45.135      75.151    -109.391
  q+dip:       70.776     -34.866      20.197      58.186      72.407     -90.973
   full:       78.305     -38.528      16.942      62.760      72.255     -95.247

           -------------------------------------------------
          |                Geometry Summary                 |
           -------------------------------------------------

      molecular mass/u    :     1031.1234000
   center of mass at/Å    :        0.0979088      -3.0599331       8.3871568
  moments of inertia/u·Å² :        0.7917001E+04   0.7312734E+05   0.7566335E+05
rotational constants/cm⁻¹ :        0.2129295E-02   0.2305244E-03   0.2227979E-03

 * 93 selected distances

     #   Z        #   Z                                     value/Å
     1   6 C      2   8 O                                 1.2145432
     3   6 C      4   6 C                                 1.3806150
     4   6 C      5   6 C                                 1.3857060
     5   6 C      6   9 F                                 1.3386557
     5   6 C      7   6 C                                 1.3952906
     7   6 C      8   9 F                                 1.3377213
     7   6 C      9   6 C                                 1.3871124
     3   6 C     10   6 C                                 1.4046770
     9   6 C     10   6 C                                 1.3860027
    11   6 C     12   6 C                                 1.3702891
    13   6 C     14   7 N                                 1.1483139
    15   6 C     16   7 N                                 1.1474672
    17   6 C     18   6 C                                 1.3727253
    18   6 C     19   6 C                                 1.4062411
    20  16 S     21   6 C                                 1.7196532
    21   6 C     22   6 C                                 1.4028329
    19   6 C     23   6 C                                 1.3961707
    22   6 C     23   6 C                                 1.3993950
    23   6 C     24   6 C                                 1.4900671
    24   6 C     25   6 C                                 1.5272590
    22   6 C     26  16 S                                 1.7510943 (max)
    26  16 S     27   6 C                                 1.7277074
    21   6 C     28   6 C                                 1.3968033
    27   6 C     28   6 C                                 1.3988773
    28   6 C     29   7 N                                 1.3677664
    29   7 N     30   6 C                                 1.4444942
    30   6 C     31   6 C                                 1.5290712
    29   7 N     32   6 C                                 1.3836888
    27   6 C     33   6 C                                 1.3998077
    32   6 C     33   6 C                                 1.4293740
    33   6 C     34   6 C                                 1.4117144
    34   6 C     35   7 N                                 1.3239704
    35   7 N     36  16 S                                 1.6186372
    36  16 S     37   7 N                                 1.6187238
    34   6 C     38   6 C                                 1.4299583
    37   7 N     38   6 C                                 1.3239333
    38   6 C     39   6 C                                 1.4117012
    32   6 C     40   6 C                                 1.4246302
    39   6 C     40   6 C                                 1.4293132
    40   6 C     41   7 N                                 1.3836825
    41   7 N     42   6 C                                 1.4440332
    42   6 C     43   6 C                                 1.5289223
    41   7 N     44   6 C                                 1.3672054
    39   6 C     45   6 C                                 1.3998234
    44   6 C     45   6 C                                 1.3983752
    45   6 C     46  16 S                                 1.7273361
    46  16 S     47   6 C                                 1.7509336
    44   6 C     48   6 C                                 1.3972326
    47   6 C     48   6 C                                 1.4034226
    48   6 C     49  16 S                                 1.7210458
    47   6 C     51   6 C                                 1.4005888
    50   6 C     51   6 C                                 1.3919171
    52   6 C     53   6 C                                 1.5286285
    50   6 C     54   6 C                                 1.4115444
    54   6 C     55   6 C                                 1.3693800
    56   6 C     57   6 C                                 1.3708117
    58   6 C     59   7 N                                 1.1477022
    60   6 C     61   7 N                                 1.1482701
    62   6 C     63   6 C                                 1.3861711
    63   6 C     64   6 C                                 1.3870082
    64   6 C     65   9 F                                 1.3374296
    64   6 C     66   6 C                                 1.3953551
    66   6 C     67   9 F                                 1.3382895
    66   6 C     68   6 C                                 1.3856128
    62   6 C     69   6 C                                 1.4050521
    68   6 C     69   6 C                                 1.3806735
    70   6 C     71   8 O                                 1.2111443
     4   6 C     72   1 H                                 1.0784399
     9   6 C     73   1 H                                 1.0777502
    18   6 C     74   1 H                                 1.0851771
    24   6 C     75   1 H                                 1.0942002
    24   6 C     76   1 H                                 1.0922815
    25   6 C     77   1 H                                 1.0867471
    25   6 C     78   1 H                                 1.0868739
    25   6 C     79   1 H                                 1.0881078
    30   6 C     80   1 H                                 1.0954743
    30   6 C     81   1 H                                 1.0859073
    31   6 C     82   1 H                                 1.0882267
    31   6 C     83   1 H                                 1.0866016
    31   6 C     84   1 H                                 1.0861545
    42   6 C     85   1 H                                 1.0950603
    42   6 C     86   1 H                                 1.0854780
    43   6 C     87   1 H                                 1.0867618
    43   6 C     88   1 H                                 1.0862059
    43   6 C     89   1 H                                 1.0882961
    52   6 C     90   1 H                                 1.0903725
    52   6 C     91   1 H                                 1.0950259
    53   6 C     92   1 H                                 1.0868929
    53   6 C     93   1 H                                 1.0865880
    53   6 C     94   1 H                                 1.0859527
    54   6 C     95   1 H                                 1.0841429
    63   6 C     96   1 H                                 1.0776578 (min)
    68   6 C     97   1 H                                 1.0783400

 * 7 distinct bonds (by element types)

   Z      Z             #   av. dist./Å        max./Å        min./Å
   1 H    6 C          26     1.0868737     1.0954743     1.0776578
   6 C    6 C          41     1.4123452     1.5290712     1.3693800
   6 C    7 N          12     1.3025440     1.4444942     1.1474672
   6 C    8 O           2     1.2128438     1.2145432     1.2111443
   6 C    9 F           4     1.3380240     1.3386557     1.3374296
   6 C   16 S           6     1.7329617     1.7510943     1.7196532
   7 N   16 S           2     1.6186805     1.6187238     1.6186372


optimized geometry written to: xtbopt.xyz


           -------------------------------------------------
          | TOTAL ENERGY             -191.205133589212 Eh   |
          | GRADIENT NORM               0.000962965493 Eh/α |
          | HOMO-LUMO GAP               1.056701006443 eV   |
           -------------------------------------------------

------------------------------------------------------------------------
 * finished run on 2021/03/22 at 16:58:38.068     
------------------------------------------------------------------------
 total:
 * wall-time:     0 d,  0 h,  1 min, 38.277 sec
 *  cpu-time:     0 d,  0 h,  1 min, 38.044 sec
 * ratio c/w:     0.998 speedup
 SCF:
 * wall-time:     0 d,  0 h,  0 min,  0.836 sec
 *  cpu-time:     0 d,  0 h,  0 min,  0.834 sec
 * ratio c/w:     0.998 speedup
 ANC optimizer:
 * wall-time:     0 d,  0 h,  1 min, 37.221 sec
 *  cpu-time:     0 d,  0 h,  1 min, 36.991 sec
 * ratio c/w:     0.998 speedup

