      -----------------------------------------------------------      
     |                   =====================                   |     
     |                           x T B                           |     
     |                   =====================                   |     
     |                         S. Grimme                         |     
     |          Mulliken Center for Theoretical Chemistry        |     
     |                    University of Bonn                     |     
     |                Version 6.2 RC2 (SAW190805)                |     
      -----------------------------------------------------------      

   This program is distributed in the hope that it will be useful,
   but WITHOUT ANY WARRANTY; without even the implied warranty of
   MERCHANTABILITY or FITNESS FOR A PARTICULAR PURPOSE.
   
   FOR NON-COMMERCIAL, ACADEMIA USE ONLY.
   
   Cite this work as:
   * S. Grimme, C. Bannwarth, P. Shushkov, J. Chem. Theory Comput., 2017,
     13, 1989-2009. DOI: 10.1021/acs.jctc.7b00118
   * C. Bannwarth, S. Ehlert and S. Grimme., J. Chem. Theory Comput., 2019,
     15, 1652-1671. DOI: 10.1021/acs.jctc.8b01176
   * P. Pracht, E. Caldeweyher, S. Ehlert, S. Grimme, ChemRxiv, 2019, preprint.
     DOI: 10.26434/chemrxiv.8326202.v1
   
   for DFT-D4:
   * E. Caldeweyher, C. Bannwarth and S. Grimme, J. Chem. Phys., 2017,
     147, 034112. DOI: 10.1063/1.4993215
   * E. Caldeweyher, S. Ehlert, A. Hansen, H. Neugebauer, S. Spicher,
     C. Bannwarth and S. Grimme, J. Chem. Phys., 2019, 150, 154122.
     DOI: 10.1063/1.5090222
   
   for sTDA-xTB:
   * S. Grimme and C. Bannwarth, J. Chem. Phys., 2016, 145, 054103.
     DOI: 10.1063/1.4959605
   
   in the mass-spec context:
   * V. Asgeirsson, C. Bauer and S. Grimme, Chem. Sci., 2017, 8, 4879.
     DOI: 10.1039/c7sc00601b
   
   for metadynamics refer to:
   * S. Grimme, J. Chem. Theory Comput., 2019, 155, 2847-2862
     DOI: 10.1021/acs.jctc.9b00143
   
   with help from (in alphabetical order)
   C. Bannwarth, F. Bohle, G. Brandenburg, E. Caldeweyher, M. Checinski,
   S. Dohm, S. Ehlert, S. Ehrlich, F. März, H. Neugebauer, J. Pisarek,
   P. Pracht, P. Shushkov, and S. Spicher.
   
 * started run on 2021/03/22 at 16:58:36.549     

           -------------------------------------------------
          |                Calculation Setup                |
           -------------------------------------------------

          program call               : /ihome/ghutchison/geoffh/xtb/xtb NIBT.xyz -opt
          hostname                   : smp-n85
          coordinate file            : NIBT.xyz
          omp threads                :                     1
          number of atoms            :                   186
          number of electrons        :                   554
          charge                     :                     0
          spin                       :                   0.0
          first test random number   :      0.40285111928468


########################################################################
# WARNING! Please study the warnings concerning your input carefully
#  - the use of '-opt' is discouraged, please use '--opt' next time
########################################################################

           ------------------------------------------------- 
          |                 G F N 2 - x T B                 |
          | Geometry, Frequencies, Noncovalent interactions |
          |            JCTC 2019 parametrisation            |
           ------------------------------------------------- 
             KAB for C  - Si     :                1.0500
             KAB for H  - Pd     :                0.9500
             k(s)              :                1.8500
             k(p)              :                2.2300
             k(d)              :                2.2300
             k(f)              :                2.0000
             kEN (H0ij)        :               -2.0000
             D4 a1             :                0.5200
             D4 a2             :                5.0000
             D4 s6             :                1.0000
             D4 s8             :                2.7000
             D4 s9             :                5.0000
             alphaj            :                2.0000

  Z AO/shell   Hii/eV     exponent
  1     Wed Apr 25 08:07:45 CEST 2018   EN: 2.200 GM2: 0.406  GM3: 0.0800  RAES: 1.40
     1s    -10.707211    1.230000
  6     Wed Apr 25 08:07:45 CEST 2018   EN: 2.550 GM2: 0.538  GM3: 0.1500  RAES: 3.00
     2s    -13.970922    2.096432
     2p    -10.063292    1.800000
  7     Wed Apr 25 08:07:45 CEST 2018   EN: 3.040 GM2: 0.461  GM3:-0.0640  RAES: 1.90
     2s    -16.686243    2.339881
     2p    -12.523956    2.014332
  8     Wed Apr 25 08:07:45 CEST 2018   EN: 3.440 GM2: 0.452  GM3:-0.0517  RAES: 1.80
     2s    -20.229985    2.439742
     2p    -15.503117    2.137023
 16     Tue Apr 24 11:44:34 CEST 2018   EN: 2.580 GM2: 0.340  GM3:-0.0502  RAES: 3.10
     3s    -20.029654    1.981333
     3p    -11.377694    2.025643
     3d     -0.420282    1.702555

           ------------------------------------------------- 
          |        Self-Consistent Charge Iterations        |
           ------------------------------------------------- 

          ...................................................
          :                      SETUP                      :
          :.................................................:
          :  # basis functions                 552          :
          :  # atomic orbitals                 548          :
          :  # shells                          304          :
          :  # electrons                       554          :
          :  max. iterations                   250          :
          :  Hamiltonian                  GFN2-xTB          :
          :  restarted?                      false          :
          :  GBSA solvation                  false          :
          :  PC potential                    false          :
          :  electronic temp.          300.0000000     K    :
          :  accuracy                    1.0000000          :
          :  -> integral cutoff          0.2500000E+02      :
          :  -> integral neglect         0.1000000E-07      :
          :  -> SCF convergence          0.1000000E-05 Eh   :
          :  -> wf. convergence          0.1000000E-03 e    :
          :  Broyden damping             0.4000000          :
          ...................................................

 iter      E             dE          RMSdq      gap      omega  full diag
   1   -305.5896378 -0.305590E+03  0.438E+00    1.18       0.0  T
   2   -305.9089807 -0.319343E+00  0.258E+00    0.72       1.0  T
   3   -305.8600892  0.488915E-01  0.130E+00    1.09       1.0  T
   4   -305.9753531 -0.115264E+00  0.342E-01    0.78       1.0  T
   5   -305.9883676 -0.130145E-01  0.161E-01    0.85       1.0  T
   6   -305.9917857 -0.341812E-02  0.739E-02    0.82       1.0  T
   7   -305.9923311 -0.545341E-03  0.341E-02    0.83       1.0  T
   8   -305.9924482 -0.117087E-03  0.164E-02    0.83       1.0  T
   9   -305.9924777 -0.295002E-04  0.700E-03    0.83       1.0  T
  10   -305.9924832 -0.557726E-05  0.264E-03    0.83       2.8  T
  11   -305.9924835 -0.301024E-06  0.135E-03    0.83       5.4  T
  12   -305.9924837 -0.208363E-06  0.617E-04    0.83      11.9  T
  13   -305.9924838 -0.262195E-07  0.308E-04    0.83      23.8  T

   *** convergence criteria satisfied after 13 iterations ***

         #    Occupation            Energy/Eh            Energy/eV
      -------------------------------------------------------------
         1        2.0000           -0.7656789             -20.8352
       ...           ...                  ...                  ...
       271        2.0000           -0.3933304             -10.7031
       272        2.0000           -0.3895447             -10.6001
       273        2.0000           -0.3878065             -10.5528
       274        2.0000           -0.3829521             -10.4207
       275        2.0000           -0.3822281             -10.4010
       276        2.0000           -0.3774000             -10.2696
       277        2.0000           -0.3599524              -9.7948 (HOMO)
       278        0.0000           -0.3295777              -8.9683 (LUMO)
       279                         -0.3266240              -8.8879
       280                         -0.3257729              -8.8647
       281                         -0.3144485              -8.5566
       282                         -0.2981295              -8.1125
       ...                                ...                  ...
       548                          0.7510824              20.4380
      -------------------------------------------------------------
                  HL-Gap            0.0303747 Eh            0.8265 eV
             Fermi-level           -0.3447940 Eh           -9.3823 eV

 SCC (total)                   0 d,  0 h,  0 min,  2.664 sec
 SCC setup                      ...        0 min,  0.006 sec (  0.242%)
 Dispersion                     ...        0 min,  0.020 sec (  0.768%)
 integral evaluation            ...        0 min,  0.504 sec ( 18.905%)
 zeroth order Hamiltonian       ...        0 min,  0.003 sec (  0.100%)
 iterations                     ...        0 min,  1.683 sec ( 63.179%)
 molecular gradient             ...        0 min,  0.440 sec ( 16.518%)
 printout                       ...        0 min,  0.008 sec (  0.284%)

         :::::::::::::::::::::::::::::::::::::::::::::::::::::
         ::                     SUMMARY                     ::
         :::::::::::::::::::::::::::::::::::::::::::::::::::::
         :: total energy            -301.488649332453 Eh    ::
         :: gradient norm              0.227999448834 Eh/a0 ::
         :: HOMO-LUMO gap              0.826536529069 eV    ::
         ::.................................................::
         :: SCC energy              -305.992483770597 Eh    ::
         :: -> isotropic ES            0.214900965032 Eh    ::
         :: -> anisotropic ES          0.024089825950 Eh    ::
         :: -> anisotropic XC          0.146184363211 Eh    ::
         :: -> dispersion             -0.277673260435 Eh    ::
         :: repulsion energy           4.500707956109 Eh    ::
         :: add. restraining           0.000000000000 Eh    ::
         :::::::::::::::::::::::::::::::::::::::::::::::::::::

      ----------------------------------------------------------- 
     |                   =====================                   |
     |                        A N C O P T                        |
     |                   =====================                   |
     |               Approximate Normal Coordinate               |
     |                Rational Function Optimizer                |
      ----------------------------------------------------------- 

          ...................................................
          :                      SETUP                      :
          :.................................................:
          :   optimization level            normal          :
          :   max. optcycles                   558          :
          :   ANC micro-cycles                  20          :
          :   degrees of freedom               552          :
          :.................................................:
          :   RF solver                   davidson          :
          :   input Hessian                  false          :
          :   write xtbopt.log                true          :
          :   linear?                        false          :
          :   energy convergence         0.5000000E-05 Eh   :
          :   grad. convergence          0.1000000E-02 Eh/α :
          :   maximium RF displ.         2.0000000          :
          :   Hlow (freq-cutoff)         0.5000000E-02      :
          :   Hmax (freq-cutoff)         5.0000000          :
          :   S6 in model hess.         20.0000000          :
          ...................................................

generating ANC from model Hessian ...
Using Lindh-Hessian (1995)
 Shifting diagonal of input Hessian by   4.997785447888554E-003
 Lowest  eigenvalues of input Hessian
   -0.000000   -0.000000    0.000000    0.000000    0.000000    0.000000
    0.005000    0.005011    0.005013    0.005022    0.005033    0.005046
    0.005063    0.005089    0.005109    0.005114    0.005131    0.005170
 Highest eigenvalues
    2.200770    2.213102    2.260103    2.319731    2.334449    2.352566
 

........................................................................
.............................. CYCLE    1 ..............................
........................................................................
   1   -305.9924838 -0.305992E+03  0.166E-04    0.83       0.0  T
   2   -305.9924838  0.634543E-09  0.149E-04    0.83      49.2  T
   3   -305.9924838 -0.381652E-08  0.641E-05    0.83     114.3  T
     SCC iter.                  ...        0 min,  0.195 sec
     gradient                   ...        0 min,  0.437 sec
 * total energy  :  -301.4886492 Eh     change        0.1058778E-06 Eh
   gradient norm :     0.2279997 Eh/α   predicted     0.0000000E+00 (-100.00%)
   displ. norm   :     0.5388491 α      lambda       -0.8352908E-01
   maximum displ.:     0.1191431 α      in ANC's #341, #261, #100, ...

........................................................................
.............................. CYCLE    2 ..............................
........................................................................
   1   -306.1775154 -0.306178E+03  0.302E-01    0.89       0.0  T
   2   -306.1782418 -0.726416E-03  0.157E-01    0.91       1.0  T
   3   -306.1773262  0.915614E-03  0.880E-02    0.91       1.0  T
   4   -306.1786467 -0.132054E-02  0.324E-02    0.91       1.0  T
   5   -306.1787202 -0.734798E-04  0.163E-02    0.92       1.0  T
   6   -306.1787380 -0.177507E-04  0.572E-03    0.91       1.3  T
   7   -306.1787423 -0.429382E-05  0.220E-03    0.91       3.3  T
   8   -306.1787430 -0.700009E-06  0.104E-03    0.91       7.0  T
     SCC iter.                  ...        0 min,  0.508 sec
     gradient                   ...        0 min,  0.417 sec
 * total energy  :  -301.5506827 Eh     change       -0.6203350E-01 Eh
   gradient norm :     0.1088088 Eh/α   predicted    -0.5389130E-01 ( -13.13%)
   displ. norm   :     0.5722223 α      lambda       -0.3760333E-01
   maximum displ.:     0.1338186 α      in ANC's #72, #100, #39, ...

........................................................................
.............................. CYCLE    3 ..............................
........................................................................
   1   -306.2972644 -0.306297E+03  0.261E-01    0.94       0.0  T
   2   -306.2976695 -0.405051E-03  0.133E-01    0.96       1.0  T
   3   -306.2970194  0.650114E-03  0.714E-02    0.96       1.0  T
   4   -306.2978884 -0.869071E-03  0.256E-02    0.96       1.0  T
   5   -306.2979295 -0.410474E-04  0.130E-02    0.96       1.0  T
   6   -306.2979428 -0.132811E-04  0.457E-03    0.96       1.6  T
   7   -306.2979456 -0.286148E-05  0.165E-03    0.96       4.5  T
   8   -306.2979460 -0.367292E-06  0.801E-04    0.96       9.2  T
     SCC iter.                  ...        0 min,  0.508 sec
     gradient                   ...        0 min,  0.417 sec
 * total energy  :  -301.5760208 Eh     change       -0.2533809E-01 Eh
   gradient norm :     0.0363436 Eh/α   predicted    -0.2495806E-01 (  -1.50%)
   displ. norm   :     0.6702333 α      lambda       -0.1438872E-01
   maximum displ.:     0.2109854 α      in ANC's #39, #72, #57, ...

........................................................................
.............................. CYCLE    4 ..............................
........................................................................
   1   -306.3361169 -0.306336E+03  0.194E-01    0.96       0.0  T
   2   -306.3362511 -0.134143E-03  0.935E-02    0.97       1.0  T
   3   -306.3361367  0.114387E-03  0.326E-02    0.96       1.0  T
   4   -306.3362847 -0.147997E-03  0.155E-02    0.97       1.0  T
   5   -306.3362958 -0.110902E-04  0.756E-03    0.97       1.0  T
   6   -306.3363051 -0.933773E-05  0.204E-03    0.97       3.6  T
   7   -306.3363056 -0.532859E-06  0.969E-04    0.97       7.6  T
   8   -306.3363057 -0.895714E-07  0.459E-04    0.97      16.0  T
     SCC iter.                  ...        0 min,  0.508 sec
     gradient                   ...        0 min,  0.420 sec
 * total energy  :  -301.5875340 Eh     change       -0.1151323E-01 Eh
   gradient norm :     0.0234571 Eh/α   predicted    -0.1042632E-01 (  -9.44%)
   displ. norm   :     0.7541812 α      lambda       -0.1025235E-01
   maximum displ.:     0.2717673 α      in ANC's #39, #72, #57, ...

........................................................................
.............................. CYCLE    5 ..............................
........................................................................
   1   -306.3671676 -0.306367E+03  0.151E-01    0.96       0.0  T
   2   -306.3672472 -0.795913E-04  0.770E-02    0.96       1.0  T
   3   -306.3671388  0.108384E-03  0.291E-02    0.96       1.0  T
   4   -306.3672645 -0.125734E-03  0.131E-02    0.97       1.0  T
   5   -306.3672766 -0.121212E-04  0.639E-03    0.96       1.1  T
   6   -306.3672828 -0.619185E-05  0.167E-03    0.96       4.4  T
   7   -306.3672831 -0.305427E-06  0.868E-04    0.96       8.4  T
   8   -306.3672832 -0.752967E-07  0.432E-04    0.96      17.0  T
     SCC iter.                  ...        0 min,  0.506 sec
     gradient                   ...        0 min,  0.418 sec
 * total energy  :  -301.5961019 Eh     change       -0.8567881E-02 Eh
   gradient norm :     0.0173778 Eh/α   predicted    -0.8041905E-02 (  -6.14%)
   displ. norm   :     0.7882416 α      lambda       -0.7730074E-02
   maximum displ.:     0.3043830 α      in ANC's #39, #29, #46, ...

........................................................................
.............................. CYCLE    6 ..............................
........................................................................
   1   -306.3894430 -0.306389E+03  0.128E-01    0.96       0.0  T
   2   -306.3894903 -0.473439E-04  0.697E-02    0.96       1.0  T
   3   -306.3893145  0.175830E-03  0.324E-02    0.96       1.0  T
   4   -306.3895135 -0.199065E-03  0.106E-02    0.97       1.0  T
   5   -306.3895225 -0.891749E-05  0.506E-03    0.96       1.4  T
   6   -306.3895254 -0.297451E-05  0.180E-03    0.96       4.1  T
   7   -306.3895259 -0.482848E-06  0.815E-04    0.96       9.0  T
     SCC iter.                  ...        0 min,  0.445 sec
     gradient                   ...        0 min,  0.419 sec
 * total energy  :  -301.6027524 Eh     change       -0.6650455E-02 Eh
   gradient norm :     0.0150160 Eh/α   predicted    -0.6266484E-02 (  -5.77%)
   displ. norm   :     0.8141477 α      lambda       -0.6254048E-02
   maximum displ.:     0.3178593 α      in ANC's #39, #29, #15, ...

........................................................................
.............................. CYCLE    7 ..............................
........................................................................
   1   -306.4088824 -0.306409E+03  0.130E-01    0.96       0.0  T
   2   -306.4089288 -0.463484E-04  0.699E-02    0.96       1.0  T
   3   -306.4087841  0.144706E-03  0.301E-02    0.96       1.0  T
   4   -306.4089477 -0.163588E-03  0.109E-02    0.97       1.0  T
   5   -306.4089554 -0.774144E-05  0.480E-03    0.96       1.5  T
   6   -306.4089583 -0.289503E-05  0.176E-03    0.96       4.2  T
   7   -306.4089588 -0.514696E-06  0.770E-04    0.96       9.5  T
     SCC iter.                  ...        0 min,  0.443 sec
     gradient                   ...        0 min,  0.420 sec
 * total energy  :  -301.6082503 Eh     change       -0.5497947E-02 Eh
   gradient norm :     0.0133017 Eh/α   predicted    -0.5199789E-02 (  -5.42%)
   displ. norm   :     0.8358617 α      lambda       -0.5299072E-02
   maximum displ.:     0.3189724 α      in ANC's #39, #15, #29, ...

........................................................................
.............................. CYCLE    8 ..............................
........................................................................
   1   -306.4232540 -0.306423E+03  0.121E-01    0.96       0.0  T
   2   -306.4232867 -0.326276E-04  0.682E-02    0.96       1.0  T
   3   -306.4231119  0.174761E-03  0.315E-02    0.96       1.0  T
   4   -306.4233061 -0.194212E-03  0.902E-03    0.97       1.0  T
   5   -306.4233129 -0.682406E-05  0.416E-03    0.96       1.8  T
   6   -306.4233145 -0.159530E-05  0.186E-03    0.96       3.9  T
   7   -306.4233151 -0.535854E-06  0.819E-04    0.96       9.0  T
     SCC iter.                  ...        0 min,  0.445 sec
     gradient                   ...        0 min,  0.422 sec
 * total energy  :  -301.6129792 Eh     change       -0.4728878E-02 Eh
   gradient norm :     0.0111929 Eh/α   predicted    -0.4500678E-02 (  -4.83%)
   displ. norm   :     0.8538437 α      lambda       -0.4629038E-02
   maximum displ.:     0.3045521 α      in ANC's #39, #15, #29, ...

........................................................................
.............................. CYCLE    9 ..............................
........................................................................
   1   -306.4349734 -0.306435E+03  0.129E-01    0.96       0.0  T
   2   -306.4350124 -0.389852E-04  0.701E-02    0.96       1.0  T
   3   -306.4349261  0.863030E-04  0.250E-02    0.96       1.0  T
   4   -306.4350190 -0.929123E-04  0.109E-02    0.97       1.0  T
   5   -306.4350298 -0.107117E-04  0.417E-03    0.96       1.8  T
   6   -306.4350320 -0.229071E-05  0.164E-03    0.96       4.5  T
   7   -306.4350324 -0.322496E-06  0.866E-04    0.96       8.5  T
     SCC iter.                  ...        0 min,  0.444 sec
     gradient                   ...        0 min,  0.421 sec
 * total energy  :  -301.6171654 Eh     change       -0.4186235E-02 Eh
   gradient norm :     0.0097300 Eh/α   predicted    -0.4001918E-02 (  -4.40%)
   displ. norm   :     0.8685098 α      lambda       -0.4156372E-02
   maximum displ.:     0.3140833 α      in ANC's #15, #39, #29, ...

........................................................................
.............................. CYCLE   10 ..............................
........................................................................
   1   -306.4436333 -0.306444E+03  0.120E-01    0.96       0.0  T
   2   -306.4436607 -0.273763E-04  0.681E-02    0.96       1.0  T
   3   -306.4435686  0.920714E-04  0.240E-02    0.96       1.0  T
   4   -306.4436680 -0.993298E-04  0.859E-03    0.96       1.0  T
   5   -306.4436759 -0.792264E-05  0.366E-03    0.96       2.0  T
   6   -306.4436772 -0.128537E-05  0.170E-03    0.96       4.3  T
   7   -306.4436775 -0.326638E-06  0.866E-04    0.96       8.5  T
     SCC iter.                  ...        0 min,  0.444 sec
     gradient                   ...        0 min,  0.421 sec
 * total energy  :  -301.6209812 Eh     change       -0.3815805E-02 Eh
   gradient norm :     0.0101326 Eh/α   predicted    -0.3645781E-02 (  -4.46%)
   displ. norm   :     0.8817498 α      lambda       -0.3869051E-02
   maximum displ.:     0.3423238 α      in ANC's #15, #14, #29, ...

........................................................................
.............................. CYCLE   11 ..............................
........................................................................
   1   -306.4498110 -0.306450E+03  0.121E-01    0.96       0.0  T
   2   -306.4498363 -0.252781E-04  0.690E-02    0.96       1.0  T
   3   -306.4497856  0.506974E-04  0.192E-02    0.96       1.0  T
   4   -306.4498412 -0.555638E-04  0.777E-03    0.96       1.0  T
   5   -306.4498473 -0.611424E-05  0.329E-03    0.96       2.2  T
   6   -306.4498484 -0.114127E-05  0.135E-03    0.96       5.4  T
   7   -306.4498486 -0.147374E-06  0.739E-04    0.96       9.9  T
     SCC iter.                  ...        0 min,  0.444 sec
     gradient                   ...        0 min,  0.420 sec
 * total energy  :  -301.6245869 Eh     change       -0.3605645E-02 Eh
   gradient norm :     0.0104441 Eh/α   predicted    -0.3438583E-02 (  -4.63%)
   displ. norm   :     0.8945479 α      lambda       -0.3726623E-02
   maximum displ.:     0.3663193 α      in ANC's #15, #14, #28, ...

........................................................................
.............................. CYCLE   12 ..............................
........................................................................
   1   -306.4556766 -0.306456E+03  0.120E-01    0.96       0.0  T
   2   -306.4556966 -0.200048E-04  0.692E-02    0.96       1.0  T
   3   -306.4556563  0.402672E-04  0.165E-02    0.96       1.0  T
   4   -306.4557017 -0.453749E-04  0.627E-03    0.96       1.2  T
   5   -306.4557058 -0.407941E-05  0.285E-03    0.96       2.6  T
   6   -306.4557065 -0.699059E-06  0.130E-03    0.96       5.6  T
   7   -306.4557066 -0.136066E-06  0.680E-04    0.96      10.8  T
     SCC iter.                  ...        0 min,  0.444 sec
     gradient                   ...        0 min,  0.421 sec
 * total energy  :  -301.6280956 Eh     change       -0.3508679E-02 Eh
   gradient norm :     0.0101509 Eh/α   predicted    -0.3354373E-02 (  -4.40%)
   displ. norm   :     0.9097321 α      lambda       -0.3633336E-02
   maximum displ.:     0.3874260 α      in ANC's #15, #14, #28, ...

........................................................................
.............................. CYCLE   13 ..............................
........................................................................
   1   -306.4585793 -0.306459E+03  0.123E-01    0.96       0.0  T
   2   -306.4585975 -0.182245E-04  0.713E-02    0.96       1.0  T
   3   -306.4585380  0.595677E-04  0.184E-02    0.96       1.0  T
   4   -306.4586038 -0.658250E-04  0.623E-03    0.96       1.2  T
   5   -306.4586075 -0.371547E-05  0.317E-03    0.96       2.3  T
   6   -306.4586085 -0.102065E-05  0.134E-03    0.96       5.5  T
   7   -306.4586087 -0.165077E-06  0.710E-04    0.96      10.3  T
     SCC iter.                  ...        0 min,  0.443 sec
     gradient                   ...        0 min,  0.421 sec
 * total energy  :  -301.6315319 Eh     change       -0.3436362E-02 Eh
   gradient norm :     0.0089000 Eh/α   predicted    -0.3320162E-02 (  -3.38%)
   displ. norm   :     0.9213949 α      lambda       -0.3495265E-02
   maximum displ.:     0.4026874 α      in ANC's #15, #14, #28, ...

........................................................................
.............................. CYCLE   14 ..............................
........................................................................
   1   -306.4618308 -0.306462E+03  0.126E-01    0.96       0.0  T
   2   -306.4618503 -0.194885E-04  0.725E-02    0.97       1.0  T
   3   -306.4617974  0.529154E-04  0.181E-02    0.96       1.0  T
   4   -306.4618543 -0.569396E-04  0.734E-03    0.96       1.0  T
   5   -306.4618601 -0.574275E-05  0.324E-03    0.96       2.3  T
   6   -306.4618615 -0.144045E-05  0.124E-03    0.96       5.9  T
   7   -306.4618616 -0.954991E-07  0.740E-04    0.96       9.9  T
     SCC iter.                  ...        0 min,  0.444 sec
     gradient                   ...        0 min,  0.421 sec
 * total energy  :  -301.6348354 Eh     change       -0.3303503E-02 Eh
   gradient norm :     0.0076520 Eh/α   predicted    -0.3231320E-02 (  -2.19%)
   displ. norm   :     0.9291318 α      lambda       -0.3278997E-02
   maximum displ.:     0.4124390 α      in ANC's #15, #14, #21, ...

........................................................................
.............................. CYCLE   15 ..............................
........................................................................
   1   -306.4610243 -0.306461E+03  0.127E-01    0.97       0.0  T
   2   -306.4610483 -0.239931E-04  0.729E-02    0.97       1.0  T
   3   -306.4609686  0.797211E-04  0.217E-02    0.97       1.0  T
   4   -306.4610527 -0.841405E-04  0.858E-03    0.97       1.0  T
   5   -306.4610610 -0.826979E-05  0.355E-03    0.97       2.1  T
   6   -306.4610627 -0.165046E-05  0.137E-03    0.97       5.4  T
   7   -306.4610628 -0.160263E-06  0.789E-04    0.97       9.3  T
     SCC iter.                  ...        0 min,  0.446 sec
     gradient                   ...        0 min,  0.422 sec
 * total energy  :  -301.6379334 Eh     change       -0.3098010E-02 Eh
   gradient norm :     0.0083014 Eh/α   predicted    -0.3054861E-02 (  -1.39%)
   displ. norm   :     0.9273616 α      lambda       -0.3133043E-02
   maximum displ.:     0.4188644 α      in ANC's #15, #14, #21, ...

........................................................................
.............................. CYCLE   16 ..............................
........................................................................
   1   -306.4693145 -0.306469E+03  0.122E-01    0.97       0.0  T
   2   -306.4693365 -0.220400E-04  0.696E-02    0.97       1.0  T
   3   -306.4692858  0.506659E-04  0.184E-02    0.97       1.0  T
   4   -306.4693373 -0.514931E-04  0.840E-03    0.97       1.0  T
   5   -306.4693458 -0.848157E-05  0.332E-03    0.97       2.2  T
   6   -306.4693475 -0.164386E-05  0.118E-03    0.97       6.2  T
   7   -306.4693475 -0.986405E-07  0.731E-04    0.97      10.0  T
     SCC iter.                  ...        0 min,  0.444 sec
     gradient                   ...        0 min,  0.420 sec
 * total energy  :  -301.6408159 Eh     change       -0.2882418E-02 Eh
   gradient norm :     0.0108016 Eh/α   predicted    -0.2913729E-02 (   1.09%)
   displ. norm   :     0.9384716 α      lambda       -0.3056407E-02
   maximum displ.:     0.4215614 α      in ANC's #15, #14, #21, ...

........................................................................
.............................. CYCLE   17 ..............................
........................................................................
   1   -306.4607981 -0.306461E+03  0.123E-01    0.97       0.0  T
   2   -306.4608311 -0.330000E-04  0.705E-02    0.97       1.0  T
   3   -306.4607764  0.546933E-04  0.193E-02    0.97       1.0  T
   4   -306.4608316 -0.551969E-04  0.866E-03    0.97       1.0  T
   5   -306.4608420 -0.104005E-04  0.334E-03    0.97       2.2  T
   6   -306.4608430 -0.977202E-06  0.148E-03    0.97       5.0  T
   7   -306.4608432 -0.258654E-06  0.766E-04    0.97       9.6  T
     SCC iter.                  ...        0 min,  0.444 sec
     gradient                   ...        0 min,  0.420 sec
 * total energy  :  -301.6435158 Eh     change       -0.2699948E-02 Eh
   gradient norm :     0.0121783 Eh/α   predicted    -0.2874150E-02 (   6.45%)
   displ. norm   :     0.8924679 α      lambda       -0.2752538E-02
   maximum displ.:     0.4039485 α      in ANC's #15, #14, #21, ...

........................................................................
.............................. CYCLE   18 ..............................
........................................................................
   1   -306.4643767 -0.306464E+03  0.115E-01    0.97       0.0  T
   2   -306.4644037 -0.269961E-04  0.651E-02    0.97       1.0  T
   3   -306.4643519  0.518490E-04  0.184E-02    0.97       1.0  T
   4   -306.4644045 -0.526547E-04  0.834E-03    0.97       1.0  T
   5   -306.4644135 -0.892457E-05  0.322E-03    0.97       2.3  T
   6   -306.4644145 -0.101394E-05  0.139E-03    0.97       5.3  T
   7   -306.4644147 -0.228046E-06  0.719E-04    0.97      10.2  T
     SCC iter.                  ...        0 min,  0.444 sec
     gradient                   ...        0 min,  0.420 sec
 * total energy  :  -301.6460369 Eh     change       -0.2521052E-02 Eh
   gradient norm :     0.0147189 Eh/α   predicted    -0.2472473E-02 (  -1.93%)
   displ. norm   :     0.8907668 α      lambda       -0.2909249E-02
   maximum displ.:     0.3986640 α      in ANC's #15, #14, #21, ...

........................................................................
.............................. CYCLE   19 ..............................
........................................................................
   1   -306.4772755 -0.306477E+03  0.110E-01    0.98       0.0  T
   2   -306.4773233 -0.478546E-04  0.625E-02    0.97       1.0  T
   3   -306.4773050  0.183794E-04  0.146E-02    0.98       1.0  T
   4   -306.4773266 -0.216296E-04  0.671E-03    0.97       1.1  T
   5   -306.4773311 -0.449166E-05  0.311E-03    0.97       2.4  T
   6   -306.4773321 -0.102528E-05  0.125E-03    0.98       5.9  T
   7   -306.4773323 -0.175009E-06  0.620E-04    0.97      11.8  T
     SCC iter.                  ...        0 min,  0.445 sec
     gradient                   ...        0 min,  0.420 sec
 * total energy  :  -301.6484635 Eh     change       -0.2426677E-02 Eh
   gradient norm :     0.0172800 Eh/α   predicted    -0.2608822E-02 (   7.51%)
   displ. norm   :     0.8936318 α      lambda       -0.2599555E-02
   maximum displ.:     0.4008985 α      in ANC's #15, #14, #21, ...

........................................................................
.............................. CYCLE   20 ..............................
........................................................................
   1   -306.4744590 -0.306474E+03  0.108E-01    0.97       0.0  T
   2   -306.4744815 -0.225211E-04  0.622E-02    0.97       1.0  T
   3   -306.4744466  0.348831E-04  0.149E-02    0.98       1.0  T
   4   -306.4744805 -0.339378E-04  0.714E-03    0.97       1.0  T
   5   -306.4744883 -0.778908E-05  0.275E-03    0.97       2.7  T
   6   -306.4744889 -0.548642E-06  0.131E-03    0.97       5.6  T
   7   -306.4744891 -0.204900E-06  0.654E-04    0.97      11.2  T
     SCC iter.                  ...        0 min,  0.443 sec
     gradient                   ...        0 min,  0.420 sec
 * total energy  :  -301.6508261 Eh     change       -0.2362540E-02 Eh
   gradient norm :     0.0107554 Eh/α   predicted    -0.2337760E-02 (  -1.05%)
   displ. norm   :     0.8909276 α      lambda       -0.2611810E-02
   maximum displ.:     0.3826749 α      in ANC's #15, #14, #21, ...
 * RMSD in coord.:     1.0490034 α      energy gain  -0.1621767E+00 Eh

generating ANC from model Hessian ...
Using Lindh-Hessian (1995)
 Shifting diagonal of input Hessian by   4.996651631794512E-003
 Lowest  eigenvalues of input Hessian
   -0.000000   -0.000000    0.000000    0.000000    0.000000    0.000000
    0.005000    0.005013    0.005017    0.005031    0.005036    0.005050
    0.005074    0.005102    0.005123    0.005148    0.005163    0.005198
 Highest eigenvalues
    2.250604    2.260939    2.270797    2.288300    2.378257    2.396503
 

........................................................................
.............................. CYCLE   21 ..............................
........................................................................
   1   -306.4854843 -0.306485E+03  0.112E-01    0.97       0.0  T
   2   -306.4855233 -0.389392E-04  0.636E-02    0.97       1.0  T
   3   -306.4854810  0.422780E-04  0.176E-02    0.98       1.0  T
   4   -306.4855199 -0.388801E-04  0.903E-03    0.97       1.0  T
   5   -306.4855327 -0.127833E-04  0.330E-03    0.97       2.2  T
   6   -306.4855334 -0.754429E-06  0.166E-03    0.97       4.4  T
   7   -306.4855338 -0.378708E-06  0.753E-04    0.97       9.7  T
   8   -306.4855338 -0.302118E-07  0.433E-04    0.97      16.9  T
     SCC iter.                  ...        0 min,  0.507 sec
     gradient                   ...        0 min,  0.440 sec
 * total energy  :  -301.6529337 Eh     change       -0.2107658E-02 Eh
   gradient norm :     0.0152266 Eh/α   predicted     0.0000000E+00 (-100.00%)
   displ. norm   :     0.3624009 α      lambda       -0.1309564E-02
   maximum displ.:     0.1830717 α      in ANC's #16, #21, #13, ...

........................................................................
.............................. CYCLE   22 ..............................
........................................................................
   1   -306.4840754 -0.306484E+03  0.558E-02    0.98       0.0  T
   2   -306.4840855 -0.100937E-04  0.303E-02    0.98       1.0  T
   3   -306.4840824  0.316817E-05  0.755E-03    0.97       1.0  T
   4   -306.4840862 -0.388868E-05  0.401E-03    0.98       1.8  T
   5   -306.4840875 -0.122104E-05  0.169E-03    0.98       4.3  T
   6   -306.4840879 -0.403012E-06  0.597E-04    0.98      12.3  T
     SCC iter.                  ...        0 min,  0.380 sec
     gradient                   ...        0 min,  0.420 sec
 * total energy  :  -301.6540478 Eh     change       -0.1114074E-02 Eh
   gradient norm :     0.0051026 Eh/α   predicted    -0.7424248E-03 ( -33.36%)
   displ. norm   :     0.3789598 α      lambda       -0.1017344E-02
   maximum displ.:     0.1722605 α      in ANC's #16, #21, #13, ...

........................................................................
.............................. CYCLE   23 ..............................
........................................................................
   1   -306.4823657 -0.306482E+03  0.573E-02    0.98       0.0  T
   2   -306.4823716 -0.590830E-05  0.321E-02    0.98       1.0  T
   3   -306.4823669  0.471194E-05  0.694E-03    0.97       1.1  T
   4   -306.4823717 -0.489019E-05  0.371E-03    0.98       2.0  T
   5   -306.4823732 -0.144933E-05  0.141E-03    0.98       5.2  T
   6   -306.4823734 -0.234072E-06  0.509E-04    0.98      14.4  T
     SCC iter.                  ...        0 min,  0.382 sec
     gradient                   ...        0 min,  0.420 sec
 * total energy  :  -301.6549838 Eh     change       -0.9360205E-03 Eh
   gradient norm :     0.0058740 Eh/α   predicted    -0.5817241E-03 ( -37.85%)
   displ. norm   :     0.7685223 α      lambda       -0.1832007E-02
   maximum displ.:     0.3373005 α      in ANC's #16, #21, #13, ...

........................................................................
.............................. CYCLE   24 ..............................
........................................................................
   1   -306.4787238 -0.306479E+03  0.111E-01    0.98       0.0  T
   2   -306.4787384 -0.146158E-04  0.628E-02    0.98       1.0  T
   3   -306.4787223  0.161835E-04  0.121E-02    0.97       1.0  T
   4   -306.4787393 -0.170145E-04  0.653E-03    0.98       1.1  T
   5   -306.4787437 -0.444904E-05  0.233E-03    0.97       3.1  T
   6   -306.4787445 -0.729852E-06  0.880E-04    0.98       8.3  T
   7   -306.4787445 -0.396517E-07  0.570E-04    0.97      12.9  T
     SCC iter.                  ...        0 min,  0.444 sec
     gradient                   ...        0 min,  0.420 sec
 * total energy  :  -301.6566629 Eh     change       -0.1679052E-02 Eh
   gradient norm :     0.0127841 Eh/α   predicted    -0.1457031E-02 ( -13.22%)
   displ. norm   :     0.8449038 α      lambda       -0.1893718E-02
   maximum displ.:     0.3722867 α      in ANC's #16, #21, #13, ...

........................................................................
.............................. CYCLE   25 ..............................
........................................................................
   1   -306.4763112 -0.306476E+03  0.116E-01    0.97       0.0  T
   2   -306.4763243 -0.131345E-04  0.661E-02    0.98       1.0  T
   3   -306.4763057  0.185450E-04  0.122E-02    0.97       1.0  T
   4   -306.4763256 -0.198020E-04  0.640E-03    0.98       1.1  T
   5   -306.4763298 -0.424010E-05  0.221E-03    0.97       3.3  T
   6   -306.4763304 -0.657427E-06  0.841E-04    0.97       8.7  T
   7   -306.4763305 -0.399552E-08  0.558E-04    0.97      13.1  T
     SCC iter.                  ...        0 min,  0.443 sec
     gradient                   ...        0 min,  0.419 sec
 * total energy  :  -301.6584247 Eh     change       -0.1761849E-02 Eh
   gradient norm :     0.0154357 Eh/α   predicted    -0.1622787E-02 (  -7.89%)
   displ. norm   :     0.8464676 α      lambda       -0.1986299E-02
   maximum displ.:     0.3785966 α      in ANC's #16, #21, #13, ...

........................................................................
.............................. CYCLE   26 ..............................
........................................................................
   1   -306.4800754 -0.306480E+03  0.111E-01    0.97       0.0  T
   2   -306.4800879 -0.124245E-04  0.633E-02    0.97       1.0  T
   3   -306.4800701  0.177240E-04  0.115E-02    0.97       1.0  T
   4   -306.4800887 -0.185158E-04  0.601E-03    0.98       1.2  T
   5   -306.4800927 -0.401375E-05  0.213E-03    0.97       3.4  T
   6   -306.4800933 -0.608022E-06  0.880E-04    0.97       8.3  T
   7   -306.4800933 -0.361097E-07  0.572E-04    0.97      12.8  T
     SCC iter.                  ...        0 min,  0.445 sec
     gradient                   ...        0 min,  0.420 sec
 * total energy  :  -301.6602717 Eh     change       -0.1847004E-02 Eh
   gradient norm :     0.0121923 Eh/α   predicted    -0.1704755E-02 (  -7.70%)
   displ. norm   :     0.8453502 α      lambda       -0.2002783E-02
   maximum displ.:     0.3841460 α      in ANC's #16, #21, #12, ...

........................................................................
.............................. CYCLE   27 ..............................
........................................................................
   1   -306.4898032 -0.306490E+03  0.107E-01    0.97       0.0  T
   2   -306.4898192 -0.160427E-04  0.613E-02    0.97       1.0  T
   3   -306.4898017  0.174811E-04  0.118E-02    0.97       1.0  T
   4   -306.4898189 -0.172059E-04  0.637E-03    0.98       1.2  T
   5   -306.4898240 -0.508448E-05  0.230E-03    0.97       3.2  T
   6   -306.4898247 -0.638326E-06  0.104E-03    0.97       7.1  T
   7   -306.4898248 -0.117522E-06  0.582E-04    0.97      12.6  T
     SCC iter.                  ...        0 min,  0.446 sec
     gradient                   ...        0 min,  0.422 sec
 * total energy  :  -301.6620900 Eh     change       -0.1818234E-02 Eh
   gradient norm :     0.0058112 Eh/α   predicted    -0.1717006E-02 (  -5.57%)
   displ. norm   :     0.9151683 α      lambda       -0.1833432E-02
   maximum displ.:     0.4150520 α      in ANC's #16, #21, #13, ...

........................................................................
.............................. CYCLE   28 ..............................
........................................................................
   1   -306.4882326 -0.306488E+03  0.116E-01    0.97       0.0  T
   2   -306.4882486 -0.159675E-04  0.663E-02    0.98       1.0  T
   3   -306.4882288  0.198199E-04  0.125E-02    0.97       1.0  T
   4   -306.4882484 -0.196503E-04  0.673E-03    0.98       1.1  T
   5   -306.4882539 -0.550975E-05  0.237E-03    0.97       3.1  T
   6   -306.4882547 -0.748463E-06  0.104E-03    0.98       7.0  T
   7   -306.4882548 -0.114023E-06  0.600E-04    0.98      12.2  T
     SCC iter.                  ...        0 min,  0.443 sec
     gradient                   ...        0 min,  0.420 sec
 * total energy  :  -301.6637986 Eh     change       -0.1708606E-02 Eh
   gradient norm :     0.0072972 Eh/α   predicted    -0.1684546E-02 (  -1.41%)
   displ. norm   :     0.8819700 α      lambda       -0.1818020E-02
   maximum displ.:     0.3979098 α      in ANC's #16, #21, #12, ...

........................................................................
.............................. CYCLE   29 ..............................
........................................................................
   1   -306.4977923 -0.306498E+03  0.114E-01    0.98       0.0  T
   2   -306.4978148 -0.224507E-04  0.648E-02    0.98       1.0  T
   3   -306.4977943  0.204235E-04  0.138E-02    0.98       1.0  T
   4   -306.4978137 -0.193635E-04  0.767E-03    0.98       1.0  T
   5   -306.4978209 -0.722842E-05  0.282E-03    0.98       2.6  T
   6   -306.4978220 -0.105144E-05  0.123E-03    0.98       5.9  T
   7   -306.4978222 -0.195982E-06  0.638E-04    0.98      11.5  T
     SCC iter.                  ...        0 min,  0.444 sec
     gradient                   ...        0 min,  0.420 sec
 * total energy  :  -301.6653940 Eh     change       -0.1595463E-02 Eh
   gradient norm :     0.0091679 Eh/α   predicted    -0.1616110E-02 (   1.29%)
   displ. norm   :     0.9194065 α      lambda       -0.1650235E-02
   maximum displ.:     0.4119864 α      in ANC's #16, #21, #12, ...

........................................................................
.............................. CYCLE   30 ..............................
........................................................................
   1   -306.4895734 -0.306490E+03  0.114E-01    0.98       0.0  T
   2   -306.4895856 -0.121274E-04  0.654E-02    0.98       1.0  T
   3   -306.4895681  0.174378E-04  0.116E-02    0.97       1.0  T
   4   -306.4895859 -0.178240E-04  0.617E-03    0.98       1.2  T
   5   -306.4895903 -0.438687E-05  0.218E-03    0.98       3.4  T
   6   -306.4895910 -0.685281E-06  0.882E-04    0.98       8.3  T
   7   -306.4895910 -0.360421E-07  0.564E-04    0.98      13.0  T
     SCC iter.                  ...        0 min,  0.444 sec
     gradient                   ...        0 min,  0.420 sec
 * total energy  :  -301.6668641 Eh     change       -0.1470084E-02 Eh
   gradient norm :     0.0095925 Eh/α   predicted    -0.1522595E-02 (   3.57%)
   displ. norm   :     0.8643921 α      lambda       -0.1445911E-02
   maximum displ.:     0.3786643 α      in ANC's #16, #21, #12, ...

........................................................................
.............................. CYCLE   31 ..............................
........................................................................
   1   -306.4894578 -0.306489E+03  0.105E-01    0.98       0.0  T
   2   -306.4894672 -0.940463E-05  0.602E-02    0.98       1.0  T
   3   -306.4894531  0.141383E-04  0.105E-02    0.98       1.0  T
   4   -306.4894677 -0.146056E-04  0.559E-03    0.98       1.3  T
   5   -306.4894711 -0.343414E-05  0.211E-03    0.98       3.5  T
   6   -306.4894718 -0.692198E-06  0.839E-04    0.98       8.7  T
   7   -306.4894719 -0.220002E-07  0.566E-04    0.98      13.0  T
     SCC iter.                  ...        0 min,  0.444 sec
     gradient                   ...        0 min,  0.420 sec
 * total energy  :  -301.6681986 Eh     change       -0.1334465E-02 Eh
   gradient norm :     0.0079699 Eh/α   predicted    -0.1263131E-02 (  -5.35%)
   displ. norm   :     0.8417615 α      lambda       -0.1425871E-02
   maximum displ.:     0.3556203 α      in ANC's #21, #16, #8, ...

........................................................................
.............................. CYCLE   32 ..............................
........................................................................
   1   -306.4995261 -0.306500E+03  0.988E-02    0.98       0.0  T
   2   -306.4995342 -0.815242E-05  0.572E-02    0.98       1.0  T
   3   -306.4995181  0.161394E-04  0.105E-02    0.98       1.0  T
   4   -306.4995349 -0.168391E-04  0.516E-03    0.98       1.4  T
   5   -306.4995379 -0.296411E-05  0.215E-03    0.98       3.4  T
   6   -306.4995385 -0.643416E-06  0.893E-04    0.98       8.2  T
     SCC iter.                  ...        0 min,  0.382 sec
     gradient                   ...        0 min,  0.420 sec
 * total energy  :  -301.6694393 Eh     change       -0.1240740E-02 Eh
   gradient norm :     0.0062353 Eh/α   predicted    -0.1218096E-02 (  -1.83%)
   displ. norm   :     0.8977846 α      lambda       -0.1366825E-02
   maximum displ.:     0.3880141 α      in ANC's #21, #16, #8, ...

........................................................................
.............................. CYCLE   33 ..............................
........................................................................
   1   -306.4947208 -0.306495E+03  0.107E-01    0.98       0.0  T
   2   -306.4947304 -0.963711E-05  0.620E-02    0.98       1.0  T
   3   -306.4947158  0.146624E-04  0.101E-02    0.98       1.0  T
   4   -306.4947309 -0.151207E-04  0.524E-03    0.98       1.4  T
   5   -306.4947342 -0.331162E-05  0.212E-03    0.98       3.5  T
   6   -306.4947347 -0.470714E-06  0.968E-04    0.98       7.6  T
   7   -306.4947347 -0.833872E-07  0.580E-04    0.98      12.6  T
     SCC iter.                  ...        0 min,  0.443 sec
     gradient                   ...        0 min,  0.419 sec
 * total energy  :  -301.6705569 Eh     change       -0.1117600E-02 Eh
   gradient norm :     0.0090879 Eh/α   predicted    -0.1234260E-02 (  10.44%)
   displ. norm   :     0.8425289 α      lambda       -0.1179074E-02
   maximum displ.:     0.3582933 α      in ANC's #21, #16, #8, ...

........................................................................
.............................. CYCLE   34 ..............................
........................................................................
   1   -306.4922172 -0.306492E+03  0.974E-02    0.98       0.0  T
   2   -306.4922243 -0.717947E-05  0.565E-02    0.98       1.0  T
   3   -306.4922118  0.125173E-04  0.924E-03    0.98       1.0  T
   4   -306.4922253 -0.134586E-04  0.466E-03    0.98       1.6  T
   5   -306.4922276 -0.235959E-05  0.179E-03    0.98       4.1  T
   6   -306.4922280 -0.365686E-06  0.831E-04    0.98       8.8  T
     SCC iter.                  ...        0 min,  0.382 sec
     gradient                   ...        0 min,  0.420 sec
 * total energy  :  -301.6715765 Eh     change       -0.1019607E-02 Eh
   gradient norm :     0.0082477 Eh/α   predicted    -0.1008023E-02 (  -1.14%)
   displ. norm   :     0.7846521 α      lambda       -0.1189081E-02
   maximum displ.:     0.3059259 α      in ANC's #21, #16, #8, ...

........................................................................
.............................. CYCLE   35 ..............................
........................................................................
   1   -306.5065102 -0.306507E+03  0.892E-02    0.98       0.0  T
   2   -306.5065175 -0.728647E-05  0.516E-02    0.98       1.0  T
   3   -306.5065047  0.127917E-04  0.939E-03    0.98       1.0  T
   4   -306.5065182 -0.135629E-04  0.460E-03    0.98       1.6  T
   5   -306.5065205 -0.226614E-05  0.198E-03    0.98       3.7  T
   6   -306.5065210 -0.506786E-06  0.827E-04    0.98       8.9  T
     SCC iter.                  ...        0 min,  0.381 sec
     gradient                   ...        0 min,  0.420 sec
 * total energy  :  -301.6725628 Eh     change       -0.9862772E-03 Eh
   gradient norm :     0.0054830 Eh/α   predicted    -0.9605879E-03 (  -2.60%)
   displ. norm   :     0.9022125 α      lambda       -0.1045675E-02
   maximum displ.:     0.3744165 α      in ANC's #21, #16, #8, ...

........................................................................
.............................. CYCLE   36 ..............................
........................................................................
   1   -306.5015000 -0.306501E+03  0.105E-01    0.98       0.0  T
   2   -306.5015092 -0.920416E-05  0.609E-02    0.98       1.0  T
   3   -306.5015018  0.737564E-05  0.849E-03    0.98       1.0  T
   4   -306.5015090 -0.721161E-05  0.512E-03    0.98       1.4  T
   5   -306.5015124 -0.337280E-05  0.185E-03    0.98       4.0  T
   6   -306.5015128 -0.391625E-06  0.842E-04    0.98       8.7  T
   7   -306.5015128 -0.396585E-07  0.524E-04    0.98      14.0  T
     SCC iter.                  ...        0 min,  0.444 sec
     gradient                   ...        0 min,  0.420 sec
 * total energy  :  -301.6734878 Eh     change       -0.9249866E-03 Eh
   gradient norm :     0.0069253 Eh/α   predicted    -0.9484233E-03 (   2.53%)
   displ. norm   :     0.8528842 α      lambda       -0.1000625E-02
   maximum displ.:     0.3354538 α      in ANC's #21, #8, #16, ...

........................................................................
.............................. CYCLE   37 ..............................
........................................................................
   1   -306.5019491 -0.306502E+03  0.990E-02    0.98       0.0  T
   2   -306.5019597 -0.106259E-04  0.568E-02    0.98       1.0  T
   3   -306.5019517  0.801090E-05  0.899E-03    0.98       1.0  T
   4   -306.5019594 -0.766137E-05  0.529E-03    0.98       1.4  T
   5   -306.5019631 -0.370710E-05  0.186E-03    0.98       3.9  T
   6   -306.5019634 -0.359605E-06  0.857E-04    0.98       8.6  T
   7   -306.5019635 -0.617492E-07  0.511E-04    0.98      14.4  T
     SCC iter.                  ...        0 min,  0.444 sec
     gradient                   ...        0 min,  0.419 sec
 * total energy  :  -301.6742394 Eh     change       -0.7515631E-03 Eh
   gradient norm :     0.0098111 Eh/α   predicted    -0.8642463E-03 (  14.99%)
   displ. norm   :     0.7588411 α      lambda       -0.1006684E-02
   maximum displ.:     0.2824604 α      in ANC's #8, #21, #7, ...

........................................................................
.............................. CYCLE   38 ..............................
........................................................................
   1   -306.5046579 -0.306505E+03  0.875E-02    0.98       0.0  T
   2   -306.5046667 -0.878967E-05  0.502E-02    0.98       1.0  T
   3   -306.5046604  0.625231E-05  0.800E-03    0.98       1.0  T
   4   -306.5046663 -0.584783E-05  0.478E-03    0.98       1.5  T
   5   -306.5046694 -0.312060E-05  0.162E-03    0.98       4.5  T
   6   -306.5046697 -0.279884E-06  0.779E-04    0.98       9.4  T
   7   -306.5046697 -0.589046E-07  0.434E-04    0.98      16.9  T
     SCC iter.                  ...        0 min,  0.444 sec
     gradient                   ...        0 min,  0.419 sec
 * total energy  :  -301.6750517 Eh     change       -0.8123806E-03 Eh
   gradient norm :     0.0074765 Eh/α   predicted    -0.7931891E-03 (  -2.36%)
   displ. norm   :     0.7916333 α      lambda       -0.8324753E-03
   maximum displ.:     0.3068179 α      in ANC's #8, #7, #21, ...

........................................................................
.............................. CYCLE   39 ..............................
........................................................................
   1   -306.5088540 -0.306509E+03  0.913E-02    0.98       0.0  T
   2   -306.5088618 -0.775016E-05  0.524E-02    0.98       1.0  T
   3   -306.5088538  0.795820E-05  0.855E-03    0.98       1.0  T
   4   -306.5088615 -0.761653E-05  0.491E-03    0.98       1.5  T
   5   -306.5088646 -0.316957E-05  0.157E-03    0.98       4.7  T
   6   -306.5088650 -0.335840E-06  0.746E-04    0.98       9.8  T
   7   -306.5088650 -0.473156E-07  0.442E-04    0.98      16.6  T
     SCC iter.                  ...        0 min,  0.444 sec
     gradient                   ...        0 min,  0.419 sec
 * total energy  :  -301.6757468 Eh     change       -0.6950591E-03 Eh
   gradient norm :     0.0087553 Eh/α   predicted    -0.6770900E-03 (  -2.59%)
   displ. norm   :     0.8208102 α      lambda       -0.8640888E-03
   maximum displ.:     0.3244288 α      in ANC's #8, #7, #21, ...

........................................................................
.............................. CYCLE   40 ..............................
........................................................................
   1   -306.5122066 -0.306512E+03  0.932E-02    0.98       0.0  T
   2   -306.5122149 -0.829801E-05  0.534E-02    0.98       1.0  T
   3   -306.5122063  0.862879E-05  0.877E-03    0.98       1.0  T
   4   -306.5122140 -0.770612E-05  0.515E-03    0.98       1.4  T
   5   -306.5122178 -0.377300E-05  0.166E-03    0.98       4.4  T
   6   -306.5122182 -0.374797E-06  0.765E-04    0.98       9.6  T
   7   -306.5122182 -0.607117E-07  0.443E-04    0.98      16.5  T
     SCC iter.                  ...        0 min,  0.444 sec
     gradient                   ...        0 min,  0.420 sec
 * total energy  :  -301.6764932 Eh     change       -0.7464176E-03 Eh
   gradient norm :     0.0078575 Eh/α   predicted    -0.7231245E-03 (  -3.12%)
   displ. norm   :     0.8343379 α      lambda       -0.8636773E-03
   maximum displ.:     0.3338111 α      in ANC's #8, #7, #21, ...

........................................................................
.............................. CYCLE   41 ..............................
........................................................................
   1   -306.5113970 -0.306511E+03  0.959E-02    0.98       0.0  T
   2   -306.5114057 -0.875706E-05  0.549E-02    0.98       1.0  T
   3   -306.5113933  0.123681E-04  0.101E-02    0.98       1.0  T
   4   -306.5114052 -0.118080E-04  0.543E-03    0.98       1.3  T
   5   -306.5114089 -0.379165E-05  0.184E-03    0.98       4.0  T
   6   -306.5114095 -0.526144E-06  0.731E-04    0.98      10.0  T
   7   -306.5114095 -0.487834E-07  0.454E-04    0.98      16.2  T
     SCC iter.                  ...        0 min,  0.443 sec
     gradient                   ...        0 min,  0.419 sec
 * total energy  :  -301.6772192 Eh     change       -0.7260117E-03 Eh
   gradient norm :     0.0084813 Eh/α   predicted    -0.7324585E-03 (   0.89%)
   displ. norm   :     0.8008864 α      lambda       -0.8895188E-03
   maximum displ.:     0.3298112 α      in ANC's #8, #7, #10, ...

........................................................................
.............................. CYCLE   42 ..............................
........................................................................
   1   -306.5166713 -0.306517E+03  0.968E-02    0.98       0.0  T
   2   -306.5166828 -0.115283E-04  0.548E-02    0.98       1.0  T
   3   -306.5166645  0.183101E-04  0.122E-02    0.98       1.0  T
   4   -306.5166823 -0.178159E-04  0.616E-03    0.98       1.2  T
   5   -306.5166869 -0.462965E-05  0.208E-03    0.98       3.5  T
   6   -306.5166876 -0.665311E-06  0.732E-04    0.98      10.0  T
   7   -306.5166876 -0.538450E-07  0.445E-04    0.98      16.5  T
     SCC iter.                  ...        0 min,  0.444 sec
     gradient                   ...        0 min,  0.419 sec
 * total energy  :  -301.6779422 Eh     change       -0.7230249E-03 Eh
   gradient norm :     0.0084192 Eh/α   predicted    -0.7300405E-03 (   0.97%)
   displ. norm   :     0.8485148 α      lambda       -0.9183204E-03
   maximum displ.:     0.3442488 α      in ANC's #8, #7, #21, ...
 * RMSD in coord.:     1.2209652 α      energy gain  -0.2711618E-01 Eh

generating ANC from model Hessian ...
Using Lindh-Hessian (1995)
 Shifting diagonal of input Hessian by   4.996466788318834E-003
 Lowest  eigenvalues of input Hessian
   -0.000000   -0.000000   -0.000000   -0.000000    0.000000    0.000000
    0.005000    0.005012    0.005016    0.005029    0.005035    0.005049
    0.005075    0.005102    0.005119    0.005153    0.005170    0.005200
 Highest eigenvalues
    2.248590    2.263899    2.289064    2.290942    2.396682    2.397367
 

........................................................................
.............................. CYCLE   43 ..............................
........................................................................
   1   -306.5101883 -0.306510E+03  0.103E-01    0.98       0.0  T
   2   -306.5102019 -0.135831E-04  0.583E-02    0.98       1.0  T
   3   -306.5101886  0.132641E-04  0.114E-02    0.98       1.0  T
   4   -306.5102003 -0.117200E-04  0.645E-03    0.98       1.1  T
   5   -306.5102060 -0.563145E-05  0.202E-03    0.98       3.6  T
   6   -306.5102066 -0.617153E-06  0.811E-04    0.98       9.0  T
   7   -306.5102067 -0.657360E-07  0.473E-04    0.98      15.5  T
     SCC iter.                  ...        0 min,  0.445 sec
     gradient                   ...        0 min,  0.439 sec
 * total energy  :  -301.6786163 Eh     change       -0.6740602E-03 Eh
   gradient norm :     0.0094180 Eh/α   predicted     0.0000000E+00 (-100.00%)
   displ. norm   :     0.1640758 α      lambda       -0.3636866E-03
   maximum displ.:     0.0608294 α      in ANC's #7, #8, #4, ...

........................................................................
.............................. CYCLE   44 ..............................
........................................................................
   1   -306.5135218 -0.306514E+03  0.226E-02    0.98       0.0  T
   2   -306.5135230 -0.118507E-05  0.128E-02    0.98       1.0  T
   3   -306.5135214  0.156143E-05  0.344E-03    0.98       2.1  T
   4   -306.5135229 -0.149431E-05  0.164E-03    0.98       4.5  T
   5   -306.5135233 -0.353291E-06  0.683E-04    0.98      10.7  T
     SCC iter.                  ...        0 min,  0.320 sec
     gradient                   ...        0 min,  0.419 sec
 * total energy  :  -301.6788961 Eh     change       -0.2797595E-03 Eh
   gradient norm :     0.0037859 Eh/α   predicted    -0.1868207E-03 ( -33.22%)
   displ. norm   :     0.1748353 α      lambda       -0.2200895E-03
   maximum displ.:     0.0557448 α      in ANC's #7, #8, #40, ...

........................................................................
.............................. CYCLE   45 ..............................
........................................................................
   1   -306.5151218 -0.306515E+03  0.270E-02    0.99       0.0  T
   2   -306.5151229 -0.106446E-05  0.154E-02    0.99       1.0  T
   3   -306.5151208  0.207918E-05  0.380E-03    0.99       1.9  T
   4   -306.5151230 -0.218890E-05  0.163E-03    0.99       4.5  T
   5   -306.5151233 -0.261466E-06  0.746E-04    0.99       9.8  T
   6   -306.5151234 -0.867636E-07  0.223E-04    0.99      32.9  T
     SCC iter.                  ...        0 min,  0.382 sec
     gradient                   ...        0 min,  0.439 sec
 * total energy  :  -301.6790790 Eh     change       -0.1829592E-03 Eh
   gradient norm :     0.0023093 Eh/α   predicted    -0.1134092E-03 ( -38.01%)
   displ. norm   :     0.4347616 α      lambda       -0.4018006E-03
   maximum displ.:     0.1395479 α      in ANC's #7, #8, #40, ...

........................................................................
.............................. CYCLE   46 ..............................
........................................................................
   1   -306.5152407 -0.306515E+03  0.646E-02    0.99       0.0  T
   2   -306.5152451 -0.438779E-05  0.370E-02    0.99       1.0  T
   3   -306.5152336  0.114313E-04  0.862E-03    0.99       1.0  T
   4   -306.5152455 -0.118752E-04  0.368E-03    0.99       2.0  T
   5   -306.5152469 -0.135838E-05  0.156E-03    0.99       4.7  T
   6   -306.5152473 -0.414570E-06  0.462E-04    0.99      15.9  T
   7   -306.5152473 -0.228295E-07  0.273E-04    0.99      26.9  T
     SCC iter.                  ...        0 min,  0.443 sec
     gradient                   ...        0 min,  0.439 sec
 * total energy  :  -301.6794053 Eh     change       -0.3262522E-03 Eh
   gradient norm :     0.0073743 Eh/α   predicted    -0.2388796E-03 ( -26.78%)
   displ. norm   :     0.5838895 α      lambda       -0.4545840E-03
   maximum displ.:     0.1906115 α      in ANC's #7, #8, #40, ...

........................................................................
.............................. CYCLE   47 ..............................
........................................................................
   1   -306.5125376 -0.306513E+03  0.840E-02    0.99       0.0  T
   2   -306.5125439 -0.632055E-05  0.483E-02    0.99       1.0  T
   3   -306.5125278  0.161328E-04  0.103E-02    0.99       1.0  T
   4   -306.5125446 -0.168691E-04  0.447E-03    0.99       1.6  T
   5   -306.5125467 -0.201243E-05  0.167E-03    0.99       4.4  T
   6   -306.5125471 -0.452368E-06  0.546E-04    0.99      13.4  T
     SCC iter.                  ...        0 min,  0.398 sec
     gradient                   ...        0 min,  0.421 sec
 * total energy  :  -301.6797942 Eh     change       -0.3888800E-03 Eh
   gradient norm :     0.0105971 Eh/α   predicted    -0.3047827E-03 ( -21.63%)
   displ. norm   :     0.6448642 α      lambda       -0.5492908E-03
   maximum displ.:     0.2186228 α      in ANC's #7, #8, #40, ...

........................................................................
.............................. CYCLE   48 ..............................
........................................................................
   1   -306.5092926 -0.306509E+03  0.891E-02    0.99       0.0  T
   2   -306.5092992 -0.661160E-05  0.513E-02    0.99       1.0  T
   3   -306.5092825  0.166747E-04  0.106E-02    0.99       1.0  T
   4   -306.5093000 -0.174613E-04  0.463E-03    0.99       1.6  T
   5   -306.5093021 -0.216565E-05  0.164E-03    0.99       4.5  T
   6   -306.5093026 -0.427840E-06  0.554E-04    0.99      13.2  T
     SCC iter.                  ...        0 min,  0.381 sec
     gradient                   ...        0 min,  0.419 sec
 * total energy  :  -301.6802719 Eh     change       -0.4777309E-03 Eh
   gradient norm :     0.0107049 Eh/α   predicted    -0.3888704E-03 ( -18.60%)
   displ. norm   :     0.6348548 α      lambda       -0.7194056E-03
   maximum displ.:     0.2273752 α      in ANC's #7, #8, #40, ...

........................................................................
.............................. CYCLE   49 ..............................
........................................................................
   1   -306.5098955 -0.306510E+03  0.834E-02    0.99       0.0  T
   2   -306.5099019 -0.641257E-05  0.480E-02    0.99       1.0  T
   3   -306.5098886  0.132910E-04  0.976E-03    0.99       1.0  T
   4   -306.5099024 -0.137746E-04  0.444E-03    0.99       1.7  T
   5   -306.5099046 -0.215915E-05  0.161E-03    0.99       4.6  T
   6   -306.5099049 -0.364937E-06  0.551E-04    0.99      13.3  T
     SCC iter.                  ...        0 min,  0.382 sec
     gradient                   ...        0 min,  0.419 sec
 * total energy  :  -301.6808527 Eh     change       -0.5808494E-03 Eh
   gradient norm :     0.0078111 Eh/α   predicted    -0.5046911E-03 ( -13.11%)
   displ. norm   :     0.6898934 α      lambda       -0.6217796E-03
   maximum displ.:     0.2504749 α      in ANC's #7, #8, #40, ...

........................................................................
.............................. CYCLE   50 ..............................
........................................................................
   1   -306.5089917 -0.306509E+03  0.882E-02    0.99       0.0  T
   2   -306.5089983 -0.656509E-05  0.508E-02    0.99       1.0  T
   3   -306.5089850  0.133333E-04  0.984E-03    0.99       1.0  T
   4   -306.5089984 -0.134767E-04  0.464E-03    0.99       1.6  T
   5   -306.5090009 -0.250326E-05  0.173E-03    0.99       4.3  T
   6   -306.5090014 -0.473457E-06  0.582E-04    0.99      12.6  T
     SCC iter.                  ...        0 min,  0.381 sec
     gradient                   ...        0 min,  0.419 sec
 * total energy  :  -301.6813905 Eh     change       -0.5377461E-03 Eh
   gradient norm :     0.0093477 Eh/α   predicted    -0.4588591E-03 ( -14.67%)
   displ. norm   :     0.6501148 α      lambda       -0.7340804E-03
   maximum displ.:     0.2458146 α      in ANC's #7, #8, #4, ...

........................................................................
.............................. CYCLE   51 ..............................
........................................................................
   1   -306.5165847 -0.306517E+03  0.819E-02    0.99       0.0  T
   2   -306.5165929 -0.824549E-05  0.470E-02    0.99       1.0  T
   3   -306.5165746  0.183427E-04  0.111E-02    0.99       1.0  T
   4   -306.5165930 -0.184411E-04  0.487E-03    0.99       1.5  T
   5   -306.5165960 -0.298148E-05  0.207E-03    0.99       3.5  T
   6   -306.5165967 -0.705108E-06  0.744E-04    0.99       9.9  T
     SCC iter.                  ...        0 min,  0.382 sec
     gradient                   ...        0 min,  0.418 sec
 * total energy  :  -301.6819295 Eh     change       -0.5390145E-03 Eh
   gradient norm :     0.0113937 Eh/α   predicted    -0.5221742E-03 (  -3.12%)
   displ. norm   :     0.7980133 α      lambda       -0.7578881E-03
   maximum displ.:     0.2905666 α      in ANC's #7, #8, #40, ...

........................................................................
.............................. CYCLE   52 ..............................
........................................................................
   1   -306.5094451 -0.306509E+03  0.103E-01    0.99       0.0  T
   2   -306.5094542 -0.906582E-05  0.593E-02    0.99       1.0  T
   3   -306.5094407  0.134738E-04  0.102E-02    0.99       1.0  T
   4   -306.5094535 -0.127935E-04  0.527E-03    0.99       1.4  T
   5   -306.5094572 -0.368824E-05  0.198E-03    0.99       3.7  T
   6   -306.5094579 -0.649300E-06  0.719E-04    0.99      10.2  T
   7   -306.5094579 -0.562053E-07  0.411E-04    0.99      17.9  T
     SCC iter.                  ...        0 min,  0.445 sec
     gradient                   ...        0 min,  0.418 sec
 * total energy  :  -301.6825363 Eh     change       -0.6067730E-03 Eh
   gradient norm :     0.0120211 Eh/α   predicted    -0.6202673E-03 (   2.22%)
   displ. norm   :     0.6266659 α      lambda       -0.7237034E-03
   maximum displ.:     0.2367328 α      in ANC's #7, #8, #4, ...

........................................................................
.............................. CYCLE   53 ..............................
........................................................................
   1   -306.5103585 -0.306510E+03  0.817E-02    0.99       0.0  T
   2   -306.5103650 -0.652244E-05  0.472E-02    0.99       1.0  T
   3   -306.5103564  0.863823E-05  0.813E-03    0.99       1.0  T
   4   -306.5103650 -0.860463E-05  0.412E-03    0.99       1.8  T
   5   -306.5103672 -0.217848E-05  0.175E-03    0.99       4.2  T
   6   -306.5103677 -0.493548E-06  0.655E-04    0.99      11.2  T
     SCC iter.                  ...        0 min,  0.381 sec
     gradient                   ...        0 min,  0.418 sec
 * total energy  :  -301.6830835 Eh     change       -0.5472331E-03 Eh
   gradient norm :     0.0103871 Eh/α   predicted    -0.5039569E-03 (  -7.91%)
   displ. norm   :     0.6659044 α      lambda       -0.7423607E-03
   maximum displ.:     0.2530870 α      in ANC's #7, #8, #4, ...

........................................................................
.............................. CYCLE   54 ..............................
........................................................................
   1   -306.5143613 -0.306514E+03  0.865E-02    0.99       0.0  T
   2   -306.5143691 -0.775923E-05  0.500E-02    0.99       1.0  T
   3   -306.5143611  0.792275E-05  0.795E-03    0.99       1.0  T
   4   -306.5143685 -0.736106E-05  0.442E-03    0.99       1.7  T
   5   -306.5143714 -0.290222E-05  0.185E-03    0.99       4.0  T
   6   -306.5143719 -0.505330E-06  0.682E-04    0.99      10.8  T
     SCC iter.                  ...        0 min,  0.382 sec
     gradient                   ...        0 min,  0.418 sec
 * total energy  :  -301.6836389 Eh     change       -0.5554374E-03 Eh
   gradient norm :     0.0092763 Eh/α   predicted    -0.5357728E-03 (  -3.54%)
   displ. norm   :     0.7505722 α      lambda       -0.6447738E-03
   maximum displ.:     0.2900175 α      in ANC's #7, #8, #4, ...

........................................................................
.............................. CYCLE   55 ..............................
........................................................................
   1   -306.5116147 -0.306512E+03  0.943E-02    0.99       0.0  T
   2   -306.5116216 -0.691585E-05  0.546E-02    0.99       1.0  T
   3   -306.5116103  0.113344E-04  0.900E-03    0.99       1.0  T
   4   -306.5116219 -0.116649E-04  0.445E-03    0.99       1.6  T
   5   -306.5116243 -0.239446E-05  0.176E-03    0.99       4.2  T
   6   -306.5116248 -0.473938E-06  0.650E-04    0.99      11.3  T
     SCC iter.                  ...        0 min,  0.383 sec
     gradient                   ...        0 min,  0.418 sec
 * total energy  :  -301.6841726 Eh     change       -0.5336317E-03 Eh
   gradient norm :     0.0071286 Eh/α   predicted    -0.5040102E-03 (  -5.55%)
   displ. norm   :     0.6899096 α      lambda       -0.6195414E-03
   maximum displ.:     0.2772402 α      in ANC's #7, #4, #8, ...

........................................................................
.............................. CYCLE   56 ..............................
........................................................................
   1   -306.5210638 -0.306521E+03  0.825E-02    0.99       0.0  T
   2   -306.5210714 -0.757092E-05  0.478E-02    0.99       1.0  T
   3   -306.5210559  0.154594E-04  0.987E-03    0.99       1.0  T
   4   -306.5210727 -0.167674E-04  0.403E-03    0.99       1.8  T
   5   -306.5210744 -0.176040E-05  0.180E-03    0.99       4.1  T
   6   -306.5210748 -0.383711E-06  0.695E-04    0.99      10.5  T
     SCC iter.                  ...        0 min,  0.382 sec
     gradient                   ...        0 min,  0.418 sec
 * total energy  :  -301.6846084 Eh     change       -0.4358002E-03 Eh
   gradient norm :     0.0068278 Eh/α   predicted    -0.4572147E-03 (   4.91%)
   displ. norm   :     0.8284543 α      lambda       -0.6321320E-03
   maximum displ.:     0.3219122 α      in ANC's #7, #8, #4, ...

........................................................................
.............................. CYCLE   57 ..............................
........................................................................
   1   -306.5107231 -0.306511E+03  0.102E-01    0.99       0.0  T
   2   -306.5107326 -0.941412E-05  0.587E-02    0.99       1.0  T
   3   -306.5107171  0.154148E-04  0.106E-02    0.99       1.0  T
   4   -306.5107336 -0.164364E-04  0.483E-03    0.99       1.5  T
   5   -306.5107361 -0.254953E-05  0.180E-03    0.99       4.1  T
   6   -306.5107365 -0.396835E-06  0.719E-04    0.99      10.2  T
     SCC iter.                  ...        0 min,  0.382 sec
     gradient                   ...        0 min,  0.417 sec
 * total energy  :  -301.6850226 Eh     change       -0.4142283E-03 Eh
   gradient norm :     0.0103825 Eh/α   predicted    -0.5330017E-03 (  28.67%)
   displ. norm   :     0.5451923 α      lambda       -0.5082382E-03
   maximum displ.:     0.2212642 α      in ANC's #7, #4, #8, ...

........................................................................
.............................. CYCLE   58 ..............................
........................................................................
   1   -306.5155690 -0.306516E+03  0.651E-02    0.99       0.0  T
   2   -306.5155756 -0.657319E-05  0.375E-02    0.99       1.0  T
   3   -306.5155659  0.969614E-05  0.824E-03    0.99       1.0  T
   4   -306.5155759 -0.998018E-05  0.366E-03    0.99       2.0  T
   5   -306.5155776 -0.172101E-05  0.139E-03    0.99       5.3  T
   6   -306.5155778 -0.151931E-06  0.632E-04    0.99      11.6  T
     SCC iter.                  ...        0 min,  0.381 sec
     gradient                   ...        0 min,  0.418 sec
 * total energy  :  -301.6853517 Eh     change       -0.3291003E-03 Eh
   gradient norm :     0.0103778 Eh/α   predicted    -0.3296558E-03 (   0.17%)
   displ. norm   :     0.5891027 α      lambda       -0.5649308E-03
   maximum displ.:     0.2454470 α      in ANC's #7, #4, #8, ...

........................................................................
.............................. CYCLE   59 ..............................
........................................................................
   1   -306.5187916 -0.306519E+03  0.698E-02    0.99       0.0  T
   2   -306.5187976 -0.593723E-05  0.402E-02    1.00       1.0  T
   3   -306.5187902  0.738375E-05  0.770E-03    0.99       1.0  T
   4   -306.5187981 -0.787097E-05  0.362E-03    0.99       2.0  T
   5   -306.5187996 -0.148827E-05  0.146E-03    0.99       5.0  T
   6   -306.5187998 -0.225730E-06  0.584E-04    0.99      12.6  T
     SCC iter.                  ...        0 min,  0.383 sec
     gradient                   ...        0 min,  0.418 sec
 * total energy  :  -301.6857558 Eh     change       -0.4041170E-03 Eh
   gradient norm :     0.0063877 Eh/α   predicted    -0.3804964E-03 (  -5.84%)
   displ. norm   :     0.6877579 α      lambda       -0.5114077E-03
   maximum displ.:     0.2842674 α      in ANC's #7, #4, #8, ...

........................................................................
.............................. CYCLE   60 ..............................
........................................................................
   1   -306.5220454 -0.306522E+03  0.763E-02    1.00       0.0  T
   2   -306.5220514 -0.602156E-05  0.440E-02    1.00       1.0  T
   3   -306.5220417  0.977011E-05  0.868E-03    1.00       1.0  T
   4   -306.5220523 -0.106521E-04  0.393E-03    1.00       1.9  T
   5   -306.5220539 -0.154726E-05  0.168E-03    1.00       4.4  T
   6   -306.5220542 -0.361102E-06  0.591E-04    1.00      12.4  T
     SCC iter.                  ...        0 min,  0.382 sec
     gradient                   ...        0 min,  0.418 sec
 * total energy  :  -301.6861483 Eh     change       -0.3924660E-03 Eh
   gradient norm :     0.0067408 Eh/α   predicted    -0.3766596E-03 (  -4.03%)
   displ. norm   :     0.7830883 α      lambda       -0.4659087E-03
   maximum displ.:     0.3230327 α      in ANC's #4, #7, #8, ...

........................................................................
.............................. CYCLE   61 ..............................
........................................................................
   1   -306.5191761 -0.306519E+03  0.885E-02    1.00       0.0  T
   2   -306.5191823 -0.622643E-05  0.512E-02    1.00       1.0  T
   3   -306.5191699  0.124275E-04  0.933E-03    1.00       1.0  T
   4   -306.5191834 -0.135019E-04  0.416E-03    1.00       1.8  T
   5   -306.5191852 -0.178691E-05  0.174E-03    1.00       4.2  T
   6   -306.5191856 -0.377045E-06  0.627E-04    1.00      11.7  T
     SCC iter.                  ...        0 min,  0.382 sec
     gradient                   ...        0 min,  0.418 sec
 * total energy  :  -301.6865303 Eh     change       -0.3820170E-03 Eh
   gradient norm :     0.0071560 Eh/α   predicted    -0.3758098E-03 (  -1.62%)
   displ. norm   :     0.6827686 α      lambda       -0.4929991E-03
   maximum displ.:     0.3015180 α      in ANC's #4, #7, #8, ...

........................................................................
.............................. CYCLE   62 ..............................
........................................................................
   1   -306.5263644 -0.306526E+03  0.748E-02    1.00       0.0  T
   2   -306.5263709 -0.646452E-05  0.434E-02    1.00       1.0  T
   3   -306.5263563  0.145743E-04  0.951E-03    1.00       1.0  T
   4   -306.5263720 -0.157276E-04  0.377E-03    1.00       1.9  T
   5   -306.5263737 -0.162260E-05  0.170E-03    1.00       4.3  T
   6   -306.5263739 -0.270596E-06  0.679E-04    1.00      10.8  T
     SCC iter.                  ...        0 min,  0.381 sec
     gradient                   ...        0 min,  0.418 sec
 * total energy  :  -301.6868817 Eh     change       -0.3513534E-03 Eh
   gradient norm :     0.0074165 Eh/α   predicted    -0.3614116E-03 (   2.86%)
   displ. norm   :     0.7517597 α      lambda       -0.4082694E-03
   maximum displ.:     0.3259664 α      in ANC's #4, #7, #8, ...

........................................................................
.............................. CYCLE   63 ..............................
........................................................................
[...]
    86  C   3.990        C   87 1.451    C   20 1.404    H  155 0.967    C   89 0.109
    87  C   3.990        C   86 1.451    C   88 1.408    H  156 0.969    C   90 0.107
    88  C   3.987        C   89 1.411    C   87 1.408    C  107 1.013    C   20 0.105
    89  C   3.991        C   90 1.447    C   88 1.411    H  157 0.969    C   86 0.109
    90  C   3.991        C   89 1.447    C   20 1.412    H  158 0.967    C   87 0.107
    91  C   3.991        C   92 1.446    C   22 1.413    H  159 0.967    C   94 0.108
    92  C   3.991        C   91 1.446    C   93 1.412    H  160 0.969    C   95 0.109
    93  C   3.987        C   92 1.412    C   94 1.407    C  111 1.013    C   22 0.105
    94  C   3.990        C   95 1.452    C   93 1.407    H  161 0.969    C   91 0.108
    95  C   3.990        C   94 1.452    C   22 1.403    H  162 0.967    C   92 0.109
    96  C   3.991        C   97 1.445    C   23 1.413    H  163 0.967    C   99 0.107
    97  C   3.991        C   96 1.445    C   98 1.413    H  164 0.969    C  100 0.109
    98  C   3.986        C   97 1.413    C   99 1.406    C  113 1.013    C   23 0.105
    99  C   3.990        C  100 1.454    C   98 1.406    H  165 0.969    C   96 0.107
   100  C   3.990        C   99 1.454    C   23 1.402    H  166 0.968    C   97 0.109
   101  O   2.013        C   60 1.697    N   61 0.136
   102  O   2.022        C   62 1.700    N   61 0.142
   103  O   2.067        C   48 1.799
   104  O   2.070        C   52 1.798
   105  O   2.019        C   74 1.699    N   75 0.137
   106  O   2.019        C   76 1.700    N   75 0.142
   107  C   3.997        C   88 1.013    C  109 1.001    H  167 0.975    H  168 0.973
   108  C   3.997        C   83 1.013    C  110 1.001    H  170 0.975    H  169 0.974
   109  C   3.996        C  107 1.001    H  171 0.988    H  173 0.988    H  172 0.986
   110  C   3.996        C  108 1.001    H  176 0.988    H  174 0.988    H  175 0.986
   111  C   3.997        C   93 1.013    C  112 1.001    H  178 0.974    H  177 0.974
   112  C   3.996        C  111 1.001    H  181 0.988    H  179 0.988    H  180 0.986
   113  C   3.997        C   98 1.013    C  114 1.001    H  182 0.975    H  183 0.974
   114  C   3.996        C  113 1.001    H  184 0.988    H  186 0.988    H  185 0.986
   115  H   0.997        C    3 0.964
   116  H   0.997        C    6 0.964
   117  H   0.998        C   12 0.960
   118  H   0.998        C   18 0.960
   119  H   0.996        C   28 0.967
   120  H   0.996        C   29 0.965
   121  H   0.996        C   33 0.968
   122  H   0.996        C   34 0.965
   123  H   0.991        C   41 0.949
   124  H   0.994        C   43 0.953
   125  H   0.997        C   53 0.967
   126  H   0.995        C   54 0.965
   127  H   0.994        C   58 0.964
   128  H   0.995        C   59 0.966
   129  H   0.995        C   63 0.966
   130  H   0.994        C   63 0.964
   131  H   0.998        C   64 0.967
   132  H   0.998        C   65 0.985
   133  H   0.999        C   65 0.987
   134  H   0.999        C   65 0.986
   135  H   0.998        C   66 0.986
   136  H   0.998        C   66 0.986
   137  H   0.998        C   66 0.986
   138  H   0.995        C   67 0.967
   139  H   0.994        C   68 0.964
   140  H   0.994        C   72 0.965
   141  H   0.996        C   73 0.967
   142  H   0.995        C   77 0.966
   143  H   0.994        C   77 0.964
   144  H   0.998        C   78 0.967
   145  H   0.998        C   79 0.985
   146  H   0.999        C   79 0.987
   147  H   0.999        C   79 0.986
   148  H   0.998        C   80 0.986
   149  H   0.998        C   80 0.986
   150  H   0.998        C   80 0.986
   151  H   0.999        C   81 0.967
   152  H   0.998        C   82 0.969
   153  H   0.998        C   84 0.969
   154  H   0.999        C   85 0.968
   155  H   0.999        C   86 0.967
   156  H   0.998        C   87 0.969
   157  H   0.998        C   89 0.969
   158  H   0.999        C   90 0.967
   159  H   0.999        C   91 0.967
   160  H   0.998        C   92 0.969
   161  H   0.998        C   94 0.969
   162  H   0.999        C   95 0.967
   163  H   0.999        C   96 0.967
   164  H   0.998        C   97 0.969
   165  H   0.998        C   99 0.969
   166  H   0.999        C  100 0.968
   167  H   0.998        C  107 0.975
   168  H   0.998        C  107 0.973
   169  H   0.998        C  108 0.974
   170  H   0.998        C  108 0.975
   171  H   0.999        C  109 0.988
   172  H   0.998        C  109 0.986
   173  H   0.999        C  109 0.988
   174  H   0.999        C  110 0.988
   175  H   0.998        C  110 0.986
   176  H   0.999        C  110 0.988
   177  H   0.998        C  111 0.974
   178  H   0.998        C  111 0.974
   179  H   0.999        C  112 0.988
   180  H   0.998        C  112 0.986
   181  H   0.999        C  112 0.988
   182  H   0.998        C  113 0.975
   183  H   0.998        C  113 0.974
   184  H   0.999        C  114 0.988
   185  H   0.998        C  114 0.986
   186  H   0.999        C  114 0.988

molecular dipole:
                 x           y           z       tot (Debye)
 q only:       -0.361       0.065       0.869
   full:       -0.365       0.065       0.962       2.620
molecular quadrupole (traceless):
                xx          xy          yy          xz          yz          zz
 q only:       70.450      19.278      57.045      -6.347     104.346    -127.495
  q+dip:       71.925      17.190      51.052      -0.094     129.169    -122.977
   full:       85.770      22.288      43.202       2.038     131.891    -128.972

           -------------------------------------------------
          |                Geometry Summary                 |
           -------------------------------------------------

      molecular mass/u    :     1557.9234000
   center of mass at/Å    :        4.4249412       2.1079014       3.5262140
  moments of inertia/u·Å² :        0.2050135E+05   0.1583577E+06   0.1671268E+06
rotational constants/cm⁻¹ :        0.8222695E-03   0.1064529E-03   0.1008673E-03

 * 182 selected distances

     #   Z        #   Z                                     value/Å
     1   6 C      2   6 C                                 1.4150320
     2   6 C      3   6 C                                 1.3746846
     3   6 C      4   6 C                                 1.3921700
     4   6 C      5   6 C                                 1.4147222
     1   6 C      6   6 C                                 1.3930636
     5   6 C      6   6 C                                 1.3753345
     1   6 C      7   6 C                                 1.4297883
     7   6 C      8   6 C                                 1.3878130
     7   6 C     10  16 S                                 1.7152610
    10  16 S     11   6 C                                 1.7508264 (max)
     8   6 C     12   6 C                                 1.3880843
    11   6 C     12   6 C                                 1.3868050
     4   6 C     13   6 C                                 1.4286104
    13   6 C     14   6 C                                 1.3871625
    13   6 C     16  16 S                                 1.7144372
    16  16 S     17   6 C                                 1.7498194
    14   6 C     18   6 C                                 1.3892875
    17   6 C     18   6 C                                 1.3870699
    11   6 C     19   6 C                                 1.4283629
    17   6 C     24   6 C                                 1.4294975
    19   6 C     25   6 C                                 1.4203694
    25   6 C     26   6 C                                 1.4380772
    26   6 C     27   6 C                                 1.4178964
    27   6 C     28   6 C                                 1.3896077
    19   6 C     29   6 C                                 1.3913946
    28   6 C     29   6 C                                 1.3904703
    24   6 C     30   6 C                                 1.4206201
    30   6 C     31   6 C                                 1.4350978
    31   6 C     32   6 C                                 1.4172188
    32   6 C     33   6 C                                 1.3873540
    24   6 C     34   6 C                                 1.3905617
    33   6 C     34   6 C                                 1.3923787
    25   6 C     35   7 N                                 1.3301883
    35   7 N     36  16 S                                 1.6082447
    26   6 C     37   7 N                                 1.3331438
    36  16 S     37   7 N                                 1.6060618
    30   6 C     38   7 N                                 1.3301471
    38   7 N     39  16 S                                 1.6079242
    31   6 C     40   7 N                                 1.3316457
    39  16 S     40   7 N                                 1.6037746
    41   6 C     42   6 C                                 1.3512829
    43   6 C     44   6 C                                 1.3519805
    45   6 C     46   6 C                                 1.4143944
    46   6 C     47   6 C                                 1.4044020
    49   6 C     50   6 C                                 1.4119577
    50   6 C     51   6 C                                 1.4030459
    45   6 C     53   6 C                                 1.3808377
    53   6 C     54   6 C                                 1.4032673
    54   6 C     55   6 C                                 1.3857006
    46   6 C     56   6 C                                 1.3897739
    55   6 C     56   6 C                                 1.4063733
    56   6 C     57   6 C                                 1.4060516
    57   6 C     58   6 C                                 1.3857431
    47   6 C     59   6 C                                 1.3773596
    58   6 C     59   6 C                                 1.4046337
    60   6 C     61   7 N                                 1.3936281
    61   7 N     62   6 C                                 1.3908583
    61   7 N     63   6 C                                 1.4587143
    63   6 C     64   6 C                                 1.5344011
    64   6 C     65   6 C                                 1.5264188
    64   6 C     66   6 C                                 1.5258783
    51   6 C     67   6 C                                 1.3771015
    67   6 C     68   6 C                                 1.4051855
    68   6 C     69   6 C                                 1.3856745
    50   6 C     70   6 C                                 1.3892863
    69   6 C     70   6 C                                 1.4058697
    70   6 C     71   6 C                                 1.4065186
    71   6 C     72   6 C                                 1.3864864
    49   6 C     73   6 C                                 1.3800424
    72   6 C     73   6 C                                 1.4038489
    74   6 C     75   7 N                                 1.3953480
    75   7 N     76   6 C                                 1.3897519
    75   7 N     77   6 C                                 1.4592356
    77   6 C     78   6 C                                 1.5338823
    78   6 C     79   6 C                                 1.5261081
    78   6 C     80   6 C                                 1.5260610
    21   6 C     81   6 C                                 1.3873935
    81   6 C     82   6 C                                 1.3830267
    82   6 C     83   6 C                                 1.3879045
    83   6 C     84   6 C                                 1.3891027
    21   6 C     85   6 C                                 1.3897196
    84   6 C     85   6 C                                 1.3814252
    20   6 C     86   6 C                                 1.3894275
    86   6 C     87   6 C                                 1.3819052
    87   6 C     88   6 C                                 1.3886704
    88   6 C     89   6 C                                 1.3883843
    20   6 C     90   6 C                                 1.3878918
    89   6 C     90   6 C                                 1.3826727
    22   6 C     91   6 C                                 1.3877028
    91   6 C     92   6 C                                 1.3829489
    92   6 C     93   6 C                                 1.3881120
    93   6 C     94   6 C                                 1.3889481
    22   6 C     95   6 C                                 1.3896495
    94   6 C     95   6 C                                 1.3816474
    23   6 C     96   6 C                                 1.3873769
    96   6 C     97   6 C                                 1.3831477
    97   6 C     98   6 C                                 1.3878958
    98   6 C     99   6 C                                 1.3891439
    23   6 C    100   6 C                                 1.3898150
    99   6 C    100   6 C                                 1.3813587
    60   6 C    101   8 O                                 1.2143473
    62   6 C    102   8 O                                 1.2136343
    48   6 C    103   8 O                                 1.2090339
    52   6 C    104   8 O                                 1.2093042
    74   6 C    105   8 O                                 1.2136403
    76   6 C    106   8 O                                 1.2138151
   107   6 C    109   6 C                                 1.5299084
   108   6 C    110   6 C                                 1.5300971
   111   6 C    112   6 C                                 1.5299849
   113   6 C    114   6 C                                 1.5300835
     3   6 C    115   1 H                                 1.0787929
     6   6 C    116   1 H                                 1.0789251
    12   6 C    117   1 H                                 1.0742837 (min)
    18   6 C    118   1 H                                 1.0744293
    28   6 C    119   1 H                                 1.0804398
    29   6 C    120   1 H                                 1.0783192
    33   6 C    121   1 H                                 1.0808034
    34   6 C    122   1 H                                 1.0786201
    41   6 C    123   1 H                                 1.0860407
    43   6 C    124   1 H                                 1.0848275
    53   6 C    125   1 H                                 1.0783699
    54   6 C    126   1 H                                 1.0805382
    58   6 C    127   1 H                                 1.0802212
    59   6 C    128   1 H                                 1.0792865
    63   6 C    129   1 H                                 1.0925130
    63   6 C    130   1 H                                 1.0911532
    64   6 C    131   1 H                                 1.0948138
    65   6 C    132   1 H                                 1.0877722
    65   6 C    133   1 H                                 1.0886878
    65   6 C    134   1 H                                 1.0876691
    66   6 C    135   1 H                                 1.0879595
    66   6 C    136   1 H                                 1.0872352
    66   6 C    137   1 H                                 1.0873456
    67   6 C    138   1 H                                 1.0792808
    68   6 C    139   1 H                                 1.0802921
    72   6 C    140   1 H                                 1.0803667
    73   6 C    141   1 H                                 1.0796130
    77   6 C    142   1 H                                 1.0927684
    77   6 C    143   1 H                                 1.0912525
    78   6 C    144   1 H                                 1.0946799
    79   6 C    145   1 H                                 1.0877774
    79   6 C    146   1 H                                 1.0885640
    79   6 C    147   1 H                                 1.0876501
    80   6 C    148   1 H                                 1.0879763
    80   6 C    149   1 H                                 1.0871340
    80   6 C    150   1 H                                 1.0873494
    81   6 C    151   1 H                                 1.0800925
    82   6 C    152   1 H                                 1.0807915
    84   6 C    153   1 H                                 1.0808974
    85   6 C    154   1 H                                 1.0806885
    86   6 C    155   1 H                                 1.0804467
    87   6 C    156   1 H                                 1.0808226
    89   6 C    157   1 H                                 1.0809541
    90   6 C    158   1 H                                 1.0804088
    91   6 C    159   1 H                                 1.0802908
    92   6 C    160   1 H                                 1.0809001
    94   6 C    161   1 H                                 1.0808559
    95   6 C    162   1 H                                 1.0804942
    96   6 C    163   1 H                                 1.0801554
    97   6 C    164   1 H                                 1.0808445
    99   6 C    165   1 H                                 1.0809305
   100   6 C    166   1 H                                 1.0806643
   107   6 C    167   1 H                                 1.0917589
   107   6 C    168   1 H                                 1.0920826
   108   6 C    169   1 H                                 1.0919265
   108   6 C    170   1 H                                 1.0918011
   109   6 C    171   1 H                                 1.0876672
   109   6 C    172   1 H                                 1.0875010
   109   6 C    173   1 H                                 1.0876945
   110   6 C    174   1 H                                 1.0876990
   110   6 C    175   1 H                                 1.0874624
   110   6 C    176   1 H                                 1.0877913
   111   6 C    177   1 H                                 1.0919523
   111   6 C    178   1 H                                 1.0919187
   112   6 C    179   1 H                                 1.0877193
   112   6 C    180   1 H                                 1.0875588
   112   6 C    181   1 H                                 1.0877100
   113   6 C    182   1 H                                 1.0918609
   113   6 C    183   1 H                                 1.0919587
   114   6 C    184   1 H                                 1.0877743
   114   6 C    185   1 H                                 1.0875014
   114   6 C    186   1 H                                 1.0876845

 * 6 distinct bonds (by element types)

   Z      Z             #   av. dist./Å        max./Å        min./Å
   1 H    6 C          72     1.0850141     1.0948138     1.0742837
   6 C    6 C          86     1.4102726     1.5344011     1.3512829
   6 C    7 N          10     1.3812661     1.4592356     1.3301471
   6 C    8 O           6     1.2122959     1.2143473     1.2090339
   6 C   16 S           4     1.7325860     1.7508264     1.7144372
   7 N   16 S           4     1.6065013     1.6082447     1.6037746


optimized geometry written to: xtbopt.xyz


           -------------------------------------------------
          | TOTAL ENERGY             -301.695851886846 Eh   |
          | GRADIENT NORM               0.000436781092 Eh/α |
          | HOMO-LUMO GAP               1.000926743219 eV   |
           -------------------------------------------------

------------------------------------------------------------------------
 * finished run on 2021/03/22 at 17:02:09.255     
------------------------------------------------------------------------
 total:
 * wall-time:     0 d,  0 h,  3 min, 32.706 sec
 *  cpu-time:     0 d,  0 h,  3 min, 32.700 sec
 * ratio c/w:     1.000 speedup
 SCF:
 * wall-time:     0 d,  0 h,  0 min,  2.666 sec
 *  cpu-time:     0 d,  0 h,  0 min,  2.666 sec
 * ratio c/w:     1.000 speedup
 ANC optimizer:
 * wall-time:     0 d,  0 h,  3 min, 29.506 sec
 *  cpu-time:     0 d,  0 h,  3 min, 29.501 sec
 * ratio c/w:     1.000 speedup

