      -----------------------------------------------------------      
     |                   =====================                   |     
     |                           x T B                           |     
     |                   =====================                   |     
     |                         S. Grimme                         |     
     |          Mulliken Center for Theoretical Chemistry        |     
     |                    University of Bonn                     |     
     |                Version 6.2 RC2 (SAW190805)                |     
      -----------------------------------------------------------      

   This program is distributed in the hope that it will be useful,
   but WITHOUT ANY WARRANTY; without even the implied warranty of
   MERCHANTABILITY or FITNESS FOR A PARTICULAR PURPOSE.
   
   FOR NON-COMMERCIAL, ACADEMIA USE ONLY.
   
   Cite this work as:
   * S. Grimme, C. Bannwarth, P. Shushkov, J. Chem. Theory Comput., 2017,
     13, 1989-2009. DOI: 10.1021/acs.jctc.7b00118
   * C. Bannwarth, S. Ehlert and S. Grimme., J. Chem. Theory Comput., 2019,
     15, 1652-1671. DOI: 10.1021/acs.jctc.8b01176
   * P. Pracht, E. Caldeweyher, S. Ehlert, S. Grimme, ChemRxiv, 2019, preprint.
     DOI: 10.26434/chemrxiv.8326202.v1
   
   for DFT-D4:
   * E. Caldeweyher, C. Bannwarth and S. Grimme, J. Chem. Phys., 2017,
     147, 034112. DOI: 10.1063/1.4993215
   * E. Caldeweyher, S. Ehlert, A. Hansen, H. Neugebauer, S. Spicher,
     C. Bannwarth and S. Grimme, J. Chem. Phys., 2019, 150, 154122.
     DOI: 10.1063/1.5090222
   
   for sTDA-xTB:
   * S. Grimme and C. Bannwarth, J. Chem. Phys., 2016, 145, 054103.
     DOI: 10.1063/1.4959605
   
   in the mass-spec context:
   * V. Asgeirsson, C. Bauer and S. Grimme, Chem. Sci., 2017, 8, 4879.
     DOI: 10.1039/c7sc00601b
   
   for metadynamics refer to:
   * S. Grimme, J. Chem. Theory Comput., 2019, 155, 2847-2862
     DOI: 10.1021/acs.jctc.9b00143
   
   with help from (in alphabetical order)
   C. Bannwarth, F. Bohle, G. Brandenburg, E. Caldeweyher, M. Checinski,
   S. Dohm, S. Ehlert, S. Ehrlich, F. März, H. Neugebauer, J. Pisarek,
   P. Pracht, P. Shushkov, and S. Spicher.
   
 * started run on 2021/03/22 at 17:05:05.770     

           -------------------------------------------------
          |                Calculation Setup                |
           -------------------------------------------------

          program call               : /ihome/ghutchison/geoffh/xtb/xtb Y16.xyz -opt
          hostname                   : smp-n104
          coordinate file            : Y16.xyz
          omp threads                :                     1
          number of atoms            :                   104
          number of electrons        :                   332
          charge                     :                     0
          spin                       :                   0.0
          first test random number   :      0.46199535591044


########################################################################
# WARNING! Please study the warnings concerning your input carefully
#  - the use of '-opt' is discouraged, please use '--opt' next time
########################################################################

           ------------------------------------------------- 
          |                 G F N 2 - x T B                 |
          | Geometry, Frequencies, Noncovalent interactions |
          |            JCTC 2019 parametrisation            |
           ------------------------------------------------- 
             KAB for C  - Si     :                1.0500
             KAB for H  - Pd     :                0.9500
             k(s)              :                1.8500
             k(p)              :                2.2300
             k(d)              :                2.2300
             k(f)              :                2.0000
             kEN (H0ij)        :               -2.0000
             D4 a1             :                0.5200
             D4 a2             :                5.0000
             D4 s6             :                1.0000
             D4 s8             :                2.7000
             D4 s9             :                5.0000
             alphaj            :                2.0000

  Z AO/shell   Hii/eV     exponent
  1     Wed Apr 25 08:07:45 CEST 2018   EN: 2.200 GM2: 0.406  GM3: 0.0800  RAES: 1.40
     1s    -10.707211    1.230000
  6     Wed Apr 25 08:07:45 CEST 2018   EN: 2.550 GM2: 0.538  GM3: 0.1500  RAES: 3.00
     2s    -13.970922    2.096432
     2p    -10.063292    1.800000
  7     Wed Apr 25 08:07:45 CEST 2018   EN: 3.040 GM2: 0.461  GM3:-0.0640  RAES: 1.90
     2s    -16.686243    2.339881
     2p    -12.523956    2.014332
  8     Wed Apr 25 08:07:45 CEST 2018   EN: 3.440 GM2: 0.452  GM3:-0.0517  RAES: 1.80
     2s    -20.229985    2.439742
     2p    -15.503117    2.137023
 16     Tue Apr 24 11:44:34 CEST 2018   EN: 2.580 GM2: 0.340  GM3:-0.0502  RAES: 3.10
     3s    -20.029654    1.981333
     3p    -11.377694    2.025643
     3d     -0.420282    1.702555

           ------------------------------------------------- 
          |        Self-Consistent Charge Iterations        |
           ------------------------------------------------- 

          ...................................................
          :                      SETUP                      :
          :.................................................:
          :  # basis functions                 335          :
          :  # atomic orbitals                 331          :
          :  # shells                          177          :
          :  # electrons                       332          :
          :  max. iterations                   250          :
          :  Hamiltonian                  GFN2-xTB          :
          :  restarted?                      false          :
          :  GBSA solvation                  false          :
          :  PC potential                    false          :
          :  electronic temp.          300.0000000     K    :
          :  accuracy                    1.0000000          :
          :  -> integral cutoff          0.2500000E+02      :
          :  -> integral neglect         0.1000000E-07      :
          :  -> SCF convergence          0.1000000E-05 Eh   :
          :  -> wf. convergence          0.1000000E-03 e    :
          :  Broyden damping             0.4000000          :
          ...................................................

 iter      E             dE          RMSdq      gap      omega  full diag
   1   -182.0968976 -0.182097E+03  0.534E+00    0.19       0.0  T
   2   -181.1752440  0.921654E+00  0.422E+00    0.37       1.0  T
   3   -176.2072086  0.496804E+01  0.446E+00    0.19       1.0  T
   4   -174.4433410  0.176387E+01  0.460E+00    0.38       1.0  T
   5   -181.9171932 -0.747385E+01  0.190E+00    0.24       1.0  T
   6   -182.2228390 -0.305646E+00  0.138E+00    0.10       1.0  T
   7   -182.3860034 -0.163164E+00  0.117E+00    0.20       1.0  T
   8   -182.5432369 -0.157234E+00  0.698E-01    0.22       1.0  T
   9   -182.3983919  0.144845E+00  0.108E+00    0.12       1.0  T
  10   -182.5582754 -0.159883E+00  0.455E-01    0.12       1.0  T
  11   -182.5513702  0.690517E-02  0.465E-01    0.08       1.0  T
  12   -182.5636926 -0.123224E-01  0.277E-01    0.12       1.0  T
  13   -182.5728057 -0.911311E-02  0.157E-01    0.08       1.0  T
  14   -182.5696096  0.319610E-02  0.189E-01    0.13       1.0  T
  15   -182.5755480 -0.593843E-02  0.527E-02    0.10       1.0  T
  16   -182.5754651  0.828874E-04  0.477E-02    0.11       1.0  T
  17   -182.5755998 -0.134688E-03  0.311E-02    0.11       1.0  T
  18   -182.5757055 -0.105719E-03  0.200E-02    0.11       1.0  T
  19   -182.5757671 -0.615642E-04  0.904E-03    0.11       1.1  T
  20   -182.5757819 -0.148555E-04  0.346E-03    0.11       2.8  T
  21   -182.5757816  0.314524E-06  0.340E-03    0.11       2.9  T
  22   -182.5757832 -0.159428E-05  0.167E-03    0.11       5.9  T
  23   -182.5757835 -0.290594E-06  0.925E-04    0.11      10.6  T
  24   -182.5757836 -0.484390E-07  0.638E-04    0.11      15.4  T

   *** convergence criteria satisfied after 24 iterations ***

         #    Occupation            Energy/Eh            Energy/eV
      -------------------------------------------------------------
         1        2.0000           -0.7491550             -20.3855
       ...           ...                  ...                  ...
       160        2.0000           -0.3858359             -10.4991
       161        2.0000           -0.3841779             -10.4540
       162        2.0000           -0.3777218             -10.2783
       163        2.0000           -0.3716643             -10.1135
       164        2.0000           -0.3668230              -9.9818
       165        2.0000           -0.3507829              -9.5453
       166        1.7821           -0.3409724              -9.2783 (HOMO)
       167        0.2072           -0.3369256              -9.1682 (LUMO)
       168        0.0105           -0.3339968              -9.0885
       169        0.0001           -0.3299505              -8.9784
       170                         -0.3177144              -8.6454
       171                         -0.3074797              -8.3669
       ...                                ...                  ...
       331                          1.0741626              29.2295
      -------------------------------------------------------------
                  HL-Gap            0.0040468 Eh            0.1101 eV
             Fermi-level           -0.3389757 Eh           -9.2240 eV

 SCC (total)                   0 d,  0 h,  0 min,  0.881 sec
 SCC setup                      ...        0 min,  0.003 sec (  0.297%)
 Dispersion                     ...        0 min,  0.007 sec (  0.776%)
 integral evaluation            ...        0 min,  0.200 sec ( 22.756%)
 zeroth order Hamiltonian       ...        0 min,  0.001 sec (  0.165%)
 iterations                     ...        0 min,  0.478 sec ( 54.229%)
 molecular gradient             ...        0 min,  0.189 sec ( 21.478%)
 printout                       ...        0 min,  0.003 sec (  0.291%)

         :::::::::::::::::::::::::::::::::::::::::::::::::::::
         ::                     SUMMARY                     ::
         :::::::::::::::::::::::::::::::::::::::::::::::::::::
         :: total energy            -180.040954498897 Eh    ::
         :: gradient norm              0.490490296311 Eh/a0 ::
         :: HOMO-LUMO gap              0.110119447756 eV    ::
         ::.................................................::
         :: SCC energy              -182.575783565572 Eh    ::
         :: -> isotropic ES            0.110654716083 Eh    ::
         :: -> anisotropic ES          0.012105045884 Eh    ::
         :: -> anisotropic XC          0.144149686230 Eh    ::
         :: -> dispersion             -0.167401560300 Eh    ::
         :: repulsion energy           2.532988809977 Eh    ::
         :: add. restraining           0.000000000000 Eh    ::
         :::::::::::::::::::::::::::::::::::::::::::::::::::::

      ----------------------------------------------------------- 
     |                   =====================                   |
     |                        A N C O P T                        |
     |                   =====================                   |
     |               Approximate Normal Coordinate               |
     |                Rational Function Optimizer                |
      ----------------------------------------------------------- 

          ...................................................
          :                      SETUP                      :
          :.................................................:
          :   optimization level            normal          :
          :   max. optcycles                   312          :
          :   ANC micro-cycles                  20          :
          :   degrees of freedom               306          :
          :.................................................:
          :   RF solver                   davidson          :
          :   input Hessian                  false          :
          :   write xtbopt.log                true          :
          :   linear?                        false          :
          :   energy convergence         0.5000000E-05 Eh   :
          :   grad. convergence          0.1000000E-02 Eh/α :
          :   maximium RF displ.         2.0000000          :
          :   Hlow (freq-cutoff)         0.5000000E-02      :
          :   Hmax (freq-cutoff)         5.0000000          :
          :   S6 in model hess.         20.0000000          :
          ...................................................

generating ANC from model Hessian ...
Using Lindh-Hessian (1995)
 Shifting diagonal of input Hessian by   5.541961530283886E-003
 Lowest  eigenvalues of input Hessian
    0.005000    0.005441   -0.000000   -0.000000   -0.000000    0.000000
    0.000000    0.000000    0.005557    0.005590    0.005617    0.005654
    0.005700    0.005757    0.005876    0.005989    0.006177    0.006198
 Highest eigenvalues
    2.023723    2.064221    2.172744    2.229828    2.245201    2.534973
 

........................................................................
.............................. CYCLE    1 ..............................
........................................................................
   1   -182.5757836 -0.182576E+03  0.194E-04    0.11       0.0  T
   2   -182.5757832  0.435036E-06  0.131E-03    0.11       7.5  T
   3   -182.5757836 -0.401686E-06  0.414E-04    0.11      23.7  T
   4   -182.5757836 -0.347420E-07  0.173E-04    0.11      56.7  T
     SCC iter.                  ...        0 min,  0.081 sec
     gradient                   ...        0 min,  0.190 sec
 * total energy  :  -180.0409546 Eh     change       -0.1087775E-06 Eh
   gradient norm :     0.4904917 Eh/α   predicted     0.0000000E+00 (-100.00%)
   displ. norm   :     0.5634531 α      lambda       -0.2082861E+00
   maximum displ.:     0.1152275 α      in ANC's #194, #173, #171, ...

........................................................................
.............................. CYCLE    2 ..............................
........................................................................
   1   -182.8239034 -0.182824E+03  0.744E-01    0.19       0.0  T
   2   -182.1567739  0.667130E+00  0.175E+00    0.45       1.0  T
   3   -182.6666375 -0.509864E+00  0.109E+00    0.07       1.0  T
   4   -182.8524557 -0.185818E+00  0.341E-01    0.22       1.0  T
   5   -182.8172191  0.352365E-01  0.520E-01    0.12       1.0  T
   6   -182.8501645 -0.329454E-01  0.273E-01    0.23       1.0  T
   7   -182.8597166 -0.955201E-02  0.133E-01    0.20       1.0  T
   8   -182.8596841  0.324950E-04  0.100E-01    0.20       1.0  T
   9   -182.8610888 -0.140468E-02  0.461E-02    0.19       1.0  T
  10   -182.8613653 -0.276502E-03  0.152E-02    0.19       1.0  T
  11   -182.8613856 -0.203609E-04  0.855E-03    0.19       1.1  T
  12   -182.8613882 -0.258745E-05  0.691E-03    0.19       1.4  T
  13   -182.8613936 -0.539633E-05  0.347E-03    0.19       2.8  T
  14   -182.8613946 -0.964093E-06  0.166E-03    0.19       5.9  T
     SCC iter.                  ...        0 min,  0.274 sec
     gradient                   ...        0 min,  0.177 sec
 * total energy  :  -180.1946793 Eh     change       -0.1537247E+00 Eh
   gradient norm :     0.1877495 Eh/α   predicted    -0.1372090E+00 ( -10.74%)
   displ. norm   :     0.6654233 α      lambda       -0.9727930E-01
   maximum displ.:     0.1486675 α      in ANC's #97, #80, #98, ...

........................................................................
.............................. CYCLE    3 ..............................
........................................................................
   1   -183.0027752 -0.183003E+03  0.744E-01    0.27       0.0  T
   2   -182.4506978  0.552077E+00  0.165E+00    0.48       1.0  T
   3   -182.9163200 -0.465622E+00  0.844E-01    0.21       1.0  T
   4   -182.9620699 -0.457499E-01  0.690E-01    0.27       1.0  T
   5   -183.0016665 -0.395966E-01  0.459E-01    0.34       1.0  T
   6   -183.0166262 -0.149597E-01  0.279E-01    0.31       1.0  T
   7   -183.0220959 -0.546978E-02  0.207E-01    0.29       1.0  T
   8   -183.0245238 -0.242784E-02  0.153E-01    0.27       1.0  T
   9   -183.0262893 -0.176550E-02  0.502E-02    0.24       1.0  T
  10   -183.0265184 -0.229134E-03  0.193E-02    0.23       1.0  T
  11   -183.0265284 -0.996234E-05  0.132E-02    0.23       1.0  T
  12   -183.0265468 -0.184180E-04  0.519E-03    0.23       1.9  T
  13   -183.0265478 -0.987114E-06  0.417E-03    0.23       2.4  T
  14   -183.0265486 -0.787622E-06  0.285E-03    0.23       3.4  T
     SCC iter.                  ...        0 min,  0.274 sec
     gradient                   ...        0 min,  0.176 sec
 * total energy  :  -180.2668970 Eh     change       -0.7221769E-01 Eh
   gradient norm :     0.1541469 Eh/α   predicted    -0.7017685E-01 (  -2.83%)
   displ. norm   :     0.6876153 α      lambda       -0.5794356E-01
   maximum displ.:     0.1756644 α      in ANC's #80, #50, #97, ...

........................................................................
.............................. CYCLE    4 ..............................
........................................................................
   1   -183.0662628 -0.183066E+03  0.638E-01    0.26       0.0  T
   2   -182.8099021  0.256361E+00  0.123E+00    0.22       1.0  T
   3   -183.0111589 -0.201257E+00  0.657E-01    0.40       1.0  T
   4   -183.0374759 -0.263170E-01  0.516E-01    0.31       1.0  T
   5   -183.0491506 -0.116747E-01  0.413E-01    0.39       1.0  T
   6   -183.0621295 -0.129788E-01  0.247E-01    0.31       1.0  T
   7   -183.0683762 -0.624673E-02  0.185E-01    0.30       1.0  T
   8   -183.0707843 -0.240809E-02  0.134E-01    0.28       1.0  T
   9   -183.0729370 -0.215269E-02  0.414E-02    0.24       1.0  T
  10   -183.0731239 -0.186952E-03  0.192E-02    0.23       1.0  T
  11   -183.0731550 -0.311400E-04  0.982E-03    0.24       1.0  T
  12   -183.0731624 -0.740029E-05  0.434E-03    0.24       2.3  T
  13   -183.0731605  0.197293E-05  0.479E-03    0.24       2.0  T
  14   -183.0731642 -0.368843E-05  0.117E-03    0.24       8.4  T
     SCC iter.                  ...        0 min,  0.275 sec
     gradient                   ...        0 min,  0.176 sec
 * total energy  :  -180.3095738 Eh     change       -0.4267676E-01 Eh
   gradient norm :     0.0794692 Eh/α   predicted    -0.4267007E-01 (  -0.02%)
   displ. norm   :     0.7140990 α      lambda       -0.3310750E-01
   maximum displ.:     0.2388314 α      in ANC's #44, #50, #39, ...

........................................................................
.............................. CYCLE    5 ..............................
........................................................................
   1   -183.1288833 -0.183129E+03  0.546E-01    0.23       0.0  T
   2   -183.0559693  0.729140E-01  0.723E-01    0.14       1.0  T
   3   -183.0627952 -0.682584E-02  0.707E-01    0.47       1.0  T
   4   -183.1156058 -0.528107E-01  0.336E-01    0.31       1.0  T
   5   -183.1200572 -0.445136E-02  0.294E-01    0.32       1.0  T
   6   -183.1261582 -0.610094E-02  0.188E-01    0.25       1.0  T
   7   -183.1293060 -0.314780E-02  0.125E-01    0.25       1.0  T
   8   -183.1309822 -0.167629E-02  0.513E-02    0.22       1.0  T
   9   -183.1311410 -0.158780E-03  0.215E-02    0.22       1.0  T
  10   -183.1311738 -0.327666E-04  0.118E-02    0.21       1.0  T
  11   -183.1311853 -0.114676E-04  0.576E-03    0.21       1.7  T
  12   -183.1311839  0.134897E-05  0.513E-03    0.22       1.9  T
  13   -183.1311877 -0.381887E-05  0.135E-03    0.22       7.3  T
     SCC iter.                  ...        0 min,  0.257 sec
     gradient                   ...        0 min,  0.178 sec
 * total energy  :  -180.3361117 Eh     change       -0.2653790E-01 Eh
   gradient norm :     0.0671804 Eh/α   predicted    -0.2499513E-01 (  -5.81%)
   displ. norm   :     0.7771829 α      lambda       -0.2717130E-01
   maximum displ.:     0.2369662 α      in ANC's #50, #44, #43, ...

........................................................................
.............................. CYCLE    6 ..............................
........................................................................
   1   -183.1588823 -0.183159E+03  0.594E-01    0.21       0.0  T
   2   -183.0548285  0.104054E+00  0.878E-01    0.15       1.0  T
   3   -183.1024384 -0.476099E-01  0.680E-01    0.45       1.0  T
   4   -183.1411886 -0.387502E-01  0.399E-01    0.24       1.0  T
   5   -183.1487703 -0.758169E-02  0.336E-01    0.33       1.0  T
   6   -183.1575766 -0.880629E-02  0.205E-01    0.25       1.0  T
   7   -183.1605990 -0.302237E-02  0.136E-01    0.24       1.0  T
   8   -183.1624810 -0.188201E-02  0.507E-02    0.21       1.0  T
   9   -183.1625993 -0.118325E-03  0.187E-02    0.20       1.0  T
  10   -183.1626171 -0.177529E-04  0.101E-02    0.19       1.0  T
  11   -183.1626158  0.125899E-05  0.100E-02    0.20       1.0  T
  12   -183.1626257 -0.984070E-05  0.352E-03    0.20       2.8  T
  13   -183.1626271 -0.141687E-05  0.160E-03    0.20       6.1  T
  14   -183.1626272 -0.174803E-06  0.822E-04    0.20      11.9  T
     SCC iter.                  ...        0 min,  0.276 sec
     gradient                   ...        0 min,  0.177 sec
 * total energy  :  -180.3545345 Eh     change       -0.1842284E-01 Eh
   gradient norm :     0.0756276 Eh/α   predicted    -0.2179158E-01 (  18.29%)
   displ. norm   :     0.7639742 α      lambda       -0.2436307E-01
   maximum displ.:     0.3065662 α      in ANC's #44, #39, #50, ...

........................................................................
.............................. CYCLE    7 ..............................
........................................................................
   1   -183.2047477 -0.183205E+03  0.593E-01    0.19       0.0  T
   2   -183.1100290  0.947186E-01  0.861E-01    0.13       1.0  T
   3   -183.1565888 -0.465597E-01  0.645E-01    0.40       1.0  T
   4   -183.1840276 -0.274388E-01  0.419E-01    0.19       1.0  T
   5   -183.1963267 -0.122991E-01  0.328E-01    0.31       1.0  T
   6   -183.2043390 -0.801227E-02  0.202E-01    0.22       1.0  T
   7   -183.2067071 -0.236810E-02  0.142E-01    0.22       1.0  T
   8   -183.2085159 -0.180881E-02  0.628E-02    0.18       1.0  T
   9   -183.2087133 -0.197473E-03  0.293E-02    0.18       1.0  T
  10   -183.2087866 -0.732738E-04  0.936E-03    0.17       1.0  T
  11   -183.2087887 -0.211803E-05  0.814E-03    0.17       1.2  T
  12   -183.2087942 -0.545742E-05  0.280E-03    0.17       3.5  T
  13   -183.2087949 -0.695640E-06  0.134E-03    0.17       7.3  T
     SCC iter.                  ...        0 min,  0.255 sec
     gradient                   ...        0 min,  0.176 sec
 * total energy  :  -180.3674855 Eh     change       -0.1295103E-01 Eh
   gradient norm :     0.0554255 Eh/α   predicted    -0.1929137E-01 (  48.96%)
   displ. norm   :     0.6492537 α      lambda       -0.1195556E-01
   maximum displ.:     0.2083110 α      in ANC's #44, #17, #16, ...

........................................................................
.............................. CYCLE    8 ..............................
........................................................................
   1   -183.2217858 -0.183222E+03  0.297E-01    0.21       0.0  T
   2   -183.1870425  0.347433E-01  0.527E-01    0.13       1.0  T
   3   -183.2108669 -0.238243E-01  0.324E-01    0.30       1.0  T
   4   -183.2199548 -0.908795E-02  0.158E-01    0.19       1.0  T
   5   -183.2203781 -0.423247E-03  0.146E-01    0.25       1.0  T
   6   -183.2228183 -0.244024E-02  0.640E-02    0.21       1.0  T
   7   -183.2231159 -0.297588E-03  0.402E-02    0.20       1.0  T
   8   -183.2232603 -0.144400E-03  0.129E-02    0.19       1.0  T
   9   -183.2232720 -0.116956E-04  0.474E-03    0.19       2.1  T
  10   -183.2232719  0.127588E-06  0.423E-03    0.19       2.3  T
  11   -183.2232732 -0.137545E-05  0.189E-03    0.19       5.2  T
     SCC iter.                  ...        0 min,  0.217 sec
     gradient                   ...        0 min,  0.176 sec
 * total energy  :  -180.3775602 Eh     change       -0.1007465E-01 Eh
   gradient norm :     0.0415038 Eh/α   predicted    -0.8497594E-02 ( -15.65%)
   displ. norm   :     0.7978209 α      lambda       -0.1306131E-01
   maximum displ.:     0.2574876 α      in ANC's #17, #16, #23, ...

........................................................................
.............................. CYCLE    9 ..............................
........................................................................
   1   -183.2138127 -0.183214E+03  0.413E-01    0.27       0.0  T
   2   -183.1965108  0.173019E-01  0.406E-01    0.15       1.0  T
   3   -183.1866048  0.990599E-02  0.465E-01    0.48       1.0  T
   4   -183.2136058 -0.270010E-01  0.153E-01    0.27       1.0  T
   5   -183.2148347 -0.122883E-02  0.813E-02    0.26       1.0  T
   6   -183.2149153 -0.806695E-04  0.716E-02    0.27       1.0  T
   7   -183.2155987 -0.683396E-03  0.245E-02    0.24       1.0  T
   8   -183.2156222 -0.234704E-04  0.138E-02    0.25       1.0  T
   9   -183.2156399 -0.176900E-04  0.531E-03    0.24       1.8  T
  10   -183.2156410 -0.115445E-05  0.416E-03    0.24       2.4  T
  11   -183.2156423 -0.128583E-05  0.124E-03    0.24       7.9  T
     SCC iter.                  ...        0 min,  0.216 sec
     gradient                   ...        0 min,  0.176 sec
 * total energy  :  -180.3852761 Eh     change       -0.7715945E-02 Eh
   gradient norm :     0.0711809 Eh/α   predicted    -0.1068754E-01 (  38.51%)
   displ. norm   :     0.6865212 α      lambda       -0.1296687E-01
   maximum displ.:     0.1980613 α      in ANC's #16, #4, #11, ...

........................................................................
.............................. CYCLE   10 ..............................
........................................................................
   1   -183.2291150 -0.183229E+03  0.389E-01    0.32       0.0  T
   2   -183.2168202  0.122948E-01  0.347E-01    0.18       1.0  T
   3   -183.2086391  0.818112E-02  0.392E-01    0.53       1.0  T
   4   -183.2258111 -0.171720E-01  0.214E-01    0.28       1.0  T
   5   -183.2296246 -0.381349E-02  0.991E-02    0.31       1.0  T
   6   -183.2300747 -0.450148E-03  0.722E-02    0.31       1.0  T
   7   -183.2306625 -0.587776E-03  0.328E-02    0.28       1.0  T
   8   -183.2307413 -0.787880E-04  0.151E-02    0.28       1.0  T
   9   -183.2307570 -0.156730E-04  0.706E-03    0.28       1.4  T
  10   -183.2307607 -0.377740E-05  0.387E-03    0.28       2.5  T
  11   -183.2307617 -0.978271E-06  0.154E-03    0.28       6.4  T
     SCC iter.                  ...        0 min,  0.216 sec
     gradient                   ...        0 min,  0.176 sec
 * total energy  :  -180.3919276 Eh     change       -0.6651425E-02 Eh
   gradient norm :     0.0595441 Eh/α   predicted    -0.9539156E-02 (  43.42%)
   displ. norm   :     0.6186929 α      lambda       -0.1065180E-01
   maximum displ.:     0.1770921 α      in ANC's #16, #17, #4, ...

........................................................................
.............................. CYCLE   11 ..............................
........................................................................
   1   -183.2667214 -0.183267E+03  0.342E-01    0.32       0.0  T
   2   -183.2617230  0.499845E-02  0.253E-01    0.20       1.0  T
   3   -183.2493852  0.123377E-01  0.359E-01    0.52       1.0  T
   4   -183.2664469 -0.170616E-01  0.121E-01    0.30       1.0  T
   5   -183.2677161 -0.126926E-02  0.460E-02    0.30       1.0  T
   6   -183.2676996  0.165316E-04  0.416E-02    0.30       1.0  T
   7   -183.2679188 -0.219215E-03  0.133E-02    0.28       1.0  T
   8   -183.2679383 -0.195300E-04  0.574E-03    0.28       1.7  T
   9   -183.2679397 -0.135002E-05  0.374E-03    0.28       2.6  T
  10   -183.2679408 -0.108583E-05  0.204E-03    0.28       4.8  T
     SCC iter.                  ...        0 min,  0.199 sec
     gradient                   ...        0 min,  0.177 sec
 * total energy  :  -180.3966961 Eh     change       -0.4768578E-02 Eh
   gradient norm :     0.0766619 Eh/α   predicted    -0.7364562E-02 (  54.44%)
   displ. norm   :     0.6525332 α      lambda       -0.9614984E-02
   maximum displ.:     0.2356604 α      in ANC's #16, #20, #17, ...

........................................................................
.............................. CYCLE   12 ..............................
........................................................................
   1   -183.2492832 -0.183249E+03  0.266E-01    0.33       0.0  T
   2   -183.2452472  0.403598E-02  0.214E-01    0.24       1.0  T
   3   -183.2372569  0.799027E-02  0.277E-01    0.51       1.0  T
   4   -183.2486396 -0.113827E-01  0.106E-01    0.34       1.0  T
   5   -183.2496021 -0.962428E-03  0.487E-02    0.33       1.0  T
   6   -183.2497331 -0.131029E-03  0.323E-02    0.33       1.0  T
   7   -183.2498747 -0.141636E-03  0.110E-02    0.31       1.0  T
   8   -183.2498821 -0.737828E-05  0.588E-03    0.31       1.7  T
   9   -183.2498848 -0.274259E-05  0.280E-03    0.31       3.5  T
  10   -183.2498854 -0.551581E-06  0.135E-03    0.31       7.2  T
     SCC iter.                  ...        0 min,  0.197 sec
     gradient                   ...        0 min,  0.176 sec
 * total energy  :  -180.4027859 Eh     change       -0.6089748E-02 Eh
   gradient norm :     0.0471374 Eh/α   predicted    -0.6854520E-02 (  12.56%)
   displ. norm   :     0.7110670 α      lambda       -0.1034848E-01
   maximum displ.:     0.2313448 α      in ANC's #20, #16, #4, ...

........................................................................
.............................. CYCLE   13 ..............................
........................................................................
   1   -183.2273106 -0.183227E+03  0.337E-01    0.38       0.0  T
   2   -183.2209121  0.639852E-02  0.275E-01    0.26       1.0  T
   3   -183.2126595  0.825263E-02  0.307E-01    0.60       1.0  T
   4   -183.2265307 -0.138712E-01  0.150E-01    0.36       1.0  T
   5   -183.2277837 -0.125297E-02  0.878E-02    0.38       1.0  T
   6   -183.2286108 -0.827147E-03  0.384E-02    0.37       1.0  T
   7   -183.2288404 -0.229573E-03  0.123E-02    0.35       1.0  T
   8   -183.2288459 -0.551161E-05  0.809E-03    0.35       1.2  T
   9   -183.2288507 -0.483574E-05  0.353E-03    0.35       2.8  T
  10   -183.2288516 -0.842730E-06  0.159E-03    0.35       6.2  T
     SCC iter.                  ...        0 min,  0.198 sec
     gradient                   ...        0 min,  0.176 sec
 * total energy  :  -180.4055500 Eh     change       -0.2764105E-02 Eh
   gradient norm :     0.1055431 Eh/α   predicted    -0.7790419E-02 ( 181.84%)
   displ. norm   :     0.5147194 α      lambda       -0.1076278E-01
   maximum displ.:     0.1779766 α      in ANC's #4, #16, #15, ...

........................................................................
.............................. CYCLE   14 ..............................
........................................................................
   1   -183.2679985 -0.183268E+03  0.224E-01    0.38       0.0  T
   2   -183.2653565  0.264198E-02  0.172E-01    0.27       1.0  T
   3   -183.2612422  0.411431E-02  0.214E-01    0.52       1.0  T
   4   -183.2675982 -0.635601E-02  0.948E-02    0.35       1.0  T
   5   -183.2683905 -0.792272E-03  0.415E-02    0.36       1.0  T
   6   -183.2685169 -0.126445E-03  0.242E-02    0.36       1.0  T
   7   -183.2685775 -0.605979E-04  0.973E-03    0.34       1.0  T
   8   -183.2685873 -0.983517E-05  0.447E-03    0.34       2.2  T
   9   -183.2685888 -0.147214E-05  0.244E-03    0.34       4.0  T
  10   -183.2685892 -0.359641E-06  0.128E-03    0.34       7.6  T
     SCC iter.                  ...        0 min,  0.198 sec
     gradient                   ...        0 min,  0.176 sec
 * total energy  :  -180.4128776 Eh     change       -0.7327563E-02 Eh
   gradient norm :     0.0465047 Eh/α   predicted    -0.6807112E-02 (  -7.10%)
   displ. norm   :     0.7361899 α      lambda       -0.8836150E-02
   maximum displ.:     0.2699855 α      in ANC's #16, #20, #4, ...

........................................................................
.............................. CYCLE   15 ..............................
........................................................................
   1   -183.2607475 -0.183261E+03  0.344E-01    0.39       0.0  T
   2   -183.2581664  0.258113E-02  0.216E-01    0.27       1.0  T
   3   -183.2485994  0.956702E-02  0.278E-01    0.63       1.0  T
   4   -183.2606052 -0.120058E-01  0.108E-01    0.36       1.0  T
   5   -183.2615424 -0.937205E-03  0.514E-02    0.38       1.0  T
   6   -183.2617680 -0.225559E-03  0.252E-02    0.36       1.0  T
   7   -183.2617437  0.242446E-04  0.195E-02    0.34       1.0  T
   8   -183.2618095 -0.657109E-04  0.658E-03    0.36       1.5  T
   9   -183.2618120 -0.256062E-05  0.352E-03    0.35       2.8  T
  10   -183.2618130 -0.981542E-06  0.150E-03    0.35       6.5  T
     SCC iter.                  ...        0 min,  0.197 sec
     gradient                   ...        0 min,  0.177 sec
 * total energy  :  -180.4171894 Eh     change       -0.4311804E-02 Eh
   gradient norm :     0.0697129 Eh/α   predicted    -0.6812566E-02 (  58.00%)
   displ. norm   :     0.6896172 α      lambda       -0.8447672E-02
   maximum displ.:     0.2534764 α      in ANC's #4, #15, #17, ...

........................................................................
.............................. CYCLE   16 ..............................
........................................................................
   1   -183.2743654 -0.183274E+03  0.240E-01    0.41       0.0  T
   2   -183.2703664  0.399897E-02  0.197E-01    0.27       1.0  T
   3   -183.2675504  0.281600E-02  0.211E-01    0.57       1.0  T
   4   -183.2744273 -0.687686E-02  0.873E-02    0.38       1.0  T
   5   -183.2747932 -0.365902E-03  0.475E-02    0.38       1.0  T
   6   -183.2750033 -0.210104E-03  0.255E-02    0.38       1.0  T
   7   -183.2750793 -0.760337E-04  0.970E-03    0.36       1.0  T
   8   -183.2750855 -0.615928E-05  0.453E-03    0.36       2.2  T
   9   -183.2750872 -0.168478E-05  0.225E-03    0.36       4.4  T
  10   -183.2750874 -0.269307E-06  0.116E-03    0.36       8.5  T
     SCC iter.                  ...        0 min,  0.197 sec
     gradient                   ...        0 min,  0.176 sec
 * total energy  :  -180.4238599 Eh     change       -0.6670507E-02 Eh
   gradient norm :     0.0318734 Eh/α   predicted    -0.6232585E-02 (  -6.57%)
   displ. norm   :     0.7894535 α      lambda       -0.8360403E-02
   maximum displ.:     0.2830644 α      in ANC's #4, #16, #20, ...

........................................................................
.............................. CYCLE   17 ..............................
........................................................................
   1   -183.2880631 -0.183288E+03  0.320E-01    0.46       0.0  T
   2   -183.2806127  0.745046E-02  0.265E-01    0.25       1.0  T
   3   -183.2783185  0.229417E-02  0.261E-01    0.67       1.0  T
   4   -183.2887799 -0.104614E-01  0.110E-01    0.43       1.0  T
   5   -183.2890845 -0.304558E-03  0.652E-02    0.41       1.0  T
   6   -183.2895249 -0.440488E-03  0.337E-02    0.40       1.0  T
   7   -183.2896608 -0.135892E-03  0.127E-02    0.37       1.0  T
   8   -183.2896673 -0.646158E-05  0.543E-03    0.37       1.8  T
   9   -183.2896690 -0.171382E-05  0.311E-03    0.37       3.2  T
  10   -183.2896698 -0.746962E-06  0.131E-03    0.37       7.5  T
     SCC iter.                  ...        0 min,  0.197 sec
     gradient                   ...        0 min,  0.176 sec
 * total energy  :  -180.4288288 Eh     change       -0.4968930E-02 Eh
   gradient norm :     0.0487474 Eh/α   predicted    -0.6785458E-02 (  36.56%)
   displ. norm   :     0.7413126 α      lambda       -0.8731861E-02
   maximum displ.:     0.2621306 α      in ANC's #4, #15, #23, ...

........................................................................
.............................. CYCLE   18 ..............................
........................................................................
   1   -183.2961898 -0.183296E+03  0.297E-01    0.47       0.0  T
   2   -183.2920655  0.412430E-02  0.211E-01    0.27       1.0  T
   3   -183.2889211  0.314439E-02  0.222E-01    0.66       1.0  T
   4   -183.2967250 -0.780385E-02  0.912E-02    0.43       1.0  T
   5   -183.2971052 -0.380171E-03  0.466E-02    0.42       1.0  T
   6   -183.2973354 -0.230224E-03  0.242E-02    0.40       1.0  T
   7   -183.2973633 -0.279445E-04  0.131E-02    0.38       1.0  T
   8   -183.2973728 -0.948151E-05  0.508E-03    0.38       1.9  T
   9   -183.2973744 -0.156371E-05  0.289E-03    0.38       3.4  T
  10   -183.2973750 -0.586702E-06  0.162E-03    0.38       6.1  T
     SCC iter.                  ...        0 min,  0.197 sec
     gradient                   ...        0 min,  0.176 sec
 * total energy  :  -180.4360924 Eh     change       -0.7263656E-02 Eh
   gradient norm :     0.0479291 Eh/α   predicted    -0.6765214E-02 (  -6.86%)
   displ. norm   :     0.8142319 α      lambda       -0.8752760E-02
   maximum displ.:     0.2791195 α      in ANC's #4, #15, #3, ...

........................................................................
.............................. CYCLE   19 ..............................
........................................................................
   1   -183.2966841 -0.183297E+03  0.372E-01    0.58       0.0  T
   2   -183.2968617 -0.177650E-03  0.195E-01    0.39       1.0  T
   3   -183.2931724  0.368933E-02  0.190E-01    0.60       1.0  T
   4   -183.2979468 -0.477443E-02  0.492E-02    0.46       1.0  T
   5   -183.2980186 -0.717696E-04  0.247E-02    0.44       1.0  T
   6   -183.2980507 -0.321325E-04  0.167E-02    0.47       1.0  T
   7   -183.2980719 -0.211925E-04  0.781E-03    0.45       1.3  T
   8   -183.2980793 -0.741075E-05  0.270E-03    0.46       3.6  T
   9   -183.2980800 -0.645615E-06  0.135E-03    0.46       7.3  T
  10   -183.2980800 -0.395333E-07  0.615E-04    0.46      16.0  T
     SCC iter.                  ...        0 min,  0.197 sec
     gradient                   ...        0 min,  0.176 sec
 * total energy  :  -180.4438661 Eh     change       -0.7773663E-02 Eh
   gradient norm :     0.0321132 Eh/α   predicted    -0.7277857E-02 (  -6.38%)
   displ. norm   :     0.8339688 α      lambda       -0.9990884E-02
   maximum displ.:     0.2751414 α      in ANC's #4, #3, #5, ...

........................................................................
.............................. CYCLE   20 ..............................
........................................................................
   1   -183.3098766 -0.183310E+03  0.464E-01    0.75       0.0  T
   2   -183.3103489 -0.472359E-03  0.242E-01    0.67       1.0  T
   3   -183.3054036  0.494531E-02  0.237E-01    0.71       1.0  T
   4   -183.3114472 -0.604360E-02  0.681E-02    0.69       1.0  T
   5   -183.3117181 -0.270857E-03  0.287E-02    0.68       1.0  T
   6   -183.3117480 -0.298518E-04  0.144E-02    0.69       1.0  T
   7   -183.3117644 -0.164461E-04  0.756E-03    0.68       1.3  T
   8   -183.3117706 -0.622527E-05  0.174E-03    0.69       5.6  T
   9   -183.3117707 -0.626873E-07  0.114E-03    0.69       8.6  T
  10   -183.3117707 -0.456622E-07  0.555E-04    0.69      17.7  T
     SCC iter.                  ...        0 min,  0.197 sec
     gradient                   ...        0 min,  0.176 sec
 * total energy  :  -180.4528948 Eh     change       -0.9028674E-02 Eh
   gradient norm :     0.0575033 Eh/α   predicted    -0.8469847E-02 (  -6.19%)
   displ. norm   :     0.7688004 α      lambda       -0.1178737E-01
   maximum displ.:     0.2091975 α      in ANC's #20, #4, #5, ...
 * RMSD in coord.:     1.0495168 α      energy gain  -0.4119403E+00 Eh

generating ANC from model Hessian ...
Using Lindh-Hessian (1995)
 Shifting diagonal of input Hessian by   5.526072130663974E-003
 Lowest  eigenvalues of input Hessian
    0.005000   -0.000000   -0.000000   -0.000000   -0.000000    0.000000
    0.000000    0.005550    0.005583    0.005643    0.005673    0.005707
    0.005798    0.006034    0.006162    0.006382    0.006390    0.006498
 Highest eigenvalues
    2.272186    2.289938    2.538467    2.580366    2.617130    2.689875
 

........................................................................
.............................. CYCLE   21 ..............................
........................................................................
   1   -183.3281938 -0.183328E+03  0.515E-01    0.79       0.0  T
   2   -183.3289362 -0.742463E-03  0.266E-01    0.79       1.0  T
   3   -183.3240364  0.489980E-02  0.232E-01    0.81       1.0  T
   4   -183.3297885 -0.575207E-02  0.771E-02    0.81       1.0  T
   5   -183.3301343 -0.345769E-03  0.319E-02    0.81       1.0  T
   6   -183.3301619 -0.276741E-04  0.145E-02    0.81       1.0  T
   7   -183.3301784 -0.164899E-04  0.556E-03    0.81       1.8  T
   8   -183.3301804 -0.197287E-05  0.186E-03    0.81       5.3  T
   9   -183.3301805 -0.690171E-07  0.130E-03    0.81       7.6  T
  10   -183.3301806 -0.138175E-06  0.468E-04    0.81      21.0  T
  11   -183.3301806 -0.117984E-07  0.213E-04    0.81      46.1  T
     SCC iter.                  ...        0 min,  0.218 sec
     gradient                   ...        0 min,  0.190 sec
 * total energy  :  -180.4581384 Eh     change       -0.5243652E-02 Eh
   gradient norm :     0.0779380 Eh/α   predicted     0.0000000E+00 (-100.00%)
   displ. norm   :     0.4618333 α      lambda       -0.1012240E-01
   maximum displ.:     0.1510891 α      in ANC's #3, #4, #12, ...

........................................................................
.............................. CYCLE   22 ..............................
........................................................................
   1   -183.3307864 -0.183331E+03  0.179E-01    0.80       0.0  T
   2   -183.3307230  0.634088E-04  0.112E-01    0.79       1.0  T
   3   -183.3298222  0.900872E-03  0.107E-01    0.78       1.0  T
   4   -183.3310220 -0.119981E-02  0.223E-02    0.78       1.0  T
   5   -183.3310571 -0.351502E-04  0.882E-03    0.78       1.1  T
   6   -183.3310601 -0.292888E-05  0.492E-03    0.78       2.0  T
   7   -183.3310618 -0.173944E-05  0.189E-03    0.78       5.2  T
     SCC iter.                  ...        0 min,  0.139 sec
     gradient                   ...        0 min,  0.176 sec
 * total energy  :  -180.4649346 Eh     change       -0.6796201E-02 Eh
   gradient norm :     0.0319344 Eh/α   predicted    -0.6140711E-02 (  -9.64%)
   displ. norm   :     0.5921743 α      lambda       -0.7135747E-02
   maximum displ.:     0.1923488 α      in ANC's #12, #4, #3, ...

........................................................................
.............................. CYCLE   23 ..............................
........................................................................
   1   -183.3311144 -0.183331E+03  0.262E-01    0.78       0.0  T
   2   -183.3310514  0.630348E-04  0.157E-01    0.78       1.0  T
   3   -183.3289433  0.210811E-02  0.149E-01    0.76       1.0  T
   4   -183.3314603 -0.251700E-02  0.234E-02    0.77       1.0  T
   5   -183.3314976 -0.373399E-04  0.979E-03    0.77       1.0  T
   6   -183.3315011 -0.354202E-05  0.561E-03    0.77       1.7  T
   7   -183.3315035 -0.241276E-05  0.211E-03    0.77       4.7  T
     SCC iter.                  ...        0 min,  0.140 sec
     gradient                   ...        0 min,  0.176 sec
 * total energy  :  -180.4687638 Eh     change       -0.3829178E-02 Eh
   gradient norm :     0.0413465 Eh/α   predicted    -0.4819036E-02 (  25.85%)
   displ. norm   :     0.6338947 α      lambda       -0.6459096E-02
   maximum displ.:     0.2511266 α      in ANC's #12, #4, #3, ...

........................................................................
.............................. CYCLE   24 ..............................
........................................................................
   1   -183.3373927 -0.183337E+03  0.219E-01    0.78       0.0  T
   2   -183.3374114 -0.187091E-04  0.127E-01    0.77       1.0  T
   3   -183.3360618  0.134960E-02  0.112E-01    0.76       1.0  T
   4   -183.3375693 -0.150754E-02  0.171E-02    0.76       1.0  T
   5   -183.3375857 -0.163790E-04  0.782E-03    0.76       1.3  T
   6   -183.3375885 -0.278146E-05  0.435E-03    0.76       2.3  T
   7   -183.3375897 -0.124313E-05  0.163E-03    0.76       6.0  T
     SCC iter.                  ...        0 min,  0.140 sec
     gradient                   ...        0 min,  0.176 sec
 * total energy  :  -180.4730824 Eh     change       -0.4318628E-02 Eh
   gradient norm :     0.0339235 Eh/α   predicted    -0.4527338E-02 (   4.83%)
   displ. norm   :     0.6999769 α      lambda       -0.7356588E-02
   maximum displ.:     0.2382640 α      in ANC's #4, #3, #12, ...

........................................................................
.............................. CYCLE   25 ..............................
........................................................................
   1   -183.3311085 -0.183331E+03  0.268E-01    0.75       0.0  T
   2   -183.3312033 -0.948198E-04  0.150E-01    0.74       1.0  T
   3   -183.3306528  0.550528E-03  0.751E-02    0.75       1.0  T
   4   -183.3312891 -0.636292E-03  0.128E-02    0.74       1.0  T
   5   -183.3312909 -0.183032E-05  0.882E-03    0.74       1.1  T
   6   -183.3312973 -0.634942E-05  0.428E-03    0.74       2.3  T
   7   -183.3312987 -0.144987E-05  0.162E-03    0.74       6.0  T
   8   -183.3312988 -0.107872E-06  0.907E-04    0.74      10.8  T
     SCC iter.                  ...        0 min,  0.160 sec
     gradient                   ...        0 min,  0.176 sec
 * total energy  :  -180.4775771 Eh     change       -0.4494656E-02 Eh
   gradient norm :     0.0325416 Eh/α   predicted    -0.5480557E-02 (  21.93%)
   displ. norm   :     0.6759855 α      lambda       -0.5618644E-02
   maximum displ.:     0.2600214 α      in ANC's #4, #12, #3, ...

........................................................................
.............................. CYCLE   26 ..............................
........................................................................
   1   -183.3327006 -0.183333E+03  0.202E-01    0.74       0.0  T
   2   -183.3327247 -0.240711E-04  0.113E-01    0.75       1.0  T
   3   -183.3318463  0.878363E-03  0.869E-02    0.74       1.0  T
   4   -183.3328238 -0.977500E-03  0.134E-02    0.75       1.0  T
   5   -183.3328285 -0.460290E-05  0.938E-03    0.75       1.0  T
   6   -183.3328344 -0.599335E-05  0.363E-03    0.75       2.7  T
   7   -183.3328354 -0.921950E-06  0.161E-03    0.75       6.1  T
     SCC iter.                  ...        0 min,  0.140 sec
     gradient                   ...        0 min,  0.176 sec
 * total energy  :  -180.4824324 Eh     change       -0.4855288E-02 Eh
   gradient norm :     0.0352691 Eh/α   predicted    -0.4093064E-02 ( -15.70%)
   displ. norm   :     0.7873246 α      lambda       -0.7175495E-02
   maximum displ.:     0.3091951 α      in ANC's #4, #3, #12, ...

........................................................................
.............................. CYCLE   27 ..............................
........................................................................
   1   -183.3530094 -0.183353E+03  0.269E-01    0.73       0.0  T
   2   -183.3529338  0.755771E-04  0.154E-01    0.73       1.0  T
   3   -183.3503999  0.253394E-02  0.155E-01    0.75       1.0  T
   4   -183.3533324 -0.293249E-02  0.214E-02    0.74       1.0  T
   5   -183.3533441 -0.116939E-04  0.130E-02    0.74       1.0  T
   6   -183.3533532 -0.908272E-05  0.488E-03    0.74       2.0  T
   7   -183.3533549 -0.170680E-05  0.210E-03    0.74       4.7  T
   8   -183.3533550 -0.124116E-06  0.137E-03    0.74       7.2  T
     SCC iter.                  ...        0 min,  0.159 sec
     gradient                   ...        0 min,  0.176 sec
 * total energy  :  -180.4867021 Eh     change       -0.4269702E-02 Eh
   gradient norm :     0.0355670 Eh/α   predicted    -0.5811719E-02 (  36.12%)
   displ. norm   :     0.7534921 α      lambda       -0.6155191E-02
   maximum displ.:     0.3005918 α      in ANC's #4, #3, #12, ...

........................................................................
.............................. CYCLE   28 ..............................
........................................................................
   1   -183.3525716 -0.183353E+03  0.221E-01    0.74       0.0  T
   2   -183.3525996 -0.280081E-04  0.124E-01    0.75       1.0  T
   3   -183.3514942  0.110540E-02  0.959E-02    0.74       1.0  T
   4   -183.3527275 -0.123331E-02  0.140E-02    0.75       1.0  T
   5   -183.3527316 -0.402104E-05  0.102E-02    0.75       1.0  T
   6   -183.3527394 -0.786763E-05  0.411E-03    0.75       2.4  T
   7   -183.3527407 -0.123386E-05  0.180E-03    0.75       5.5  T
   8   -183.3527408 -0.107935E-06  0.107E-03    0.75       9.2  T
     SCC iter.                  ...        0 min,  0.158 sec
     gradient                   ...        0 min,  0.176 sec
 * total energy  :  -180.4918749 Eh     change       -0.5172843E-02 Eh
   gradient norm :     0.0231673 Eh/α   predicted    -0.4824901E-02 (  -6.73%)
   displ. norm   :     0.8503308 α      lambda       -0.5190795E-02
   maximum displ.:     0.3598541 α      in ANC's #4, #3, #12, ...

........................................................................
.............................. CYCLE   29 ..............................
........................................................................
   1   -183.3481447 -0.183348E+03  0.200E-01    0.75       0.0  T
   2   -183.3481780 -0.332497E-04  0.113E-01    0.75       1.0  T
   3   -183.3475244  0.653596E-03  0.750E-02    0.76       1.0  T
   4   -183.3482523 -0.727916E-03  0.126E-02    0.76       1.0  T
   5   -183.3482529 -0.613226E-06  0.979E-03    0.76       1.0  T
   6   -183.3482612 -0.825171E-05  0.350E-03    0.76       2.8  T
   7   -183.3482620 -0.855402E-06  0.164E-03    0.76       6.0  T
   8   -183.3482621 -0.482146E-07  0.107E-03    0.76       9.1  T
     SCC iter.                  ...        0 min,  0.158 sec
     gradient                   ...        0 min,  0.176 sec
 * total energy  :  -180.4965794 Eh     change       -0.4704453E-02 Eh
   gradient norm :     0.0288272 Eh/α   predicted    -0.4472039E-02 (  -4.94%)
   displ. norm   :     0.8456582 α      lambda       -0.5319534E-02
   maximum displ.:     0.3857884 α      in ANC's #4, #3, #12, ...

........................................................................
.............................. CYCLE   30 ..............................
........................................................................
   1   -183.3691312 -0.183369E+03  0.176E-01    0.75       0.0  T
   2   -183.3691436 -0.123992E-04  0.985E-02    0.75       1.0  T
   3   -183.3683664  0.777195E-03  0.805E-02    0.76       1.0  T
   4   -183.3692397 -0.873240E-03  0.139E-02    0.76       1.0  T
   5   -183.3692430 -0.330298E-05  0.957E-03    0.76       1.0  T
   6   -183.3692498 -0.681603E-05  0.359E-03    0.75       2.7  T
   7   -183.3692507 -0.915273E-06  0.171E-03    0.75       5.7  T
   8   -183.3692508 -0.907339E-07  0.101E-03    0.75       9.7  T
     SCC iter.                  ...        0 min,  0.160 sec
     gradient                   ...        0 min,  0.176 sec
 * total energy  :  -180.5011607 Eh     change       -0.4581327E-02 Eh
   gradient norm :     0.0179932 Eh/α   predicted    -0.4561868E-02 (  -0.42%)
   displ. norm   :     0.9079889 α      lambda       -0.5192007E-02
   maximum displ.:     0.3939871 α      in ANC's #4, #3, #12, ...

........................................................................
.............................. CYCLE   31 ..............................
........................................................................
   1   -183.3638733 -0.183364E+03  0.211E-01    0.76       0.0  T
   2   -183.3639395 -0.661997E-04  0.118E-01    0.75       1.0  T
   3   -183.3636014  0.338067E-03  0.575E-02    0.77       1.0  T
   4   -183.3639925 -0.391085E-03  0.115E-02    0.75       1.0  T
   5   -183.3639915  0.936798E-06  0.828E-03    0.76       1.2  T
   6   -183.3639970 -0.544396E-05  0.334E-03    0.76       2.9  T
   7   -183.3639978 -0.788822E-06  0.141E-03    0.76       6.9  T
   8   -183.3639978 -0.499932E-07  0.820E-04    0.76      12.0  T
     SCC iter.                  ...        0 min,  0.159 sec
     gradient                   ...        0 min,  0.177 sec
 * total energy  :  -180.5053419 Eh     change       -0.4181146E-02 Eh
   gradient norm :     0.0388974 Eh/α   predicted    -0.4736267E-02 (  13.28%)
   displ. norm   :     0.8292035 α      lambda       -0.4986244E-02
   maximum displ.:     0.3876049 α      in ANC's #4, #3, #12, ...

........................................................................
.............................. CYCLE   32 ..............................
........................................................................
   1   -183.3681923 -0.183368E+03  0.175E-01    0.75       0.0  T
   2   -183.3682326 -0.402151E-04  0.964E-02    0.75       1.0  T
   3   -183.3679365  0.296103E-03  0.538E-02    0.75       1.0  T
   4   -183.3682628 -0.326307E-03  0.127E-02    0.75       1.0  T
   5   -183.3682655 -0.274486E-05  0.874E-03    0.75       1.1  T
   6   -183.3682719 -0.637691E-05  0.230E-03    0.75       4.3  T
   7   -183.3682721 -0.191483E-06  0.123E-03    0.75       7.9  T
   8   -183.3682721 -0.469758E-07  0.666E-04    0.75      14.7  T
     SCC iter.                  ...        0 min,  0.160 sec
     gradient                   ...        0 min,  0.176 sec
 * total energy  :  -180.5094895 Eh     change       -0.4147647E-02 Eh
   gradient norm :     0.0252377 Eh/α   predicted    -0.4207338E-02 (   1.44%)
   displ. norm   :     0.8483480 α      lambda       -0.4687316E-02
   maximum displ.:     0.4168167 α      in ANC's #4, #3, #2, ...

........................................................................
.............................. CYCLE   33 ..............................
........................................................................
   1   -183.3827515 -0.183383E+03  0.155E-01    0.74       0.0  T
   2   -183.3827738 -0.222661E-04  0.860E-02    0.75       1.0  T
   3   -183.3824588  0.314998E-03  0.532E-02    0.74       1.0  T
   4   -183.3828070 -0.348234E-03  0.119E-02    0.75       1.0  T
   5   -183.3828098 -0.276727E-05  0.807E-03    0.75       1.2  T
   6   -183.3828160 -0.621058E-05  0.269E-03    0.75       3.6  T
   7   -183.3828165 -0.533503E-06  0.127E-03    0.75       7.7  T
   8   -183.3828166 -0.420117E-07  0.734E-04    0.75      13.4  T
     SCC iter.                  ...        0 min,  0.160 sec
     gradient                   ...        0 min,  0.176 sec
 * total energy  :  -180.5136745 Eh     change       -0.4184982E-02 Eh
   gradient norm :     0.0181486 Eh/α   predicted    -0.4030377E-02 (  -3.69%)
   displ. norm   :     0.9098426 α      lambda       -0.4698329E-02
   maximum displ.:     0.4425422 α      in ANC's #4, #3, #12, ...

........................................................................
.............................. CYCLE   34 ..............................
........................................................................
   1   -183.3859009 -0.183386E+03  0.159E-01    0.74       0.0  T
   2   -183.3859260 -0.250531E-04  0.887E-02    0.74       1.0  T
   3   -183.3857621  0.163900E-03  0.413E-02    0.73       1.0  T
   4   -183.3859430 -0.180965E-03  0.105E-02    0.74       1.0  T
   5   -183.3859452 -0.212508E-05  0.551E-03    0.74       1.8  T
   6   -183.3859478 -0.262361E-05  0.219E-03    0.74       4.5  T
   7   -183.3859481 -0.297411E-06  0.113E-03    0.74       8.7  T
     SCC iter.                  ...        0 min,  0.140 sec
     gradient                   ...        0 min,  0.177 sec
 * total energy  :  -180.5177864 Eh     change       -0.4111892E-02 Eh
   gradient norm :     0.0247294 Eh/α   predicted    -0.4293843E-02 (   4.43%)
   displ. norm   :     0.8869592 α      lambda       -0.4752712E-02
   maximum displ.:     0.4442241 α      in ANC's #4, #3, #2, ...

........................................................................
.............................. CYCLE   35 ..............................
........................................................................
   1   -183.3934702 -0.183393E+03  0.162E-01    0.74       0.0  T
   2   -183.3934634  0.677835E-05  0.924E-02    0.73       1.0  T
   3   -183.3926634  0.800033E-03  0.750E-02    0.74       1.0  T
   4   -183.3935410 -0.877651E-03  0.101E-02    0.73       1.0  T
   5   -183.3935445 -0.344111E-05  0.583E-03    0.73       1.7  T
   6   -183.3935467 -0.220605E-05  0.239E-03    0.73       4.1  T
     SCC iter.                  ...        0 min,  0.120 sec
     gradient                   ...        0 min,  0.176 sec
 * total energy  :  -180.5220612 Eh     change       -0.4274802E-02 Eh
   gradient norm :     0.0212035 Eh/α   predicted    -0.4245832E-02 (  -0.68%)
   displ. norm   :     0.9099063 α      lambda       -0.4618179E-02
   maximum displ.:     0.4636667 α      in ANC's #4, #3, #2, ...

........................................................................
.............................. CYCLE   36 ..............................
........................................................................
   1   -183.3952702 -0.183395E+03  0.165E-01    0.72       0.0  T
   2   -183.3953017 -0.315312E-04  0.916E-02    0.73       1.0  T
   3   -183.3951627  0.138969E-03  0.348E-02    0.71       1.0  T
   4   -183.3953133 -0.150548E-03  0.110E-02    0.72       1.0  T
   5   -183.3953202 -0.694995E-05  0.609E-03    0.72       1.6  T
   6   -183.3953227 -0.242012E-05  0.255E-03    0.72       3.8  T
   7   -183.3953232 -0.526983E-06  0.107E-03    0.72       9.2  T
     SCC iter.                  ...        0 min,  0.139 sec
     gradient                   ...        0 min,  0.176 sec
 * total energy  :  -180.5262787 Eh     change       -0.4217484E-02 Eh
   gradient norm :     0.0197991 Eh/α   predicted    -0.4220858E-02 (   0.08%)
   displ. norm   :     0.8998486 α      lambda       -0.4748045E-02
   maximum displ.:     0.4730668 α      in ANC's #4, #3, #2, ...

........................................................................
.............................. CYCLE   37 ..............................
........................................................................
   1   -183.4130872 -0.183413E+03  0.146E-01    0.72       0.0  T
   2   -183.4131282 -0.410166E-04  0.811E-02    0.73       1.0  T
   3   -183.4129552  0.172980E-03  0.449E-02    0.71       1.0  T
   4   -183.4131515 -0.196298E-03  0.116E-02    0.72       1.0  T
   5   -183.4131592 -0.769650E-05  0.638E-03    0.72       1.5  T
   6   -183.4131622 -0.292825E-05  0.292E-03    0.72       3.4  T
   7   -183.4131630 -0.852361E-06  0.126E-03    0.72       7.8  T
     SCC iter.                  ...        0 min,  0.139 sec
     gradient                   ...        0 min,  0.176 sec
 * total energy  :  -180.5302917 Eh     change       -0.4013010E-02 Eh
   gradient norm :     0.0335496 Eh/α   predicted    -0.4296345E-02 (   7.06%)
   displ. norm   :     0.9000442 α      lambda       -0.4686996E-02
   maximum displ.:     0.4627739 α      in ANC's #4, #3, #2, ...

........................................................................
.............................. CYCLE   38 ..............................
........................................................................
   1   -183.4036954 -0.183404E+03  0.155E-01    0.71       0.0  T
   2   -183.4037203 -0.248573E-04  0.878E-02    0.71       1.0  T
   3   -183.4036118  0.108514E-03  0.342E-02    0.72       1.0  T
   4   -183.4037335 -0.121719E-03  0.836E-03    0.71       1.2  T
   5   -183.4037365 -0.303966E-05  0.476E-03    0.72       2.1  T
   6   -183.4037381 -0.156516E-05  0.205E-03    0.72       4.8  T
     SCC iter.                  ...        0 min,  0.119 sec
     gradient                   ...        0 min,  0.176 sec
 * total energy  :  -180.5345323 Eh     change       -0.4240633E-02 Eh
   gradient norm :     0.0174271 Eh/α   predicted    -0.4241926E-02 (   0.03%)
   displ. norm   :     0.8792006 α      lambda       -0.4702840E-02
   maximum displ.:     0.4777603 α      in ANC's #4, #3, #2, ...

........................................................................
.............................. CYCLE   39 ..............................
........................................................................
   1   -183.4190182 -0.183419E+03  0.156E-01    0.71       0.0  T
   2   -183.4190684 -0.501763E-04  0.859E-02    0.71       1.0  T
   3   -183.4188739  0.194530E-03  0.455E-02    0.72       1.0  T
   4   -183.4190868 -0.212970E-03  0.137E-02    0.72       1.0  T
   5   -183.4191000 -0.131570E-04  0.667E-03    0.72       1.5  T
   6   -183.4191026 -0.260120E-05  0.332E-03    0.72       3.0  T
   7   -183.4191035 -0.860680E-06  0.158E-03    0.72       6.2  T
   8   -183.4191037 -0.219905E-06  0.809E-04    0.72      12.1  T
     SCC iter.                  ...        0 min,  0.159 sec
     gradient                   ...        0 min,  0.177 sec
 * total energy  :  -180.5376463 Eh     change       -0.3113958E-02 Eh
   gradient norm :     0.0371819 Eh/α   predicted    -0.4169062E-02 (  33.88%)
   displ. norm   :     0.7879804 α      lambda       -0.5138906E-02
   maximum displ.:     0.4117873 α      in ANC's #4, #3, #2, ...

........................................................................
.............................. CYCLE   40 ..............................
........................................................................
   1   -183.4079267 -0.183408E+03  0.127E-01    0.71       0.0  T
   2   -183.4079555 -0.288230E-04  0.713E-02    0.72       1.0  T
   3   -183.4078924  0.630801E-04  0.272E-02    0.71       1.0  T
   4   -183.4079633 -0.708660E-04  0.816E-03    0.72       1.2  T
   5   -183.4079674 -0.412182E-05  0.360E-03    0.72       2.7  T
   6   -183.4079676 -0.194276E-06  0.228E-03    0.72       4.3  T
     SCC iter.                  ...        0 min,  0.120 sec
     gradient                   ...        0 min,  0.176 sec
 * total energy  :  -180.5418255 Eh     change       -0.4179218E-02 Eh
   gradient norm :     0.0239507 Eh/α   predicted    -0.4164859E-02 (  -0.34%)
   displ. norm   :     0.8873585 α      lambda       -0.4139537E-02
   maximum displ.:     0.4949681 α      in ANC's #4, #3, #2, ...

........................................................................
.............................. CYCLE   41 ..............................
........................................................................
   1   -183.4106332 -0.183411E+03  0.126E-01    0.72       0.0  T
   2   -183.4106579 -0.247028E-04  0.712E-02    0.72       1.0  T
   3   -183.4106221  0.357342E-04  0.223E-02    0.71       1.0  T
   4   -183.4106633 -0.411849E-04  0.787E-03    0.72       1.2  T
   5   -183.4106652 -0.192719E-05  0.449E-03    0.72       2.2  T
   6   -183.4106667 -0.142522E-05  0.229E-03    0.72       4.3  T
     SCC iter.                  ...        0 min,  0.120 sec
     gradient                   ...        0 min,  0.176 sec
 * total energy  :  -180.5456301 Eh     change       -0.3804580E-02 Eh
   gradient norm :     0.0178201 Eh/α   predicted    -0.3699524E-02 (  -2.76%)
   displ. norm   :     0.8894470 α      lambda       -0.4378716E-02
   maximum displ.:     0.5088597 α      in ANC's #4, #3, #2, ...

........................................................................
.............................. CYCLE   42 ..............................
........................................................................
   1   -183.4299340 -0.183430E+03  0.124E-01    0.72       0.0  T
   2   -183.4299644 -0.303286E-04  0.703E-02    0.72       1.0  T
   3   -183.4298854  0.789529E-04  0.280E-02    0.72       1.0  T
   4   -183.4299686 -0.832144E-04  0.974E-03    0.72       1.0  T
   5   -183.4299751 -0.643438E-05  0.502E-03    0.72       2.0  T
   6   -183.4299769 -0.180175E-05  0.263E-03    0.72       3.7  T
   7   -183.4299776 -0.720378E-06  0.913E-04    0.72      10.7  T
     SCC iter.                  ...        0 min,  0.140 sec
     gradient                   ...        0 min,  0.176 sec
 * total energy  :  -180.5492584 Eh     change       -0.3628356E-02 Eh
   gradient norm :     0.0291436 Eh/α   predicted    -0.3921401E-02 (   8.08%)
   displ. norm   :     0.8676650 α      lambda       -0.4395464E-02
   maximum displ.:     0.4947544 α      in ANC's #4, #3, #2, ...
 * RMSD in coord.:     1.6018682 α      energy gain  -0.9636364E-01 Eh

generating ANC from model Hessian ...
Using Lindh-Hessian (1995)
 Shifting diagonal of input Hessian by   5.007867938925797E-003
 Lowest  eigenvalues of input Hessian
    0.005000   -0.000000   -0.000000   -0.000000    0.000000    0.000000
    0.000000    0.005045    0.005092    0.005157    0.005164    0.005289
    0.005347    0.005408    0.005636    0.005719    0.006090    0.006310
 Highest eigenvalues
    2.266158    2.271510    2.568666    2.615316    2.644409    2.661005
 

........................................................................
.............................. CYCLE   43 ..............................
........................................................................
   1   -183.4351754 -0.183435E+03  0.125E-01    0.72       0.0  T
   2   -183.4351944 -0.190262E-04  0.708E-02    0.72       1.0  T
   3   -183.4351583  0.360946E-04  0.225E-02    0.73       1.0  T
   4   -183.4352006 -0.422807E-04  0.713E-03    0.72       1.4  T
   5   -183.4352014 -0.824521E-06  0.405E-03    0.72       2.4  T
   6   -183.4352027 -0.134895E-05  0.180E-03    0.72       5.5  T
   7   -183.4352030 -0.244944E-06  0.799E-04    0.72      12.3  T
   8   -183.4352030 -0.208863E-07  0.472E-04    0.72      20.8  T
     SCC iter.                  ...        0 min,  0.158 sec
     gradient                   ...        0 min,  0.189 sec
 * total energy  :  -180.5530968 Eh     change       -0.3838372E-02 Eh
   gradient norm :     0.0235056 Eh/α   predicted     0.0000000E+00 (-100.00%)
   displ. norm   :     0.4964404 α      lambda       -0.2709963E-02
   maximum displ.:     0.3757512 α      in ANC's #4, #1, #2, ...

........................................................................
.............................. CYCLE   44 ..............................
........................................................................
   1   -183.4324595 -0.183432E+03  0.787E-02    0.72       0.0  T
   2   -183.4324636 -0.412076E-05  0.454E-02    0.73       1.0  T
   3   -183.4323380  0.125599E-03  0.324E-02    0.73       1.0  T
   4   -183.4324791 -0.141055E-03  0.585E-03    0.73       1.7  T
   5   -183.4324802 -0.108058E-05  0.413E-03    0.73       2.4  T
   6   -183.4324817 -0.156899E-05  0.150E-03    0.73       6.5  T
     SCC iter.                  ...        0 min,  0.120 sec
     gradient                   ...        0 min,  0.176 sec
 * total energy  :  -180.5554981 Eh     change       -0.2401330E-02 Eh
   gradient norm :     0.0090928 Eh/α   predicted    -0.1688928E-02 ( -29.67%)
   displ. norm   :     0.5261364 α      lambda       -0.2415528E-02
   maximum displ.:     0.3367564 α      in ANC's #4, #11, #2, ...

........................................................................
.............................. CYCLE   45 ..............................
........................................................................
   1   -183.4333800 -0.183433E+03  0.104E-01    0.73       0.0  T
   2   -183.4333823 -0.223242E-05  0.599E-02    0.74       1.0  T
   3   -183.4331282  0.254093E-03  0.455E-02    0.74       1.0  T
   4   -183.4334141 -0.285936E-03  0.825E-03    0.74       1.2  T
   5   -183.4334193 -0.523944E-05  0.478E-03    0.74       2.0  T
   6   -183.4334210 -0.164817E-05  0.202E-03    0.74       4.9  T
   7   -183.4334213 -0.343793E-06  0.738E-04    0.74      13.3  T
     SCC iter.                  ...        0 min,  0.139 sec
     gradient                   ...        0 min,  0.176 sec
 * total energy  :  -180.5577371 Eh     change       -0.2238978E-02 Eh
   gradient norm :     0.0123340 Eh/α   predicted    -0.1542109E-02 ( -31.12%)
   displ. norm   :     0.8321516 α      lambda       -0.3704350E-02
   maximum displ.:     0.4951410 α      in ANC's #4, #11, #2, ...

........................................................................
.............................. CYCLE   46 ..............................
........................................................................
   1   -183.4338735 -0.183434E+03  0.168E-01    0.75       0.0  T
   2   -183.4338848 -0.112713E-04  0.969E-02    0.76       1.0  T
   3   -183.4332923  0.592494E-03  0.704E-02    0.76       1.0  T
   4   -183.4339578 -0.665549E-03  0.134E-02    0.77       1.0  T
   5   -183.4339717 -0.139061E-04  0.769E-03    0.76       1.3  T
   6   -183.4339762 -0.451477E-05  0.319E-03    0.76       3.1  T
   7   -183.4339771 -0.902381E-06  0.108E-03    0.76       9.1  T
   8   -183.4339772 -0.313776E-07  0.689E-04    0.76      14.2  T
     SCC iter.                  ...        0 min,  0.158 sec
     gradient                   ...        0 min,  0.176 sec
 * total energy  :  -180.5610172 Eh     change       -0.3280092E-02 Eh
   gradient norm :     0.0163586 Eh/α   predicted    -0.3134767E-02 (  -4.43%)
   displ. norm   :     0.8583933 α      lambda       -0.3755438E-02
   maximum displ.:     0.5230964 α      in ANC's #4, #11, #2, ...

........................................................................
.............................. CYCLE   47 ..............................
........................................................................
   1   -183.4346989 -0.183435E+03  0.163E-01    0.77       0.0  T
   2   -183.4347168 -0.178183E-04  0.939E-02    0.77       1.0  T
   3   -183.4342747  0.442028E-03  0.611E-02    0.78       1.0  T
   4   -183.4347616 -0.486899E-03  0.123E-02    0.78       1.0  T
   5   -183.4347724 -0.107250E-04  0.715E-03    0.78       1.4  T
   6   -183.4347764 -0.407341E-05  0.288E-03    0.78       3.4  T
   7   -183.4347772 -0.786182E-06  0.940E-04    0.78      10.4  T
   8   -183.4347772 -0.230719E-07  0.546E-04    0.78      18.0  T
     SCC iter.                  ...        0 min,  0.158 sec
     gradient                   ...        0 min,  0.176 sec
 * total energy  :  -180.5643594 Eh     change       -0.3342187E-02 Eh
   gradient norm :     0.0168474 Eh/α   predicted    -0.3261299E-02 (  -2.42%)
   displ. norm   :     0.8188007 α      lambda       -0.3716593E-02
   maximum displ.:     0.5359955 α      in ANC's #4, #2, #1, ...

........................................................................
.............................. CYCLE   48 ..............................
........................................................................
   1   -183.4441327 -0.183444E+03  0.151E-01    0.78       0.0  T
   2   -183.4441548 -0.220510E-04  0.855E-02    0.78       1.0  T
   3   -183.4439492  0.205541E-03  0.420E-02    0.79       1.0  T
   4   -183.4441693 -0.220098E-03  0.115E-02    0.79       1.0  T
   5   -183.4441772 -0.786731E-05  0.631E-03    0.78       1.6  T
   6   -183.4441802 -0.298969E-05  0.261E-03    0.78       3.8  T
   7   -183.4441809 -0.698833E-06  0.876E-04    0.78      11.2  T
     SCC iter.                  ...        0 min,  0.139 sec
     gradient                   ...        0 min,  0.176 sec
 * total energy  :  -180.5676877 Eh     change       -0.3328305E-02 Eh
   gradient norm :     0.0162972 Eh/α   predicted    -0.3104165E-02 (  -6.73%)
   displ. norm   :     0.8413480 α      lambda       -0.3661004E-02
   maximum displ.:     0.5742359 α      in ANC's #4, #2, #15, ...

........................................................................
.............................. CYCLE   49 ..............................
........................................................................
   1   -183.4542835 -0.183454E+03  0.152E-01    0.79       0.0  T
   2   -183.4543066 -0.230903E-04  0.861E-02    0.79       1.0  T
   3   -183.4541375  0.169116E-03  0.415E-02    0.80       1.0  T
   4   -183.4543251 -0.187660E-03  0.992E-03    0.79       1.0  T
   5   -183.4543285 -0.332487E-05  0.562E-03    0.79       1.7  T
   6   -183.4543305 -0.209238E-05  0.240E-03    0.79       4.1  T
   7   -183.4543311 -0.582468E-06  0.104E-03    0.79       9.5  T
     SCC iter.                  ...        0 min,  0.139 sec
     gradient                   ...        0 min,  0.176 sec
 * total energy  :  -180.5709646 Eh     change       -0.3276937E-02 Eh
   gradient norm :     0.0151677 Eh/α   predicted    -0.3126255E-02 (  -4.60%)
   displ. norm   :     0.8953844 α      lambda       -0.3638470E-02
   maximum displ.:     0.5968849 α      in ANC's #4, #2, #1, ...

........................................................................
.............................. CYCLE   50 ..............................
........................................................................
   1   -183.4558512 -0.183456E+03  0.145E-01    0.79       0.0  T
   2   -183.4558803 -0.290709E-04  0.838E-02    0.79       1.0  T
   3   -183.4556871  0.193114E-03  0.459E-02    0.80       1.0  T
   4   -183.4559055 -0.218387E-03  0.936E-03    0.80       1.0  T
   5   -183.4559096 -0.410742E-05  0.481E-03    0.80       2.0  T
   6   -183.4559106 -0.100919E-05  0.257E-03    0.80       3.8  T
   7   -183.4559113 -0.692167E-06  0.927E-04    0.80      10.6  T
     SCC iter.                  ...        0 min,  0.139 sec
     gradient                   ...        0 min,  0.176 sec
 * total energy  :  -180.5743214 Eh     change       -0.3356790E-02 Eh
   gradient norm :     0.0163004 Eh/α   predicted    -0.3277748E-02 (  -2.35%)
   displ. norm   :     0.8834459 α      lambda       -0.3539566E-02
   maximum displ.:     0.6188530 α      in ANC's #4, #2, #1, ...

........................................................................
.............................. CYCLE   51 ..............................
........................................................................
   1   -183.4603969 -0.183460E+03  0.141E-01    0.79       0.0  T
   2   -183.4604270 -0.301033E-04  0.808E-02    0.80       1.0  T
   3   -183.4601752  0.251798E-03  0.522E-02    0.80       1.0  T
   4   -183.4604610 -0.285819E-03  0.116E-02    0.80       1.0  T
   5   -183.4604708 -0.979581E-05  0.636E-03    0.80       1.5  T
   6   -183.4604744 -0.357608E-05  0.281E-03    0.80       3.5  T
   7   -183.4604751 -0.677657E-06  0.122E-03    0.80       8.0  T
   8   -183.4604752 -0.110691E-06  0.608E-04    0.80      16.1  T
     SCC iter.                  ...        0 min,  0.159 sec
     gradient                   ...        0 min,  0.176 sec
 * total energy  :  -180.5775621 Eh     change       -0.3240692E-02 Eh
   gradient norm :     0.0143658 Eh/α   predicted    -0.3151060E-02 (  -2.77%)
   displ. norm   :     0.9236023 α      lambda       -0.3542747E-02
   maximum displ.:     0.6262099 α      in ANC's #4, #2, #15, ...

........................................................................
.............................. CYCLE   52 ..............................
........................................................................
   1   -183.4549094 -0.183455E+03  0.155E-01    0.80       0.0  T
   2   -183.4549386 -0.291566E-04  0.887E-02    0.81       1.0  T
   3   -183.4546589  0.279640E-03  0.544E-02    0.80       1.0  T
   4   -183.4549758 -0.316858E-03  0.111E-02    0.80       1.0  T
   5   -183.4549832 -0.743961E-05  0.673E-03    0.81       1.5  T
   6   -183.4549875 -0.431169E-05  0.280E-03    0.81       3.5  T
   7   -183.4549882 -0.700167E-06  0.124E-03    0.81       7.9  T
   8   -183.4549883 -0.997896E-07  0.607E-04    0.81      16.1  T
     SCC iter.                  ...        0 min,  0.159 sec
     gradient                   ...        0 min,  0.176 sec
 * total energy  :  -180.5806571 Eh     change       -0.3094995E-02 Eh
   gradient norm :     0.0184392 Eh/α   predicted    -0.3282438E-02 (   6.06%)
   displ. norm   :     0.8580591 α      lambda       -0.3407635E-02
   maximum displ.:     0.6185572 α      in ANC's #4, #2, #1, ...

........................................................................
.............................. CYCLE   53 ..............................
........................................................................
   1   -183.4716762 -0.183472E+03  0.135E-01    0.80       0.0  T
   2   -183.4717189 -0.427386E-04  0.767E-02    0.81       1.0  T
   3   -183.4714865  0.232421E-03  0.524E-02    0.81       1.0  T
   4   -183.4717673 -0.280772E-03  0.120E-02    0.81       1.0  T
   5   -183.4717756 -0.835502E-05  0.655E-03    0.81       1.5  T
   6   -183.4717787 -0.308564E-05  0.336E-03    0.81       2.9  T
   7   -183.4717799 -0.121880E-05  0.120E-03    0.81       8.2  T
   8   -183.4717800 -0.105149E-06  0.589E-04    0.81      16.7  T
     SCC iter.                  ...        0 min,  0.159 sec
     gradient                   ...        0 min,  0.176 sec
 * total energy  :  -180.5835256 Eh     change       -0.2868521E-02 Eh
   gradient norm :     0.0212040 Eh/α   predicted    -0.2958282E-02 (   3.13%)
   displ. norm   :     0.8570681 α      lambda       -0.3460190E-02
   maximum displ.:     0.6079301 α      in ANC's #4, #2, #1, ...

........................................................................
.............................. CYCLE   54 ..............................
........................................................................
   1   -183.4669443 -0.183467E+03  0.147E-01    0.81       0.0  T
   2   -183.4669736 -0.292304E-04  0.823E-02    0.81       1.0  T
   3   -183.4666518  0.321769E-03  0.540E-02    0.81       1.0  T
   4   -183.4670113 -0.359495E-03  0.114E-02    0.81       1.0  T
   5   -183.4670200 -0.867376E-05  0.710E-03    0.81       1.4  T
   6   -183.4670249 -0.489340E-05  0.252E-03    0.81       3.9  T
   7   -183.4670254 -0.521511E-06  0.108E-03    0.81       9.1  T
     SCC iter.                  ...        0 min,  0.140 sec
     gradient                   ...        0 min,  0.175 sec
 * total energy  :  -180.5863755 Eh     change       -0.2849924E-02 Eh
   gradient norm :     0.0146031 Eh/α   predicted    -0.3000972E-02 (   5.30%)
   displ. norm   :     0.8938416 α      lambda       -0.3043019E-02
   maximum displ.:     0.6315159 α      in ANC's #4, #2, #1, ...

........................................................................
.............................. CYCLE   55 ..............................
........................................................................
   1   -183.4654491 -0.183465E+03  0.132E-01    0.81       0.0  T
   2   -183.4654704 -0.213150E-04  0.752E-02    0.81       1.0  T
   3   -183.4652667  0.203691E-03  0.456E-02    0.81       1.0  T
   4   -183.4654993 -0.232579E-03  0.880E-03    0.81       1.1  T
   5   -183.4655016 -0.226441E-05  0.564E-03    0.81       1.7  T
   6   -183.4655043 -0.269795E-05  0.256E-03    0.81       3.8  T
[...]
    28   6 C      3.743    -0.006    20.763     6.501
    29   6 C      3.751    -0.116    22.791     6.808
    30   6 C      3.071     0.026    27.359     8.576
    31   6 C      3.086    -0.033    28.721     8.785
    32   6 C      3.152     0.055    26.499     8.419
    33   7 N      1.988    -0.248    27.264     7.744
    34   7 N      3.285     0.212    17.756     6.258
    35   6 C      3.745    -0.022    21.034     6.542
    36   6 C      3.753    -0.113    22.728     6.798
    37   7 N      1.987    -0.252    27.361     7.758
    38   6 C      3.154     0.053    26.531     8.423
    39   6 C      3.087    -0.030    28.647     8.774
    40   6 C      3.072     0.025    27.379     8.579
    41   7 N      2.798    -0.032    21.862     6.944
    42   6 C      3.745    -0.004    20.719     6.493
    43   6 C      3.752    -0.117    22.810     6.811
    44   6 C      3.236     0.034    26.381     8.333
    45   6 C      3.118    -0.005    27.983     8.664
    46  16 S      2.182     0.031   139.812    19.901
    47   6 C      3.372    -0.015    25.088     7.828
    48   6 C      3.240    -0.025    27.689     8.532
    49  16 S      3.258     0.094   137.254    19.718
    50   6 C      2.959    -0.024    28.606     8.773
    51   6 C      3.991     0.093    18.977     6.189
    52   6 C      3.804    -0.058    21.610     6.618
    53   6 C      3.754    -0.108    22.620     6.782
    54   6 C      2.911    -0.013    28.343     8.730
    55   6 C      3.032    -0.070    29.700     8.939
    56   6 C      3.027     0.026    27.405     8.587
    57   6 C      2.947    -0.019    28.488     8.754
    58   6 C      1.934     0.118    28.189     8.574
    59   7 N      0.911    -0.268    26.943     7.507
    60   6 C      1.936     0.120    28.126     8.565
    61   7 N      0.911    -0.297    27.648     7.605
    62   6 C      3.044     0.003    27.924     8.667
    63   6 C      2.913    -0.029    28.724     8.788
    64   6 C      2.922    -0.025    28.617     8.773
    65   6 C      2.921    -0.027    28.677     8.782
    66   6 C      2.913    -0.019    28.479     8.751
    67   6 C      3.051    -0.022    28.508     8.757
    68   6 C      2.876     0.215    23.466     7.941
    69   8 O      0.856    -0.433    22.348     6.338
    70   1 H      0.926     0.057     2.235     2.338
    71   1 H      0.926     0.046     2.365     2.405
    72   1 H      0.926     0.048     2.341     2.392
    73   1 H      0.926     0.056     2.247     2.344
    74   1 H      0.925     0.070     2.084     2.257
    75   1 H      0.924     0.055     2.260     2.351
    76   1 H      0.924     0.054     2.265     2.353
    77   1 H      0.925     0.042     2.423     2.434
    78   1 H      0.925     0.052     2.289     2.366
    79   1 H      0.925     0.040     2.453     2.449
    80   1 H      0.925     0.069     2.099     2.266
    81   1 H      0.924     0.064     2.157     2.297
    82   1 H      0.925     0.055     2.254     2.348
    83   1 H      0.925     0.066     2.127     2.281
    84   1 H      0.925     0.041     2.433     2.439
    85   1 H      0.924     0.074     2.046     2.237
    86   1 H      0.924     0.075     2.029     2.228
    87   1 H      0.925     0.058     2.223     2.331
    88   1 H      0.925     0.057     2.240     2.341
    89   1 H      0.925     0.058     2.217     2.328
    90   1 H      0.925     0.069     2.099     2.265
    91   1 H      0.924     0.047     2.363     2.404
    92   1 H      0.925     0.051     2.305     2.374
    93   1 H      0.925     0.050     2.325     2.384
    94   1 H      0.925     0.074     2.046     2.237
    95   1 H      0.924     0.055     2.258     2.350
    96   1 H      0.924     0.122     1.594     1.975
    97   1 H      0.925     0.044     2.392     2.419
    98   1 H      0.925     0.055     2.262     2.352
    99   1 H      0.925     0.063     2.159     2.298
   100   1 H      0.925     0.061     2.193     2.316
   101   1 H      0.926     0.049     2.327     2.386
   102   1 H      0.926     0.040     2.451     2.448
   103   1 H      0.926     0.038     2.481     2.463
   104   1 H      0.926     0.048     2.346     2.395

 Mol. C6AA /au·bohr⁶  :     185454.890203
 Mol. C8AA /au·bohr⁸  :    5083246.370495
 Mol. α(0) /au        :        682.585158


Wiberg/Mayer (AO) data.
largest (>0.10) Wiberg bond orders for each atom
          total WBO             WBO to atom ...
     1  C   3.918        O    2 1.703    C   15 1.071    C    3 1.022
     2  O   2.120        C    1 1.703    S   18 0.138
     3  C   3.975        C    4 1.423    C    8 1.295    C    1 1.022
     4  C   3.981        C    3 1.423    C    5 1.419    H   70 0.967
     5  C   3.972        C    6 1.440    C    4 1.419    H   71 0.970
     6  C   3.980        C    5 1.440    C    7 1.424    H   72 0.970
     7  C   3.976        C    6 1.424    C    8 1.409    H   73 0.961
     8  C   3.981        C    7 1.409    C    3 1.295    C    9 1.079
     9  C   3.971        C   10 1.480    C   15 1.149    C    8 1.079
    10  C   3.946        C    9 1.480    C   11 1.100    C   13 1.096
    11  C   3.944        N   12 2.746    C   10 1.100
    12  N   2.963        C   11 2.746
    13  C   3.944        N   14 2.761    C   10 1.096
    14  N   2.966        C   13 2.761
    15  C   3.953        C   16 1.472    C    9 1.149    C    1 1.071
    16  C   3.946        C   15 1.472    C   17 1.328    H   74 0.931
    17  C   3.931        C   16 1.328    C   21 1.324    S   18 1.076
    18  S   2.732        C   19 1.156    C   17 1.076    O    2 0.138
    19  C   3.942        C   20 1.285    C   26 1.259    S   18 1.156
    20  C   3.928        C   21 1.371    C   19 1.285    S   24 1.077
    21  C   3.956        C   20 1.371    C   17 1.324    C   22 1.018
    22  C   3.993        C   21 1.018    C   23 0.992    H   75 0.969    H   76 0.963
    23  C   3.990        C   22 0.992    H   77 0.988    H   79 0.987    H   78 0.984
    24  S   2.491        C   25 1.106    C   20 1.077
    25  C   3.912        C   26 1.298    C   31 1.285    S   24 1.106
    26  C   3.939        C   25 1.298    C   19 1.259    N   27 1.156
    27  N   3.561        C   30 1.170    C   26 1.156    C   28 0.981
    28  C   3.962        C   29 1.007    N   27 0.981    H   81 0.965    H   80 0.962
    29  C   3.987        C   28 1.007    H   82 0.983    H   84 0.979    H   83 0.978
    30  C   3.922        C   31 1.264    C   40 1.229    N   27 1.170
    31  C   3.955        C   25 1.285    C   30 1.264    C   32 1.175
    32  C   3.972        N   33 1.375    C   38 1.225    C   31 1.175
    33  N   2.980        C   32 1.375    N   34 1.274    N   37 0.203
    34  N   3.736        N   33 1.274    N   37 1.274    C   35 0.983
    35  C   3.963        C   36 1.000    N   34 0.983    H   86 0.967    H   85 0.967
    36  C   3.985        C   35 1.000    H   87 0.986    H   89 0.986    H   88 0.983
    37  N   2.978        C   38 1.373    N   34 1.274    N   33 0.203
    38  C   3.973        N   37 1.373    C   32 1.225    C   39 1.175
    39  C   3.948        C   40 1.281    C   45 1.267    C   38 1.175
    40  C   3.941        C   39 1.281    C   30 1.229    N   41 1.152
    41  N   3.564        C   44 1.173    C   40 1.152    C   42 0.980
    42  C   3.963        C   43 1.006    N   41 0.980    H   91 0.967    H   90 0.959
    43  C   3.985        C   42 1.006    H   92 0.984    H   93 0.981    H   94 0.976
    44  C   3.945        C   45 1.280    C   48 1.268    N   41 1.173
    45  C   3.929        C   44 1.280    C   39 1.267    S   46 1.119
    46  S   2.613        C   47 1.174    C   45 1.119    C   48 0.102
    47  C   3.904        C   48 1.482    S   46 1.174    C   51 0.999
    48  C   3.919        C   47 1.482    C   44 1.268    S   49 0.921    S   46 0.102
    49  S   2.746        C   48 0.921    C   50 0.848    C   51 0.690
    50  C   3.737        C   54 1.558    C   51 1.028    S   49 0.848
    51  C   3.885        C   52 1.040    C   50 1.028    C   47 0.999    S   49 0.690
    52  C   3.985        C   51 1.040    C   53 1.011    H   95 0.965    H   96 0.906
    53  C   3.989        C   52 1.011    H   98 0.985    H   99 0.983    H   97 0.982
    54  C   3.972        C   50 1.558    C   55 1.302    H  100 0.940
    55  C   3.961        C   54 1.302    C   56 1.222    C   68 1.103
    56  C   3.977        C   57 1.413    C   55 1.222    C   62 1.064
    57  C   3.961        C   56 1.413    C   60 1.122    C   58 1.114
    58  C   3.943        N   59 2.744    C   57 1.114
    59  N   2.955        C   58 2.744
    60  C   3.942        N   61 2.722    C   57 1.122
    61  N   2.959        C   60 2.722
    62  C   3.984        C   63 1.424    C   67 1.299    C   56 1.064
    63  C   3.978        C   62 1.424    C   64 1.412    H  101 0.963
    64  C   3.983        C   65 1.454    C   63 1.412    H  102 0.971
    65  C   3.976        C   64 1.454    C   66 1.408    H  103 0.971
    66  C   3.981        C   67 1.438    C   65 1.408    H  104 0.968
    67  C   3.979        C   66 1.438    C   62 1.299    C   68 1.007
    68  C   3.937        O   69 1.687    C   55 1.103    C   67 1.007
    69  O   1.990        C   68 1.687
    70  H   0.996        C    4 0.967
    71  H   0.997        C    5 0.970
    72  H   0.997        C    6 0.970
    73  H   0.996        C    7 0.961
    74  H   0.994        C   16 0.931
    75  H   0.996        C   22 0.969
    76  H   0.996        C   22 0.963
    77  H   0.998        C   23 0.988
    78  H   0.996        C   23 0.984
    79  H   0.998        C   23 0.987
    80  H   0.994        C   28 0.962
    81  H   0.994        C   28 0.965
    82  H   0.996        C   29 0.983
    83  H   0.995        C   29 0.978
    84  H   0.998        C   29 0.979
    85  H   0.993        C   35 0.967
    86  H   0.993        C   35 0.967
    87  H   0.997        C   36 0.986
    88  H   0.996        C   36 0.983
    89  H   0.997        C   36 0.986
    90  H   0.994        C   42 0.959
    91  H   0.996        C   42 0.967
    92  H   0.997        C   43 0.984
    93  H   0.997        C   43 0.981
    94  H   0.994        C   43 0.976
    95  H   0.996        C   52 0.965
    96  H   0.984        C   52 0.906
    97  H   0.998        C   53 0.982
    98  H   0.996        C   53 0.985
    99  H   0.996        C   53 0.983
   100  H   0.995        C   54 0.940
   101  H   0.997        C   63 0.963
   102  H   0.998        C   64 0.971
   103  H   0.998        C   65 0.971
   104  H   0.997        C   66 0.968

molecular dipole:
                 x           y           z       tot (Debye)
 q only:       -2.011       2.547       2.758
   full:       -2.271       3.004       2.314      11.233
molecular quadrupole (traceless):
                xx          xy          yy          xz          yz          zz
 q only:       21.340     -52.209      31.562    -129.256      -4.799     -52.902
  q+dip:       38.774     -53.879      19.170    -116.355      -1.421     -57.944
   full:       32.111     -54.228      20.906    -112.061      -0.130     -53.017

           -------------------------------------------------
          |                Geometry Summary                 |
           -------------------------------------------------

      molecular mass/u    :      970.1696000
   center of mass at/Å    :      -10.2043218       0.8991662      -0.3594925
  moments of inertia/u·Å² :        0.9785031E+04   0.4289448E+05   0.4564976E+05
rotational constants/cm⁻¹ :        0.1722798E-02   0.3930023E-03   0.3692820E-03

 * 101 selected distances

     #   Z        #   Z                                     value/Å
     1   6 C      2   8 O                                 1.2199965
     3   6 C      4   6 C                                 1.3802382
     4   6 C      5   6 C                                 1.3881446
     5   6 C      6   6 C                                 1.3867228
     6   6 C      7   6 C                                 1.3893569
     3   6 C      8   6 C                                 1.4057142
     7   6 C      8   6 C                                 1.3854996
     9   6 C     10   6 C                                 1.3721609
    11   6 C     12   7 N                                 1.1495125
    13   6 C     14   7 N                                 1.1483026
    15   6 C     16   6 C                                 1.3750412
    16   6 C     17   6 C                                 1.3966448
    18  16 S     19   6 C                                 1.7231445
    19   6 C     20   6 C                                 1.4068650
    17   6 C     21   6 C                                 1.4071437
    20   6 C     21   6 C                                 1.3867497
    21   6 C     22   6 C                                 1.4936422
    22   6 C     23   6 C                                 1.5313947
    20   6 C     24  16 S                                 1.7533729 (max)
    24  16 S     25   6 C                                 1.7305342
    19   6 C     26   6 C                                 1.3977666
    25   6 C     26   6 C                                 1.4005363
    26   6 C     27   7 N                                 1.3691242
    27   7 N     28   6 C                                 1.4466530
    28   6 C     29   6 C                                 1.5290128
    27   7 N     30   6 C                                 1.3832437
    25   6 C     31   6 C                                 1.3983637
    30   6 C     31   6 C                                 1.4285669
    31   6 C     32   6 C                                 1.4092739
    32   6 C     33   7 N                                 1.3342656
    33   7 N     34   7 N                                 1.3097006
    34   7 N     35   6 C                                 1.4341031
    35   6 C     36   6 C                                 1.5258968
    34   7 N     37   7 N                                 1.3100230
    32   6 C     38   6 C                                 1.4189692
    37   7 N     38   6 C                                 1.3347352
    38   6 C     39   6 C                                 1.4088461
    30   6 C     40   6 C                                 1.4215533
    39   6 C     40   6 C                                 1.4253717
    40   6 C     41   7 N                                 1.3871198
    41   7 N     42   6 C                                 1.4450921
    42   6 C     43   6 C                                 1.5288828
    41   7 N     44   6 C                                 1.3602417
    39   6 C     45   6 C                                 1.4024986
    44   6 C     45   6 C                                 1.4064481
    45   6 C     46  16 S                                 1.7360422
    46  16 S     47   6 C                                 1.7228823
    44   6 C     48   6 C                                 1.3897978
    47   6 C     48   6 C                                 1.3758469
    47   6 C     51   6 C                                 1.4923533
    50   6 C     51   6 C                                 1.4491223
    51   6 C     52   6 C                                 1.4801897
    52   6 C     53   6 C                                 1.5219616
    50   6 C     54   6 C                                 1.3523916
    54   6 C     55   6 C                                 1.3973053
    55   6 C     56   6 C                                 1.4236798
    56   6 C     57   6 C                                 1.3816208
    58   6 C     59   7 N                                 1.1498510
    60   6 C     61   7 N                                 1.1520682
    62   6 C     63   6 C                                 1.3821524
    63   6 C     64   6 C                                 1.3912568
    64   6 C     65   6 C                                 1.3848021
    65   6 C     66   6 C                                 1.3903290
    62   6 C     67   6 C                                 1.4067105
    66   6 C     67   6 C                                 1.3783460
    68   6 C     69   8 O                                 1.2238156
     4   6 C     70   1 H                                 1.0792634
     5   6 C     71   1 H                                 1.0797495
     6   6 C     72   1 H                                 1.0797683
     7   6 C     73   1 H                                 1.0774516 (min)
    16   6 C     74   1 H                                 1.0813187
    22   6 C     75   1 H                                 1.0918776
    22   6 C     76   1 H                                 1.0909160
    23   6 C     77   1 H                                 1.0875588
    23   6 C     78   1 H                                 1.0861397
    23   6 C     79   1 H                                 1.0874410
    28   6 C     80   1 H                                 1.0873630
    28   6 C     81   1 H                                 1.0953674
    29   6 C     82   1 H                                 1.0861543
    29   6 C     83   1 H                                 1.0863422
    29   6 C     84   1 H                                 1.0884124
    35   6 C     85   1 H                                 1.0917288
    35   6 C     86   1 H                                 1.0915543
    36   6 C     87   1 H                                 1.0872089
    36   6 C     88   1 H                                 1.0861379
    36   6 C     89   1 H                                 1.0871404
    42   6 C     90   1 H                                 1.0849659
    42   6 C     91   1 H                                 1.0975133
    43   6 C     92   1 H                                 1.0863909
    43   6 C     93   1 H                                 1.0871343
    43   6 C     94   1 H                                 1.0871893
    52   6 C     95   1 H                                 1.0927599
    52   6 C     96   1 H                                 1.0969556
    53   6 C     97   1 H                                 1.0895319
    53   6 C     98   1 H                                 1.0859549
    53   6 C     99   1 H                                 1.0869270
    54   6 C    100   1 H                                 1.0825600
    63   6 C    101   1 H                                 1.0784765
    64   6 C    102   1 H                                 1.0801570
    65   6 C    103   1 H                                 1.0800860
    66   6 C    104   1 H                                 1.0795734

 * 6 distinct bonds (by element types)

   Z      Z             #   av. dist./Å        max./Å        min./Å
   1 H    6 C          35     1.0864306     1.0975133     1.0774516
   6 C    6 C          44     1.4182994     1.5313947     1.3523916
   6 C    7 N          13     1.3149471     1.4466530     1.1483026
   7 N    7 N           2     1.3098618     1.3100230     1.3097006
   6 C    8 O           2     1.2219061     1.2238156     1.2199965
   6 C   16 S           5     1.7331952     1.7533729     1.7228823


optimized geometry written to: xtbopt.xyz


           -------------------------------------------------
          | TOTAL ENERGY             -180.726311912428 Eh   |
          | GRADIENT NORM               0.000700962788 Eh/α |
          | HOMO-LUMO GAP               0.868615564154 eV   |
           -------------------------------------------------

------------------------------------------------------------------------
 * finished run on 2021/03/22 at 17:07:06.540     
------------------------------------------------------------------------
 total:
 * wall-time:     0 d,  0 h,  2 min,  0.769 sec
 *  cpu-time:     0 d,  0 h,  2 min,  0.765 sec
 * ratio c/w:     1.000 speedup
 SCF:
 * wall-time:     0 d,  0 h,  0 min,  0.882 sec
 *  cpu-time:     0 d,  0 h,  0 min,  0.882 sec
 * ratio c/w:     1.000 speedup
 ANC optimizer:
 * wall-time:     0 d,  0 h,  1 min, 59.667 sec
 *  cpu-time:     0 d,  0 h,  1 min, 59.664 sec
 * ratio c/w:     1.000 speedup

