      -----------------------------------------------------------      
     |                   =====================                   |     
     |                           x T B                           |     
     |                   =====================                   |     
     |                         S. Grimme                         |     
     |          Mulliken Center for Theoretical Chemistry        |     
     |                    University of Bonn                     |     
     |                Version 6.2 RC2 (SAW190805)                |     
      -----------------------------------------------------------      

   This program is distributed in the hope that it will be useful,
   but WITHOUT ANY WARRANTY; without even the implied warranty of
   MERCHANTABILITY or FITNESS FOR A PARTICULAR PURPOSE.
   
   FOR NON-COMMERCIAL, ACADEMIA USE ONLY.
   
   Cite this work as:
   * S. Grimme, C. Bannwarth, P. Shushkov, J. Chem. Theory Comput., 2017,
     13, 1989-2009. DOI: 10.1021/acs.jctc.7b00118
   * C. Bannwarth, S. Ehlert and S. Grimme., J. Chem. Theory Comput., 2019,
     15, 1652-1671. DOI: 10.1021/acs.jctc.8b01176
   * P. Pracht, E. Caldeweyher, S. Ehlert, S. Grimme, ChemRxiv, 2019, preprint.
     DOI: 10.26434/chemrxiv.8326202.v1
   
   for DFT-D4:
   * E. Caldeweyher, C. Bannwarth and S. Grimme, J. Chem. Phys., 2017,
     147, 034112. DOI: 10.1063/1.4993215
   * E. Caldeweyher, S. Ehlert, A. Hansen, H. Neugebauer, S. Spicher,
     C. Bannwarth and S. Grimme, J. Chem. Phys., 2019, 150, 154122.
     DOI: 10.1063/1.5090222
   
   for sTDA-xTB:
   * S. Grimme and C. Bannwarth, J. Chem. Phys., 2016, 145, 054103.
     DOI: 10.1063/1.4959605
   
   in the mass-spec context:
   * V. Asgeirsson, C. Bauer and S. Grimme, Chem. Sci., 2017, 8, 4879.
     DOI: 10.1039/c7sc00601b
   
   for metadynamics refer to:
   * S. Grimme, J. Chem. Theory Comput., 2019, 155, 2847-2862
     DOI: 10.1021/acs.jctc.9b00143
   
   with help from (in alphabetical order)
   C. Bannwarth, F. Bohle, G. Brandenburg, E. Caldeweyher, M. Checinski,
   S. Dohm, S. Ehlert, S. Ehrlich, F. März, H. Neugebauer, J. Pisarek,
   P. Pracht, P. Shushkov, and S. Spicher.
   
 * started run on 2021/04/12 at 13:52:53.384     

           -------------------------------------------------
          |                Calculation Setup                |
           -------------------------------------------------

          program call               : /ihome/ghutchison/geoffh/xtb/xtb BCDT-4Cl.xyz -sp
          hostname                   : smp-n149
          coordinate file            : BCDT-4Cl.xyz
          omp threads                :                     1
          number of atoms            :                   121
          number of electrons        :                   400
          charge                     :                     0
          spin                       :                   0.0
          first test random number   :      0.88087640231219


########################################################################
# WARNING! Please study the warnings concerning your input carefully
#  - XTBPATH is not set, using XTBHOME instead
#  - the use of '-sp' is discouraged, please use '--sp' next time
########################################################################

           ------------------------------------------------- 
          |                 G F N 2 - x T B                 |
          | Geometry, Frequencies, Noncovalent interactions |
          |            JCTC 2019 parametrisation            |
           ------------------------------------------------- 
             KAB for C  - Si     :                1.0500
             KAB for H  - Pd     :                0.9500
             k(s)              :                1.8500
             k(p)              :                2.2300
             k(d)              :                2.2300
             k(f)              :                2.0000
             kEN (H0ij)        :               -2.0000
             D4 a1             :                0.5200
             D4 a2             :                5.0000
             D4 s6             :                1.0000
             D4 s8             :                2.7000
             D4 s9             :                5.0000
             alphaj            :                2.0000

  Z AO/shell   Hii/eV     exponent
  1     Wed Apr 25 08:07:45 CEST 2018   EN: 2.200 GM2: 0.406  GM3: 0.0800  RAES: 1.40
     1s    -10.707211    1.230000
  6     Wed Apr 25 08:07:45 CEST 2018   EN: 2.550 GM2: 0.538  GM3: 0.1500  RAES: 3.00
     2s    -13.970922    2.096432
     2p    -10.063292    1.800000
  7     Wed Apr 25 08:07:45 CEST 2018   EN: 3.040 GM2: 0.461  GM3:-0.0640  RAES: 1.90
     2s    -16.686243    2.339881
     2p    -12.523956    2.014332
  8     Wed Apr 25 08:07:45 CEST 2018   EN: 3.440 GM2: 0.452  GM3:-0.0517  RAES: 1.80
     2s    -20.229985    2.439742
     2p    -15.503117    2.137023
 16     Tue Apr 24 11:44:34 CEST 2018   EN: 2.580 GM2: 0.340  GM3:-0.0502  RAES: 3.10
     3s    -20.029654    1.981333
     3p    -11.377694    2.025643
     3d     -0.420282    1.702555
 17     Mon Apr 23 14:09:22 CEST 2018   EN: 3.160 GM2: 0.249  GM3: 0.1495  RAES: 2.50
     3s    -29.278781    2.485265
     3p    -12.673758    2.199650
     3d     -0.240338    2.476089

           ------------------------------------------------- 
          |        Self-Consistent Charge Iterations        |
           ------------------------------------------------- 

          ...................................................
          :                      SETUP                      :
          :.................................................:
          :  # basis functions                 418          :
          :  # atomic orbitals                 409          :
          :  # shells                          211          :
          :  # electrons                       400          :
          :  max. iterations                   250          :
          :  Hamiltonian                  GFN2-xTB          :
          :  restarted?                      false          :
          :  GBSA solvation                  false          :
          :  PC potential                    false          :
          :  electronic temp.          300.0000000     K    :
          :  accuracy                    1.0000000          :
          :  -> integral cutoff          0.2500000E+02      :
          :  -> integral neglect         0.1000000E-07      :
          :  -> SCF convergence          0.1000000E-05 Eh   :
          :  -> wf. convergence          0.1000000E-03 e    :
          :  Broyden damping             0.4000000          :
          ...................................................

 iter      E             dE          RMSdq      gap      omega  full diag
   1   -223.8836946 -0.223884E+03  0.462E+00    1.05       0.0  T
   2   -223.9982708 -0.114576E+00  0.290E+00    0.98       1.0  T
   3   -223.7478063  0.250464E+00  0.204E+00    0.79       1.0  T
   4   -224.1268396 -0.379033E+00  0.758E-01    1.01       1.0  T
   5   -224.1910091 -0.641695E-01  0.240E-01    0.91       1.0  T
   6   -224.1948828 -0.387365E-02  0.128E-01    0.96       1.0  T
   7   -224.1961728 -0.129005E-02  0.689E-02    0.94       1.0  T
   8   -224.1965326 -0.359813E-03  0.326E-02    0.94       1.0  T
   9   -224.1965608 -0.281942E-04  0.247E-02    0.94       1.0  T
  10   -224.1965800 -0.192090E-04  0.180E-02    0.94       1.0  T
  11   -224.1965926 -0.125807E-04  0.122E-02    0.94       1.0  T
  12   -224.1965989 -0.628699E-05  0.754E-03    0.94       1.2  T
  13   -224.1966026 -0.373368E-05  0.373E-03    0.94       2.4  T
  14   -224.1966039 -0.123921E-05  0.143E-03    0.94       6.4  T
  15   -224.1966040 -0.854565E-07  0.805E-04    0.94      11.3  T
  16   -224.1966040 -0.355020E-07  0.465E-04    0.94      19.6  T

   *** convergence criteria satisfied after 16 iterations ***

         #    Occupation            Energy/Eh            Energy/eV
      -------------------------------------------------------------
         1        2.0000           -1.0725329             -29.1851
       ...           ...                  ...                  ...
       194        2.0000           -0.4118728             -11.2076
       195        2.0000           -0.4111203             -11.1872
       196        2.0000           -0.4090632             -11.1312
       197        2.0000           -0.4070292             -11.0758
       198        2.0000           -0.4043281             -11.0023
       199        2.0000           -0.3882443             -10.5647
       200        2.0000           -0.3756784             -10.2227 (HOMO)
       201                         -0.3410209              -9.2797 (LUMO)
       202                         -0.3345710              -9.1041
       203                         -0.3290742              -8.9546
       204                         -0.3232633              -8.7964
       205                         -0.3214472              -8.7470
       ...                                ...                  ...
       409                          1.0725009              29.1842
      -------------------------------------------------------------
                  HL-Gap            0.0346575 Eh            0.9431 eV
             Fermi-level           -0.3583502 Eh           -9.7512 eV

 SCC (total)                   0 d,  0 h,  0 min,  0.959 sec
 SCC setup                      ...        0 min,  0.003 sec (  0.357%)
 Dispersion                     ...        0 min,  0.006 sec (  0.658%)
 integral evaluation            ...        0 min,  0.275 sec ( 28.726%)
 zeroth order Hamiltonian       ...        0 min,  0.002 sec (  0.181%)
 iterations                     ...        0 min,  0.460 sec ( 48.028%)
 molecular gradient             ...        0 min,  0.208 sec ( 21.690%)
 printout                       ...        0 min,  0.003 sec (  0.355%)

         :::::::::::::::::::::::::::::::::::::::::::::::::::::
         ::                     SUMMARY                     ::
         :::::::::::::::::::::::::::::::::::::::::::::::::::::
         :: total energy            -221.267490166397 Eh    ::
         :: gradient norm              0.114533883197 Eh/a0 ::
         :: HOMO-LUMO gap              0.943077329974 eV    ::
         ::.................................................::
         :: SCC energy              -224.196603994356 Eh    ::
         :: -> isotropic ES            0.149066745699 Eh    ::
         :: -> anisotropic ES          0.009617233246 Eh    ::
         :: -> anisotropic XC          0.134596674818 Eh    ::
         :: -> dispersion             -0.192299026451 Eh    ::
         :: repulsion energy           2.928788235734 Eh    ::
         :: add. restraining           0.000000000000 Eh    ::
         :::::::::::::::::::::::::::::::::::::::::::::::::::::

           -------------------------------------------------
          |                Property Printout                |
           -------------------------------------------------

    * Orbital Energies and Occupations

         #    Occupation            Energy/Eh            Energy/eV
      -------------------------------------------------------------
         1        2.0000           -1.0725329             -29.1851
       ...           ...                  ...                  ...
       188        2.0000           -0.4215348             -11.4705
       189        2.0000           -0.4203698             -11.4388
       190        2.0000           -0.4181359             -11.3781
       191        2.0000           -0.4172231             -11.3532
       192        2.0000           -0.4148443             -11.2885
       193        2.0000           -0.4128999             -11.2356
       194        2.0000           -0.4118728             -11.2076
       195        2.0000           -0.4111203             -11.1872
       196        2.0000           -0.4090632             -11.1312
       197        2.0000           -0.4070292             -11.0758
       198        2.0000           -0.4043281             -11.0023
       199        2.0000           -0.3882443             -10.5647
       200        2.0000           -0.3756784             -10.2227 (HOMO)
       201                         -0.3410209              -9.2797 (LUMO)
       202                         -0.3345710              -9.1041
       203                         -0.3290742              -8.9546
       204                         -0.3232633              -8.7964
       205                         -0.3214472              -8.7470
       206                         -0.2940014              -8.0002
       207                         -0.2873164              -7.8183
       208                         -0.2726692              -7.4197
       209                         -0.2668095              -7.2603
       210                         -0.2529496              -6.8831
       211                         -0.2510589              -6.8317
       ...                                ...                  ...
       409                          1.0725009              29.1842
      -------------------------------------------------------------
                  HL-Gap            0.0346575 Eh            0.9431 eV
             Fermi-level           -0.3583502 Eh           -9.7512 eV

     #   Z        covCN         q      C6AA      α(0)
     1   6 C      2.859     0.226    23.265     7.906
     2   8 O      0.856    -0.377    21.229     6.177
     3   6 C      3.026    -0.017    28.414     8.744
     4   6 C      2.940    -0.026    28.646     8.778
     5   6 C      2.906     0.090    25.999     8.361
     6   6 C      2.902     0.092    25.958     8.354
     7   6 C      2.945    -0.039    28.969     8.827
     8   6 C      3.010     0.007    27.851     8.657
     9   6 C      3.002     0.030    27.321     8.574
    10   6 C      2.943     0.007    27.854     8.656
    11   6 C      1.915     0.119    28.177     8.573
    12   7 N      0.911    -0.233    26.107     7.390
    13   6 C      1.917     0.119    28.169     8.571
    14   7 N      0.911    -0.229    26.015     7.377
    15   6 C      2.984    -0.039    28.951     8.826
    16  17 Cl     0.972    -0.119   102.867    15.517
    17   6 C      2.946    -0.014    28.360     8.734
    18  17 Cl     0.968    -0.122   102.953    15.523
    19   6 C      2.866     0.225    23.279     7.909
    20   8 O      0.856    -0.357    20.841     6.121
    21   6 C      3.020    -0.017    28.412     8.743
    22   6 C      2.938    -0.025    28.633     8.776
    23   6 C      2.904     0.090    25.998     8.360
    24   6 C      2.902     0.092    25.957     8.354
    25   6 C      2.945    -0.039    28.960     8.826
    26   6 C      3.016     0.007    27.846     8.656
    27   6 C      3.000     0.033    27.258     8.564
    28   6 C      2.944     0.004    27.934     8.668
    29   6 C      1.913     0.120    28.157     8.570
    30   7 N      0.911    -0.239    26.250     7.410
    31   6 C      1.912     0.116    28.240     8.582
    32   7 N      0.911    -0.233    26.115     7.391
    33   6 C      2.987    -0.038    28.947     8.826
    34  17 Cl     0.972    -0.119   102.862    15.516
    35   6 C      2.950    -0.013    28.343     8.732
    36  17 Cl     0.966    -0.120   102.910    15.520
    37   6 C      2.972     0.021    27.524     8.606
    38  16 S      2.247     0.013   140.516    19.951
    39   6 C      3.052     0.026    27.368     8.580
    40   6 C      3.175    -0.006    27.774     8.607
    41   6 C      3.036    -0.030    28.700     8.787
    42   6 C      3.048     0.009    27.774     8.643
    43   6 C      3.181    -0.009    27.812     8.609
    44   6 C      3.922     0.019    20.194     6.387
    45  16 S      2.231     0.009   140.702    19.964
    46   6 C      2.975     0.029    27.359     8.580
    47   6 C      3.039    -0.047    29.128     8.852
    48   6 C      2.970    -0.025    28.627     8.776
    49   6 C      2.860     0.120    25.358     8.254
    50   6 C      2.868     0.113    25.510     8.279
    51   6 C      2.969    -0.026    28.646     8.779
    52   6 C      3.308     0.064    24.739     7.946
    53   6 C      3.306     0.064    24.761     7.954
    54   7 N      1.843    -0.258    27.551     7.779
    55  16 S      2.625     0.317   128.800    19.101
    56   7 N      1.843    -0.256    27.523     7.775
    57   6 C      2.976     0.026    27.410     8.588
    58  16 S      2.223     0.007   140.779    19.970
    59   6 C      3.050     0.008    27.785     8.645
    60   6 C      3.178    -0.007    27.768     8.604
    61   6 C      3.038    -0.048    29.149     8.855
    62   6 C      3.044     0.026    27.371     8.581
    63   6 C      3.195    -0.010    27.743     8.588
    64   6 C      3.924     0.018    20.206     6.388
    65  16 S      2.246     0.003   140.915    19.979
    66   6 C      2.976     0.024    27.456     8.595
    67   6 C      3.025    -0.042    29.005     8.834
    68   8 O      1.716    -0.277    18.591     5.822
    69   8 O      1.715    -0.283    18.694     5.838
    70   6 C      3.684     0.076    19.508     6.324
    71   6 C      3.745    -0.109    22.656     6.790
    72   6 C      3.692     0.090    19.257     6.279
    73   6 C      3.746    -0.110    22.665     6.791
    74   6 C      3.798    -0.052    21.508     6.603
    75   6 C      3.745    -0.097    22.416     6.754
    76   6 C      3.799    -0.049    21.453     6.595
    77   6 C      3.745    -0.100    22.489     6.765
    78   6 C      3.797    -0.049    21.457     6.596
    79   6 C      3.745    -0.102    22.527     6.770
    80   6 C      3.799    -0.048    21.428     6.591
    81   6 C      3.745    -0.099    22.457     6.760
    82   1 H      0.924     0.091     1.874     2.141
    83   1 H      0.925     0.088     1.895     2.153
    84   1 H      0.925     0.070     2.083     2.257
    85   1 H      0.924     0.092     1.864     2.135
    86   1 H      0.925     0.087     1.907     2.159
    87   1 H      0.923     0.084     1.935     2.175
    88   1 H      0.925     0.047     2.361     2.403
    89   1 H      0.925     0.065     2.137     2.286
    90   1 H      0.925     0.069     2.098     2.265
    91   1 H      0.925     0.101     1.779     2.086
    92   1 H      0.923     0.057     2.231     2.336
    93   1 H      0.923     0.061     2.183     2.311
    94   1 H      0.923     0.039     2.459     2.453
    95   1 H      0.923     0.051     2.310     2.377
    96   1 H      0.923     0.054     2.275     2.359
    97   1 H      0.923     0.030     2.592     2.518
    98   1 H      0.923     0.041     2.439     2.442
    99   1 H      0.923     0.061     2.185     2.312
   100   1 H      0.923     0.052     2.301     2.372
   101   1 H      0.923     0.057     2.232     2.337
   102   1 H      0.923     0.046     2.369     2.407
   103   1 H      0.923     0.045     2.385     2.415
   104   1 H      0.923     0.033     2.546     2.495
   105   1 H      0.923     0.040     2.446     2.446
   106   1 H      0.923     0.033     2.539     2.492
   107   1 H      0.923     0.035     2.523     2.484
   108   1 H      0.923     0.046     2.377     2.411
   109   1 H      0.923     0.040     2.453     2.449
   110   1 H      0.923     0.040     2.444     2.445
   111   1 H      0.923     0.039     2.457     2.451
   112   1 H      0.923     0.042     2.420     2.433
   113   1 H      0.923     0.039     2.462     2.454
   114   1 H      0.923     0.053     2.283     2.363
   115   1 H      0.923     0.040     2.443     2.444
   116   1 H      0.923     0.032     2.556     2.500
   117   1 H      0.923     0.034     2.535     2.490
   118   1 H      0.923     0.042     2.426     2.436
   119   1 H      0.923     0.036     2.498     2.472
   120   1 H      0.923     0.041     2.440     2.443
   121   1 H      0.923     0.040     2.446     2.446

 Mol. C6AA /au·bohr⁶  :     275005.842532
 Mol. C8AA /au·bohr⁸  :    7881350.551927
 Mol. α(0) /au        :        829.032930


Wiberg/Mayer (AO) data.
largest (>0.10) Wiberg bond orders for each atom
          total WBO             WBO to atom ...
     1  C   3.920        O    2 1.742    C   15 1.050    C    3 1.017
     2  O   2.042        C    1 1.742
     3  C   3.977        C    4 1.416    C    8 1.299    C    1 1.017
     4  C   3.975        C    3 1.416    C    5 1.389    H   82 0.959
     5  C   3.896        C    4 1.389    C    6 1.343    Cl  18 1.008
     6  C   3.919        C    7 1.394    C    5 1.343    Cl  16 1.011
     7  C   3.969        C    8 1.399    C    6 1.394    H   83 0.953
     8  C   3.980        C    7 1.399    C    3 1.299    C    9 1.073
     9  C   3.965        C   10 1.485    C   15 1.146    C    8 1.073
    10  C   3.921        C    9 1.485    C   11 1.096    C   13 1.093
    11  C   3.941        N   12 2.757    C   10 1.096
    12  N   2.965        C   11 2.757
    13  C   3.941        N   14 2.768    C   10 1.093
    14  N   2.968        C   13 2.768
    15  C   3.947        C   17 1.484    C    9 1.146    C    1 1.050
    16  Cl  1.158        C    6 1.011
    17  C   3.945        C   15 1.484    C   66 1.308    H   84 0.942
    18  Cl  1.155        C    5 1.008
    19  C   3.920        O   20 1.780    C   33 1.015    C   21 1.012
    20  O   2.048        C   19 1.780
    21  C   3.974        C   22 1.420    C   26 1.296    C   19 1.012
    22  C   3.976        C   21 1.420    C   23 1.386    H   85 0.959
    23  C   3.898        C   22 1.386    C   24 1.346    Cl  36 1.009
    24  C   3.920        C   25 1.391    C   23 1.346    Cl  34 1.011
    25  C   3.970        C   26 1.405    C   24 1.391    H   86 0.955
    26  C   3.981        C   25 1.405    C   21 1.296    C   27 1.065
    27  C   3.967        C   28 1.461    C   33 1.170    C   26 1.065
    28  C   3.931        C   27 1.461    C   29 1.105    C   31 1.098
    29  C   3.943        N   30 2.757    C   28 1.105
    30  N   2.978        C   29 2.757
    31  C   3.942        N   32 2.766    C   28 1.098
    32  N   2.964        C   31 2.766
    33  C   3.948        C   35 1.489    C   27 1.170    C   19 1.015
    34  Cl  1.158        C   24 1.011
    35  C   3.943        C   33 1.489    C   37 1.299    H   87 0.947
    36  Cl  1.154        C   23 1.009
    37  C   3.912        C   41 1.359    C   35 1.299    S   38 1.084
    38  S   2.592        C   39 1.200    C   37 1.084
    39  C   3.922        C   40 1.322    C   42 1.205    S   38 1.200
    40  C   3.956        C   41 1.422    C   39 1.322    C   44 0.981
    41  C   3.969        C   40 1.422    C   37 1.359    H   88 0.957
    42  C   3.931        C   43 1.363    C   39 1.205    S   45 1.162
    43  C   3.941        C   47 1.364    C   42 1.363    C   44 0.979
    44  C   3.985        C   40 0.981    C   43 0.979    C   78 0.968    C   80 0.949
    45  S   2.650        C   42 1.162    C   46 1.125
    46  C   3.895        C   47 1.439    C   48 1.161    S   45 1.125
    47  C   3.953        C   46 1.439    C   43 1.364    H   89 0.956
    48  C   3.934        C   49 1.386    C   46 1.161    C   53 1.161
    49  C   3.921        C   48 1.386    C   50 1.236    O   68 1.052
    50  C   3.919        C   51 1.395    C   49 1.236    O   69 1.036
    51  C   3.935        C   50 1.395    C   57 1.164    C   52 1.156
    52  C   3.967        N   54 1.443    C   51 1.156    C   53 1.148    S   55 0.103
    53  C   3.967        N   56 1.441    C   48 1.161    C   52 1.148    S   55 0.100
    54  N   3.078        C   52 1.443    S   55 1.378    N   56 0.153
    55  S   3.092        N   56 1.380    N   54 1.378    C   52 0.103    C   53 0.100
    56  N   3.078        C   53 1.441    S   55 1.380    N   54 0.153
    57  C   3.895        C   61 1.437    C   51 1.164    S   58 1.124
    58  S   2.642        C   59 1.161    C   57 1.124
    59  C   3.930        C   60 1.361    C   62 1.205    S   58 1.161
    60  C   3.942        C   61 1.366    C   59 1.361    C   64 0.984
    61  C   3.955        C   57 1.437    C   60 1.366    H   90 0.952
    62  C   3.924        C   63 1.316    S   65 1.206    C   59 1.205
    63  C   3.954        C   67 1.430    C   62 1.316    C   64 0.982
    64  C   3.986        C   60 0.984    C   63 0.982    C   74 0.962    C   76 0.952
    65  S   2.593        C   62 1.206    C   66 1.074
    66  C   3.908        C   67 1.357    C   17 1.308    S   65 1.074
    67  C   3.953        C   63 1.430    C   66 1.357    H   91 0.937
    68  O   2.200        C   49 1.052    C   70 0.919
    69  O   2.173        C   50 1.036    C   72 0.920
    70  C   3.924        C   71 1.020    H   93 0.971    H   92 0.967    O   68 0.919
    71  C   3.992        C   70 1.020    H   94 0.984    H   96 0.983    H   95 0.982
    72  C   3.929        C   73 1.022    H   97 0.972    H   98 0.971    O   69 0.920
    73  C   3.990        C   72 1.022    H  101 0.984    H   99 0.983    H  100 0.981
    74  C   3.993        C   75 1.021    H  103 0.973    H  102 0.971    C   64 0.962
    75  C   3.996        C   74 1.021    H  104 0.987    H  106 0.986    H  105 0.986
    76  C   3.992        C   77 1.020    H  107 0.977    H  108 0.973    C   64 0.952
    77  C   3.994        C   76 1.020    H  109 0.985    H  111 0.984    H  110 0.984
    78  C   3.993        C   79 1.021    H  113 0.973    H  112 0.972    C   44 0.968
    79  C   3.993        C   78 1.021    H  116 0.986    H  115 0.985    H  114 0.982
    80  C   3.992        C   81 1.020    H  117 0.977    H  118 0.974    C   44 0.949
    81  C   3.993        C   80 1.020    H  121 0.985    H  119 0.984    H  120 0.984
    82  H   0.991        C    4 0.959
    83  H   0.992        C    7 0.953
    84  H   0.994        C   17 0.942
    85  H   0.991        C   22 0.959
    86  H   0.992        C   25 0.955
    87  H   0.991        C   35 0.947
    88  H   0.997        C   41 0.957
    89  H   0.995        C   47 0.956
    90  H   0.995        C   61 0.952
    91  H   0.989        C   67 0.937
    92  H   0.996        C   70 0.967
    93  H   0.995        C   70 0.971
    94  H   0.998        C   71 0.984
    95  H   0.997        C   71 0.982
    96  H   0.997        C   71 0.983
    97  H   0.998        C   72 0.972
    98  H   0.998        C   72 0.971
    99  H   0.996        C   73 0.983
   100  H   0.996        C   73 0.981
   101  H   0.997        C   73 0.984
   102  H   0.997        C   74 0.971
   103  H   0.997        C   74 0.973
   104  H   0.999        C   75 0.987
   105  H   0.998        C   75 0.986
   106  H   0.999        C   75 0.986
   107  H   0.999        C   76 0.977
   108  H   0.997        C   76 0.973
   109  H   0.998        C   77 0.985
   110  H   0.997        C   77 0.984
   111  H   0.998        C   77 0.984
   112  H   0.997        C   78 0.972
   113  H   0.997        C   78 0.973
   114  H   0.997        C   79 0.982
   115  H   0.998        C   79 0.985
   116  H   0.999        C   79 0.986
   117  H   0.999        C   80 0.977
   118  H   0.997        C   80 0.974
   119  H   0.999        C   81 0.984
   120  H   0.997        C   81 0.984
   121  H   0.998        C   81 0.985

molecular dipole:
                 x           y           z       tot (Debye)
 q only:       -0.039       2.499       0.292
   full:        0.126       3.149       0.369       8.065
molecular quadrupole (traceless):
                xx          xy          yy          xz          yz          zz
 q only:      -38.520      53.602     130.674    -177.099      31.306     -92.154
  q+dip:      -59.608      62.953      83.130    -115.634      31.872     -23.522
   full:      -57.896      51.425      87.893    -122.958      37.703     -29.997


           -------------------------------------------------
          | TOTAL ENERGY             -221.267490166397 Eh   |
          | GRADIENT NORM               0.114533883197 Eh/α |
          | HOMO-LUMO GAP               0.943077329974 eV   |
           -------------------------------------------------

------------------------------------------------------------------------
 * finished run on 2021/04/12 at 13:52:54.630     
------------------------------------------------------------------------
 total:
 * wall-time:     0 d,  0 h,  0 min,  1.246 sec
 *  cpu-time:     0 d,  0 h,  0 min,  1.242 sec
 * ratio c/w:     0.997 speedup
 SCF:
 * wall-time:     0 d,  0 h,  0 min,  0.960 sec
 *  cpu-time:     0 d,  0 h,  0 min,  0.957 sec
 * ratio c/w:     0.998 speedup

