      -----------------------------------------------------------      
     |                   =====================                   |     
     |                           x T B                           |     
     |                   =====================                   |     
     |                         S. Grimme                         |     
     |          Mulliken Center for Theoretical Chemistry        |     
     |                    University of Bonn                     |     
     |                Version 6.2 RC2 (SAW190805)                |     
      -----------------------------------------------------------      

   This program is distributed in the hope that it will be useful,
   but WITHOUT ANY WARRANTY; without even the implied warranty of
   MERCHANTABILITY or FITNESS FOR A PARTICULAR PURPOSE.
   
   FOR NON-COMMERCIAL, ACADEMIA USE ONLY.
   
   Cite this work as:
   * S. Grimme, C. Bannwarth, P. Shushkov, J. Chem. Theory Comput., 2017,
     13, 1989-2009. DOI: 10.1021/acs.jctc.7b00118
   * C. Bannwarth, S. Ehlert and S. Grimme., J. Chem. Theory Comput., 2019,
     15, 1652-1671. DOI: 10.1021/acs.jctc.8b01176
   * P. Pracht, E. Caldeweyher, S. Ehlert, S. Grimme, ChemRxiv, 2019, preprint.
     DOI: 10.26434/chemrxiv.8326202.v1
   
   for DFT-D4:
   * E. Caldeweyher, C. Bannwarth and S. Grimme, J. Chem. Phys., 2017,
     147, 034112. DOI: 10.1063/1.4993215
   * E. Caldeweyher, S. Ehlert, A. Hansen, H. Neugebauer, S. Spicher,
     C. Bannwarth and S. Grimme, J. Chem. Phys., 2019, 150, 154122.
     DOI: 10.1063/1.5090222
   
   for sTDA-xTB:
   * S. Grimme and C. Bannwarth, J. Chem. Phys., 2016, 145, 054103.
     DOI: 10.1063/1.4959605
   
   in the mass-spec context:
   * V. Asgeirsson, C. Bauer and S. Grimme, Chem. Sci., 2017, 8, 4879.
     DOI: 10.1039/c7sc00601b
   
   for metadynamics refer to:
   * S. Grimme, J. Chem. Theory Comput., 2019, 155, 2847-2862
     DOI: 10.1021/acs.jctc.9b00143
   
   with help from (in alphabetical order)
   C. Bannwarth, F. Bohle, G. Brandenburg, E. Caldeweyher, M. Checinski,
   S. Dohm, S. Ehlert, S. Ehrlich, F. März, H. Neugebauer, J. Pisarek,
   P. Pracht, P. Shushkov, and S. Spicher.
   
 * started run on 2020/11/20 at 13:44:45.440     

           -------------------------------------------------
          |                Calculation Setup                |
           -------------------------------------------------

          program call               : /ihome/ghutchison/geoffh/xtb/xtb BDTN-BF.xyz -sp
          hostname                   : smp-n82
          coordinate file            : BDTN-BF.xyz
          omp threads                :                     1
          number of atoms            :                   122
          number of electrons        :                   390
          charge                     :                     0
          spin                       :                   0.0
          first test random number   :      0.13234578038072


########################################################################
# WARNING! Please study the warnings concerning your input carefully
#  - XTBPATH is not set, using XTBHOME instead
#  - the use of '-sp' is discouraged, please use '--sp' next time
########################################################################

           ------------------------------------------------- 
          |                 G F N 2 - x T B                 |
          | Geometry, Frequencies, Noncovalent interactions |
          |            JCTC 2019 parametrisation            |
           ------------------------------------------------- 
             KAB for C  - Si     :                1.0500
             KAB for H  - Pd     :                0.9500
             k(s)              :                1.8500
             k(p)              :                2.2300
             k(d)              :                2.2300
             k(f)              :                2.0000
             kEN (H0ij)        :               -2.0000
             D4 a1             :                0.5200
             D4 a2             :                5.0000
             D4 s6             :                1.0000
             D4 s8             :                2.7000
             D4 s9             :                5.0000
             alphaj            :                2.0000

  Z AO/shell   Hii/eV     exponent
  1     Wed Apr 25 08:07:45 CEST 2018   EN: 2.200 GM2: 0.406  GM3: 0.0800  RAES: 1.40
     1s    -10.707211    1.230000
  6     Wed Apr 25 08:07:45 CEST 2018   EN: 2.550 GM2: 0.538  GM3: 0.1500  RAES: 3.00
     2s    -13.970922    2.096432
     2p    -10.063292    1.800000
  7     Wed Apr 25 08:07:45 CEST 2018   EN: 3.040 GM2: 0.461  GM3:-0.0640  RAES: 1.90
     2s    -16.686243    2.339881
     2p    -12.523956    2.014332
  8     Wed Apr 25 08:07:45 CEST 2018   EN: 3.440 GM2: 0.452  GM3:-0.0517  RAES: 1.80
     2s    -20.229985    2.439742
     2p    -15.503117    2.137023
  9     Mon Apr 23 13:58:50 CEST 2018   EN: 3.980 GM2: 0.532  GM3: 0.1426  RAES: 2.40
     2s    -23.458179    2.416361
     2p    -15.746583    2.308399
 16     Tue Apr 24 11:44:34 CEST 2018   EN: 2.580 GM2: 0.340  GM3:-0.0502  RAES: 3.10
     3s    -20.029654    1.981333
     3p    -11.377694    2.025643
     3d     -0.420282    1.702555

           ------------------------------------------------- 
          |        Self-Consistent Charge Iterations        |
           ------------------------------------------------- 

          ...................................................
          :                      SETUP                      :
          :.................................................:
          :  # basis functions                 380          :
          :  # atomic orbitals                 376          :
          :  # shells                          204          :
          :  # electrons                       390          :
          :  max. iterations                   250          :
          :  Hamiltonian                  GFN2-xTB          :
          :  restarted?                      false          :
          :  GBSA solvation                  false          :
          :  PC potential                    false          :
          :  electronic temp.          300.0000000     K    :
          :  accuracy                    1.0000000          :
          :  -> integral cutoff          0.2500000E+02      :
          :  -> integral neglect         0.1000000E-07      :
          :  -> SCF convergence          0.1000000E-05 Eh   :
          :  -> wf. convergence          0.1000000E-03 e    :
          :  Broyden damping             0.4000000          :
          ...................................................

 iter      E             dE          RMSdq      gap      omega  full diag
   1   -219.0398774 -0.219040E+03  0.486E+00    1.27       0.0  T
   2   -219.1983000 -0.158423E+00  0.303E+00    1.21       1.0  T
   3   -218.9762881  0.222012E+00  0.217E+00    0.66       1.0  T
   4   -219.3526605 -0.376372E+00  0.811E-01    1.07       1.0  T
   5   -219.4202821 -0.676216E-01  0.255E-01    0.83       1.0  T
   6   -219.4245332 -0.425103E-02  0.122E-01    0.95       1.0  T
   7   -219.4255811 -0.104789E-02  0.607E-02    0.91       1.0  T
   8   -219.4259368 -0.355708E-03  0.214E-02    0.92       1.0  T
   9   -219.4259614 -0.246757E-04  0.123E-02    0.92       1.0  T
  10   -219.4259733 -0.118992E-04  0.528E-03    0.92       1.7  T
  11   -219.4259738 -0.420409E-06  0.301E-03    0.92       3.0  T
  12   -219.4259748 -0.999179E-06  0.119E-03    0.92       7.6  T
  13   -219.4259748 -0.856177E-07  0.654E-04    0.92      13.8  T
  14   -219.4259749 -0.158909E-07  0.316E-04    0.92      28.6  T

   *** convergence criteria satisfied after 14 iterations ***

         #    Occupation            Energy/Eh            Energy/eV
      -------------------------------------------------------------
         1        2.0000           -0.8498433             -23.1254
       ...           ...                  ...                  ...
       189        2.0000           -0.4149246             -11.2907
       190        2.0000           -0.4144126             -11.2767
       191        2.0000           -0.4097945             -11.1511
       192        2.0000           -0.4000299             -10.8854
       193        2.0000           -0.3921562             -10.6711
       194        2.0000           -0.3899486             -10.6110
       195        2.0000           -0.3763639             -10.2414 (HOMO)
       196                         -0.3426197              -9.3232 (LUMO)
       197                         -0.3386283              -9.2145
       198                         -0.3295982              -8.9688
       199                         -0.3265621              -8.8862
       200                         -0.2922127              -7.9515
       ...                                ...                  ...
       376                          1.0670431              29.0357
      -------------------------------------------------------------
                  HL-Gap            0.0337442 Eh            0.9182 eV
             Fermi-level           -0.3594989 Eh           -9.7825 eV

 SCC (total)                   0 d,  0 h,  0 min,  0.871 sec
 SCC setup                      ...        0 min,  0.003 sec (  0.376%)
 Dispersion                     ...        0 min,  0.007 sec (  0.787%)
 integral evaluation            ...        0 min,  0.253 sec ( 29.024%)
 zeroth order Hamiltonian       ...        0 min,  0.002 sec (  0.193%)
 iterations                     ...        0 min,  0.374 sec ( 42.951%)
 molecular gradient             ...        0 min,  0.229 sec ( 26.323%)
 printout                       ...        0 min,  0.003 sec (  0.341%)

         :::::::::::::::::::::::::::::::::::::::::::::::::::::
         ::                     SUMMARY                     ::
         :::::::::::::::::::::::::::::::::::::::::::::::::::::
         :: total energy            -216.527741178821 Eh    ::
         :: gradient norm              0.110717908302 Eh/a0 ::
         :: HOMO-LUMO gap              0.918226232277 eV    ::
         ::.................................................::
         :: SCC energy              -219.425974855674 Eh    ::
         :: -> isotropic ES            0.163987173408 Eh    ::
         :: -> anisotropic ES          0.019906361394 Eh    ::
         :: -> anisotropic XC          0.108313383667 Eh    ::
         :: -> dispersion             -0.182548874764 Eh    ::
         :: repulsion energy           2.896848070712 Eh    ::
         :: add. restraining           0.000000000000 Eh    ::
         :::::::::::::::::::::::::::::::::::::::::::::::::::::

           -------------------------------------------------
          |                Property Printout                |
           -------------------------------------------------

    * Orbital Energies and Occupations

         #    Occupation            Energy/Eh            Energy/eV
      -------------------------------------------------------------
         1        2.0000           -0.8498433             -23.1254
       ...           ...                  ...                  ...
       183        2.0000           -0.4340148             -11.8101
       184        2.0000           -0.4325506             -11.7703
       185        2.0000           -0.4318949             -11.7525
       186        2.0000           -0.4278318             -11.6419
       187        2.0000           -0.4245045             -11.5514
       188        2.0000           -0.4242655             -11.5449
       189        2.0000           -0.4149246             -11.2907
       190        2.0000           -0.4144126             -11.2767
       191        2.0000           -0.4097945             -11.1511
       192        2.0000           -0.4000299             -10.8854
       193        2.0000           -0.3921562             -10.6711
       194        2.0000           -0.3899486             -10.6110
       195        2.0000           -0.3763639             -10.2414 (HOMO)
       196                         -0.3426197              -9.3232 (LUMO)
       197                         -0.3386283              -9.2145
       198                         -0.3295982              -8.9688
       199                         -0.3265621              -8.8862
       200                         -0.2922127              -7.9515
       201                         -0.2820106              -7.6739
       202                         -0.2740876              -7.4583
       203                         -0.2676704              -7.2837
       204                         -0.2543766              -6.9219
       205                         -0.2538444              -6.9075
       206                         -0.2485343              -6.7630
       ...                                ...                  ...
       376                          1.0670431              29.0357
      -------------------------------------------------------------
                  HL-Gap            0.0337442 Eh            0.9182 eV
             Fermi-level           -0.3594989 Eh           -9.7825 eV

     #   Z        covCN         q      C6AA      α(0)
     1   6 C      2.862     0.226    23.263     7.906
     2   8 O      0.867    -0.351    20.724     6.104
     3   6 C      3.027    -0.019    28.458     8.750
     4   6 C      2.906    -0.038    28.940     8.821
     5   6 C      2.778     0.161    24.512     8.109
     6   6 C      2.775     0.162    24.486     8.105
     7   6 C      2.908    -0.050    29.247     8.868
     8   6 C      3.014     0.005    27.896     8.664
     9   6 C      3.000     0.031    27.305     8.572
    10   6 C      2.943     0.008    27.831     8.652
    11   6 C      1.916     0.120    28.145     8.568
    12   7 N      0.911    -0.237    26.195     7.402
    13   6 C      1.917     0.119    28.181     8.573
    14   7 N      0.911    -0.225    25.926     7.364
    15   6 C      2.986    -0.037    28.915     8.821
    16   9 F      0.787    -0.181    11.039     3.925
    17   6 C      2.907    -0.012    28.310     8.725
    18   9 F      0.787    -0.182    11.049     3.926
    19   6 C      2.859     0.228    23.214     7.897
    20   8 O      0.856    -0.351    20.723     6.103
    21   6 C      3.025    -0.019    28.458     8.750
    22   6 C      2.905    -0.037    28.929     8.819
    23   6 C      2.777     0.160    24.519     8.110
    24   6 C      2.776     0.163    24.465     8.101
    25   6 C      2.906    -0.049    29.221     8.864
    26   6 C      3.018     0.007    27.843     8.655
    27   6 C      3.005     0.035    27.195     8.554
    28   6 C      2.944     0.014    27.702     8.632
    29   6 C      1.911     0.121    28.120     8.564
    30   7 N      0.911    -0.229    26.000     7.375
    31   6 C      1.910     0.118    28.196     8.576
    32   7 N      0.911    -0.224    25.902     7.361
    33   6 C      2.993    -0.033    28.813     8.805
    34   9 F      0.787    -0.180    11.030     3.923
    35   6 C      2.917    -0.010    28.273     8.719
    36   9 F      0.787    -0.182    11.047     3.926
    37   6 C      2.977     0.023    27.478     8.599
    38   6 C      3.017    -0.048    29.178     8.861
    39   6 C      3.211     0.040    26.490     8.378
    40   6 C      3.069    -0.007    28.115     8.694
    41  16 S      2.169     0.040   139.444    19.875
    42   7 N      2.783    -0.033    21.883     6.948
    43   6 C      3.148     0.038    26.891     8.483
    44   6 C      3.087    -0.002    27.981     8.671
    45   6 C      3.037    -0.031    28.739     8.793
    46   6 C      2.996    -0.002    28.071     8.691
    47  16 S      2.137    -0.032   142.379    20.083
    48   6 C      2.877     0.128    25.200     8.229
    49   6 C      2.990     0.000    28.018     8.683
    50   6 C      3.047    -0.030    28.710     8.788
    51   6 C      2.888     0.125    25.257     8.239
    52  16 S      2.135    -0.024   142.030    20.058
    53   6 C      3.080    -0.003    28.013     8.677
    54   6 C      3.167     0.038    26.801     8.460
    55   6 C      3.074     0.007    27.796     8.644
    56   6 C      3.233     0.036    26.377     8.337
    57   7 N      2.784    -0.028    21.777     6.931
    58  16 S      2.200    -0.034   142.441    20.087
    59   6 C      2.981     0.027    27.398     8.586
    60   6 C      3.015    -0.046    29.115     8.851
    61   8 O      1.700    -0.307    19.117     5.903
    62   8 O      1.701    -0.300    18.998     5.885
    63   6 C      3.688     0.085    19.352     6.297
    64   6 C      3.745    -0.114    22.745     6.803
    65   6 C      3.688     0.090    19.275     6.284
    66   6 C      3.746    -0.109    22.662     6.790
    67   6 C      3.738    -0.013    20.895     6.523
    68   6 C      3.845    -0.022    20.929     6.507
    69   6 C      3.797    -0.057    21.608     6.619
    70   6 C      3.745    -0.095    22.385     6.749
    71   6 C      3.799    -0.054    21.554     6.610
    72   6 C      3.745    -0.099    22.471     6.762
    73   6 C      3.737    -0.010    20.842     6.515
    74   6 C      3.845    -0.027    21.029     6.523
    75   6 C      3.797    -0.059    21.641     6.624
    76   6 C      3.745    -0.096    22.411     6.753
    77   6 C      3.801    -0.058    21.612     6.619
    78   6 C      3.745    -0.100    22.477     6.763
    79   1 H      0.924     0.093     1.848     2.126
    80   1 H      0.925     0.090     1.881     2.145
    81   1 H      0.924     0.070     2.084     2.257
    82   1 H      0.924     0.093     1.851     2.128
    83   1 H      0.925     0.090     1.877     2.142
    84   1 H      0.924     0.080     1.978     2.199
    85   1 H      0.925     0.057     2.234     2.337
    86   1 H      0.925     0.058     2.222     2.331
    87   1 H      0.923     0.058     2.222     2.331
    88   1 H      0.923     0.028     2.617     2.530
    89   1 H      0.923     0.061     2.193     2.316
    90   1 H      0.923     0.047     2.356     2.400
    91   1 H      0.923     0.047     2.363     2.404
    92   1 H      0.922     0.027     2.628     2.535
    93   1 H      0.923     0.033     2.543     2.494
    94   1 H      0.923     0.053     2.282     2.362
    95   1 H      0.923     0.051     2.305     2.374
    96   1 H      0.923     0.063     2.161     2.299
    97   1 H      0.923     0.047     2.352     2.398
    98   1 H      0.924     0.085     1.930     2.173
    99   1 H      0.922     0.037     2.486     2.466
   100   1 H      0.923     0.040     2.443     2.445
   101   1 H      0.923     0.041     2.436     2.441
   102   1 H      0.923     0.026     2.643     2.542
   103   1 H      0.923     0.035     2.524     2.484
   104   1 H      0.924     0.032     2.554     2.499
   105   1 H      0.923     0.029     2.595     2.519
   106   1 H      0.922     0.030     2.590     2.517
   107   1 H      0.923     0.036     2.505     2.475
   108   1 H      0.923     0.039     2.462     2.454
   109   1 H      0.923     0.038     2.479     2.462
   110   1 H      0.924     0.072     2.060     2.245
   111   1 H      0.923     0.054     2.269     2.356
   112   1 H      0.923     0.041     2.434     2.440
   113   1 H      0.923     0.045     2.385     2.415
   114   1 H      0.923     0.035     2.516     2.481
   115   1 H      0.923     0.031     2.579     2.512
   116   1 H      0.923     0.034     2.525     2.485
   117   1 H      0.923     0.027     2.633     2.537
   118   1 H      0.922     0.031     2.574     2.509
   119   1 H      0.922     0.036     2.499     2.472
   120   1 H      0.923     0.032     2.555     2.500
   121   1 H      0.923     0.041     2.434     2.440
   122   1 H      0.923     0.039     2.466     2.456

 Mol. C6AA /au·bohr⁶  :     229460.306558
 Mol. C8AA /au·bohr⁸  :    6116716.629938
 Mol. α(0) /au        :        751.198460


Wiberg/Mayer (AO) data.
largest (>0.10) Wiberg bond orders for each atom
          total WBO             WBO to atom ...
     1  C   3.924        O    2 1.747    C   15 1.051    C    3 1.016
     2  O   2.087        C    1 1.747
     3  C   3.975        C    4 1.407    C    8 1.314    C    1 1.016
     4  C   3.977        C    3 1.407    C    5 1.393    H   79 0.959
     5  C   3.865        C    4 1.393    C    6 1.317    F   18 0.994
     6  C   3.888        C    7 1.399    C    5 1.317    F   16 0.995
     7  C   3.971        C    6 1.399    C    8 1.390    H   80 0.955
     8  C   3.980        C    7 1.390    C    3 1.314    C    9 1.072
     9  C   3.969        C   10 1.487    C   15 1.147    C    8 1.072
    10  C   3.924        C    9 1.487    C   11 1.095    C   13 1.093
    11  C   3.941        N   12 2.758    C   10 1.095
    12  N   2.967        C   11 2.758
    13  C   3.942        N   14 2.770    C   10 1.093
    14  N   2.970        C   13 2.770
    15  C   3.951        C   17 1.494    C    9 1.147    C    1 1.051
    16  F   1.138        C    6 0.995
    17  C   3.945        C   15 1.494    C   37 1.300    H   81 0.938
    18  F   1.135        C    5 0.994
    19  C   3.924        O   20 1.788    C   33 1.010    C   21 1.005
    20  O   2.065        C   19 1.788
    21  C   3.972        C   22 1.408    C   26 1.309    C   19 1.005
    22  C   3.977        C   21 1.408    C   23 1.392    H   82 0.959
    23  C   3.881        C   22 1.392    C   24 1.318    F   36 0.994
    24  C   3.888        C   25 1.397    C   23 1.318    F   34 0.996
    25  C   3.972        C   24 1.397    C   26 1.393    H   83 0.956
    26  C   3.980        C   25 1.393    C   21 1.309    C   27 1.070
    27  C   3.974        C   28 1.494    C   33 1.135    C   26 1.070
    28  C   3.966        C   27 1.494    C   31 1.095    C   29 1.091
    29  C   3.944        N   30 2.778    C   28 1.091
    30  N   2.981        C   29 2.778
    31  C   3.943        N   32 2.774    C   28 1.095
    32  N   2.973        C   31 2.774
    33  C   3.949        C   35 1.539    C   27 1.135    C   19 1.010
    34  F   1.139        C   24 0.996
    35  C   3.948        C   33 1.539    C   59 1.254    H   84 0.946
    36  F   1.135        C   23 0.994
    37  C   3.931        C   38 1.370    C   17 1.300    S   41 1.090
    38  C   3.955        C   37 1.370    C   39 1.353    H   85 0.956    S   41 0.111
    39  C   3.938        C   38 1.353    C   40 1.234    N   42 1.147
    40  C   3.937        C   44 1.317    C   39 1.234    S   41 1.154
    41  S   2.635        C   40 1.154    C   37 1.090    C   38 0.111
    42  N   3.570        C   43 1.172    C   39 1.147    C   73 0.981
    43  C   3.902        C   44 1.311    C   45 1.176    N   42 1.172
    44  C   3.928        C   40 1.317    C   43 1.311    S   47 1.085
    45  C   3.958        C   48 1.289    C   46 1.242    C   43 1.176
    46  C   3.935        C   51 1.377    C   45 1.242    S   47 1.092
    47  S   2.477        C   46 1.092    C   44 1.085
    48  C   3.925        C   49 1.387    C   45 1.289    O   61 1.027
    49  C   3.936        C   48 1.387    C   50 1.235    S   52 1.089
    50  C   3.959        C   51 1.296    C   49 1.235    C   54 1.177
    51  C   3.926        C   46 1.377    C   50 1.296    O   62 1.027
    52  S   2.476        C   49 1.089    C   53 1.087
    53  C   3.928        C   55 1.321    C   54 1.305    S   52 1.087
    54  C   3.906        C   53 1.305    N   57 1.178    C   50 1.177
    55  C   3.933        C   53 1.321    C   56 1.249    S   58 1.132
    56  C   3.937        C   60 1.322    C   55 1.249    N   57 1.160
    57  N   3.581        C   54 1.178    C   56 1.160    C   67 0.977
    58  S   2.538        C   55 1.132    C   59 1.082
    59  C   3.926        C   60 1.421    C   35 1.254    S   58 1.082
    60  C   3.967        C   59 1.421    C   56 1.322    H   86 0.959
    61  O   2.122        C   48 1.027    C   63 0.930
    62  O   2.133        C   51 1.027    C   65 0.930
    63  C   3.935        C   64 1.017    H   87 0.966    H   88 0.964    O   61 0.930
    64  C   3.992        C   63 1.017    H   91 0.984    H   89 0.983    H   90 0.980
    65  C   3.936        C   66 1.021    H   93 0.971    H   92 0.968    O   62 0.930
    66  C   3.990        C   65 1.021    H   94 0.983    H   96 0.983    H   95 0.981
    67  C   3.955        C   68 0.980    N   57 0.977    H   97 0.963    H   98 0.956
    68  C   3.988        C   69 0.998    C   71 0.992    C   67 0.980    H   99 0.963
    69  C   3.995        C   70 1.020    C   68 0.998    H  101 0.975    H  100 0.971
    70  C   3.996        C   69 1.020    H  102 0.987    H  103 0.986    H  104 0.982
    71  C   3.995        C   72 1.021    C   68 0.992    H  106 0.976    H  105 0.975
    72  C   3.995        C   71 1.021    H  107 0.987    H  108 0.986    H  109 0.983
    73  C   3.958        N   42 0.981    C   74 0.976    H  111 0.967    H  110 0.962
    74  C   3.987        C   75 0.997    C   77 0.991    C   73 0.976    H  112 0.956
    75  C   3.994        C   76 1.020    C   74 0.997    H  114 0.969    H  113 0.967
    76  C   3.996        C   75 1.020    H  115 0.987    H  116 0.987    H  117 0.984
    77  C   3.994        C   78 1.021    C   74 0.991    H  119 0.976    H  118 0.973
    78  C   3.995        C   77 1.021    H  120 0.987    H  121 0.985    H  122 0.980
    79  H   0.991        C    4 0.959
    80  H   0.991        C    7 0.955
    81  H   0.994        C   17 0.938
    82  H   0.991        C   22 0.959
    83  H   0.991        C   25 0.956
    84  H   0.991        C   35 0.946
    85  H   0.996        C   38 0.956
    86  H   0.996        C   60 0.959
    87  H   0.996        C   63 0.966
    88  H   0.999        C   63 0.964
    89  H   0.996        C   64 0.983
    90  H   0.997        C   64 0.980
    91  H   0.998        C   64 0.984
    92  H   0.999        C   65 0.968
    93  H   0.999        C   65 0.971
    94  H   0.997        C   66 0.983
    95  H   0.996        C   66 0.981
    96  H   0.996        C   66 0.983
    97  H   0.996        C   67 0.963
    98  H   0.992        C   67 0.956
    99  H   0.998        C   68 0.963
   100  H   0.998        C   69 0.971
   101  H   0.998        C   69 0.975
   102  H   0.999        C   70 0.987
   103  H   0.998        C   70 0.986
   104  H   0.999        C   70 0.982
   105  H   0.999        C   71 0.975
   106  H   0.999        C   71 0.976
   107  H   0.999        C   72 0.987
   108  H   0.998        C   72 0.986
   109  H   0.999        C   72 0.983
   110  H   0.994        C   73 0.962
   111  H   0.996        C   73 0.967
   112  H   0.998        C   74 0.956
   113  H   0.997        C   75 0.967
   114  H   0.998        C   75 0.969
   115  H   0.999        C   76 0.987
   116  H   0.999        C   76 0.987
   117  H   0.999        C   76 0.984
   118  H   0.999        C   77 0.973
   119  H   0.999        C   77 0.976
   120  H   0.999        C   78 0.987
   121  H   0.998        C   78 0.985
   122  H   0.998        C   78 0.980

molecular dipole:
                 x           y           z       tot (Debye)
 q only:       -0.580      -0.599      -1.360
   full:       -0.996      -0.743      -1.197       4.386
molecular quadrupole (traceless):
                xx          xy          yy          xz          yz          zz
 q only:      -17.796     130.707     -78.368     -40.595      36.499      96.163
  q+dip:      -43.754     127.213     -58.218     -35.866      29.698     101.972
   full:      -48.346     127.504     -63.620     -41.714      31.887     111.966


           -------------------------------------------------
          | TOTAL ENERGY             -216.527741178821 Eh   |
          | GRADIENT NORM               0.110717908302 Eh/α |
          | HOMO-LUMO GAP               0.918226232277 eV   |
           -------------------------------------------------

------------------------------------------------------------------------
 * finished run on 2020/11/20 at 13:44:46.596     
------------------------------------------------------------------------
 total:
 * wall-time:     0 d,  0 h,  0 min,  1.155 sec
 *  cpu-time:     0 d,  0 h,  0 min,  1.143 sec
 * ratio c/w:     0.989 speedup
 SCF:
 * wall-time:     0 d,  0 h,  0 min,  0.872 sec
 *  cpu-time:     0 d,  0 h,  0 min,  0.872 sec
 * ratio c/w:     1.000 speedup

