      -----------------------------------------------------------      
     |                   =====================                   |     
     |                           x T B                           |     
     |                   =====================                   |     
     |                         S. Grimme                         |     
     |          Mulliken Center for Theoretical Chemistry        |     
     |                    University of Bonn                     |     
     |                Version 6.2 RC2 (SAW190805)                |     
      -----------------------------------------------------------      

   This program is distributed in the hope that it will be useful,
   but WITHOUT ANY WARRANTY; without even the implied warranty of
   MERCHANTABILITY or FITNESS FOR A PARTICULAR PURPOSE.
   
   FOR NON-COMMERCIAL, ACADEMIA USE ONLY.
   
   Cite this work as:
   * S. Grimme, C. Bannwarth, P. Shushkov, J. Chem. Theory Comput., 2017,
     13, 1989-2009. DOI: 10.1021/acs.jctc.7b00118
   * C. Bannwarth, S. Ehlert and S. Grimme., J. Chem. Theory Comput., 2019,
     15, 1652-1671. DOI: 10.1021/acs.jctc.8b01176
   * P. Pracht, E. Caldeweyher, S. Ehlert, S. Grimme, ChemRxiv, 2019, preprint.
     DOI: 10.26434/chemrxiv.8326202.v1
   
   for DFT-D4:
   * E. Caldeweyher, C. Bannwarth and S. Grimme, J. Chem. Phys., 2017,
     147, 034112. DOI: 10.1063/1.4993215
   * E. Caldeweyher, S. Ehlert, A. Hansen, H. Neugebauer, S. Spicher,
     C. Bannwarth and S. Grimme, J. Chem. Phys., 2019, 150, 154122.
     DOI: 10.1063/1.5090222
   
   for sTDA-xTB:
   * S. Grimme and C. Bannwarth, J. Chem. Phys., 2016, 145, 054103.
     DOI: 10.1063/1.4959605
   
   in the mass-spec context:
   * V. Asgeirsson, C. Bauer and S. Grimme, Chem. Sci., 2017, 8, 4879.
     DOI: 10.1039/c7sc00601b
   
   for metadynamics refer to:
   * S. Grimme, J. Chem. Theory Comput., 2019, 155, 2847-2862
     DOI: 10.1021/acs.jctc.9b00143
   
   with help from (in alphabetical order)
   C. Bannwarth, F. Bohle, G. Brandenburg, E. Caldeweyher, M. Checinski,
   S. Dohm, S. Ehlert, S. Ehrlich, F. März, H. Neugebauer, J. Pisarek,
   P. Pracht, P. Shushkov, and S. Spicher.
   
 * started run on 2021/04/12 at 13:53:00.947     

           -------------------------------------------------
          |                Calculation Setup                |
           -------------------------------------------------

          program call               : /ihome/ghutchison/geoffh/xtb/xtb BTA53.xyz -sp
          hostname                   : smp-n149
          coordinate file            : BTA53.xyz
          omp threads                :                     1
          number of atoms            :                   144
          number of electrons        :                   454
          charge                     :                     0
          spin                       :                   0.0
          first test random number   :      0.99391834460341


########################################################################
# WARNING! Please study the warnings concerning your input carefully
#  - XTBPATH is not set, using XTBHOME instead
#  - the use of '-sp' is discouraged, please use '--sp' next time
########################################################################

           ------------------------------------------------- 
          |                 G F N 2 - x T B                 |
          | Geometry, Frequencies, Noncovalent interactions |
          |            JCTC 2019 parametrisation            |
           ------------------------------------------------- 
             KAB for C  - Si     :                1.0500
             KAB for H  - Pd     :                0.9500
             k(s)              :                1.8500
             k(p)              :                2.2300
             k(d)              :                2.2300
             k(f)              :                2.0000
             kEN (H0ij)        :               -2.0000
             D4 a1             :                0.5200
             D4 a2             :                5.0000
             D4 s6             :                1.0000
             D4 s8             :                2.7000
             D4 s9             :                5.0000
             alphaj            :                2.0000

  Z AO/shell   Hii/eV     exponent
  1     Wed Apr 25 08:07:45 CEST 2018   EN: 2.200 GM2: 0.406  GM3: 0.0800  RAES: 1.40
     1s    -10.707211    1.230000
  6     Wed Apr 25 08:07:45 CEST 2018   EN: 2.550 GM2: 0.538  GM3: 0.1500  RAES: 3.00
     2s    -13.970922    2.096432
     2p    -10.063292    1.800000
  7     Wed Apr 25 08:07:45 CEST 2018   EN: 3.040 GM2: 0.461  GM3:-0.0640  RAES: 1.90
     2s    -16.686243    2.339881
     2p    -12.523956    2.014332
  8     Wed Apr 25 08:07:45 CEST 2018   EN: 3.440 GM2: 0.452  GM3:-0.0517  RAES: 1.80
     2s    -20.229985    2.439742
     2p    -15.503117    2.137023
 16     Tue Apr 24 11:44:34 CEST 2018   EN: 2.580 GM2: 0.340  GM3:-0.0502  RAES: 3.10
     3s    -20.029654    1.981333
     3p    -11.377694    2.025643
     3d     -0.420282    1.702555

           ------------------------------------------------- 
          |        Self-Consistent Charge Iterations        |
           ------------------------------------------------- 

          ...................................................
          :                      SETUP                      :
          :.................................................:
          :  # basis functions                 450          :
          :  # atomic orbitals                 446          :
          :  # shells                          242          :
          :  # electrons                       454          :
          :  max. iterations                   250          :
          :  Hamiltonian                  GFN2-xTB          :
          :  restarted?                      false          :
          :  GBSA solvation                  false          :
          :  PC potential                    false          :
          :  electronic temp.          300.0000000     K    :
          :  accuracy                    1.0000000          :
          :  -> integral cutoff          0.2500000E+02      :
          :  -> integral neglect         0.1000000E-07      :
          :  -> SCF convergence          0.1000000E-05 Eh   :
          :  -> wf. convergence          0.1000000E-03 e    :
          :  Broyden damping             0.4000000          :
          ...................................................

 iter      E             dE          RMSdq      gap      omega  full diag
   1   -251.4444775 -0.251444E+03  0.497E+00    1.19       0.0  T
   2   -251.6692183 -0.224741E+00  0.320E+00    1.06       1.0  T
   3   -251.4582980  0.210920E+00  0.205E+00    1.07       1.0  T
   4   -251.8421407 -0.383843E+00  0.731E-01    0.88       1.0  T
   5   -251.8977396 -0.555989E-01  0.225E-01    0.94       1.0  T
   6   -251.9003435 -0.260391E-02  0.129E-01    0.95       1.0  T
   7   -251.9015850 -0.124149E-02  0.461E-02    0.95       1.0  T
   8   -251.9017233 -0.138347E-03  0.220E-02    0.96       1.0  T
   9   -251.9017394 -0.161205E-04  0.114E-02    0.95       1.0  T
  10   -251.9017499 -0.104965E-04  0.500E-03    0.96       1.7  T
  11   -251.9017505 -0.591148E-06  0.248E-03    0.95       3.4  T
  12   -251.9017511 -0.531919E-06  0.123E-03    0.96       6.8  T
  13   -251.9017511 -0.955742E-07  0.656E-04    0.95      12.7  T
  14   -251.9017512 -0.882812E-08  0.349E-04    0.95      23.9  T

   *** convergence criteria satisfied after 14 iterations ***

         #    Occupation            Energy/Eh            Energy/eV
      -------------------------------------------------------------
         1        2.0000           -0.7624738             -20.7480
       ...           ...                  ...                  ...
       221        2.0000           -0.3995237             -10.8716
       222        2.0000           -0.3984795             -10.8432
       223        2.0000           -0.3943916             -10.7319
       224        2.0000           -0.3912984             -10.6478
       225        2.0000           -0.3897254             -10.6050
       226        2.0000           -0.3806149             -10.3571
       227        2.0000           -0.3646273              -9.9220 (HOMO)
       228                         -0.3295441              -8.9674 (LUMO)
       229                         -0.3255700              -8.8592
       230                         -0.2983892              -8.1196
       231                         -0.2934030              -7.9839
       232                         -0.2796683              -7.6102
       ...                                ...                  ...
       446                          1.0770597              29.3083
      -------------------------------------------------------------
                  HL-Gap            0.0350832 Eh            0.9547 eV
             Fermi-level           -0.3470929 Eh           -9.4449 eV

 SCC (total)                   0 d,  0 h,  0 min,  1.102 sec
 SCC setup                      ...        0 min,  0.004 sec (  0.374%)
 Dispersion                     ...        0 min,  0.008 sec (  0.768%)
 integral evaluation            ...        0 min,  0.341 sec ( 30.966%)
 zeroth order Hamiltonian       ...        0 min,  0.002 sec (  0.166%)
 iterations                     ...        0 min,  0.477 sec ( 43.263%)
 molecular gradient             ...        0 min,  0.265 sec ( 24.073%)
 printout                       ...        0 min,  0.004 sec (  0.385%)

         :::::::::::::::::::::::::::::::::::::::::::::::::::::
         ::                     SUMMARY                     ::
         :::::::::::::::::::::::::::::::::::::::::::::::::::::
         :: total energy            -248.211881567579 Eh    ::
         :: gradient norm              0.117859042703 Eh/a0 ::
         :: HOMO-LUMO gap              0.954662153630 eV    ::
         ::.................................................::
         :: SCC energy              -251.901751154708 Eh    ::
         :: -> isotropic ES            0.161182915550 Eh    ::
         :: -> anisotropic ES          0.024518590293 Eh    ::
         :: -> anisotropic XC          0.178152535466 Eh    ::
         :: -> dispersion             -0.214413304805 Eh    ::
         :: repulsion energy           3.688642756180 Eh    ::
         :: add. restraining           0.000000000000 Eh    ::
         :::::::::::::::::::::::::::::::::::::::::::::::::::::

           -------------------------------------------------
          |                Property Printout                |
           -------------------------------------------------

    * Orbital Energies and Occupations

         #    Occupation            Energy/Eh            Energy/eV
      -------------------------------------------------------------
         1        2.0000           -0.7624738             -20.7480
       ...           ...                  ...                  ...
       215        2.0000           -0.4103342             -11.1658
       216        2.0000           -0.4097719             -11.1505
       217        2.0000           -0.4056875             -11.0393
       218        2.0000           -0.4053676             -11.0306
       219        2.0000           -0.4021312             -10.9425
       220        2.0000           -0.4008647             -10.9081
       221        2.0000           -0.3995237             -10.8716
       222        2.0000           -0.3984795             -10.8432
       223        2.0000           -0.3943916             -10.7319
       224        2.0000           -0.3912984             -10.6478
       225        2.0000           -0.3897254             -10.6050
       226        2.0000           -0.3806149             -10.3571
       227        2.0000           -0.3646273              -9.9220 (HOMO)
       228                         -0.3295441              -8.9674 (LUMO)
       229                         -0.3255700              -8.8592
       230                         -0.2983892              -8.1196
       231                         -0.2934030              -7.9839
       232                         -0.2796683              -7.6102
       233                         -0.2679908              -7.2924
       234                         -0.2670962              -7.2681
       235                         -0.2621469              -7.1334
       236                         -0.2539417              -6.9101
       237                         -0.2533403              -6.8937
       238                         -0.2493377              -6.7848
       ...                                ...                  ...
       446                          1.0770597              29.3083
      -------------------------------------------------------------
                  HL-Gap            0.0350832 Eh            0.9547 eV
             Fermi-level           -0.3470929 Eh           -9.4449 eV

     #   Z        covCN         q      C6AA      α(0)
     1   6 C      2.981     0.021    27.525     8.606
     2   6 C      2.970     0.008    27.847     8.656
     3   6 C      2.981     0.008    27.846     8.656
     4   6 C      2.962    -0.008    28.207     8.711
     5   6 C      2.963     0.003    27.945     8.671
     6   6 C      2.963    -0.009    28.229     8.715
     7   6 C      2.965     0.001    27.996     8.679
     8   6 C      2.917    -0.039    28.978     8.827
     9   6 C      2.914    -0.030    28.746     8.792
    10   6 C      2.951     0.003    27.952     8.671
    11   6 C      3.135     0.060    26.435     8.416
    12   6 C      3.134     0.060    26.451     8.419
    13   6 C      2.916    -0.037    28.929     8.820
    14   6 C      2.914    -0.030    28.748     8.792
    15   6 C      2.952     0.004    27.941     8.670
    16   6 C      3.135     0.061    26.425     8.414
    17   6 C      3.130     0.059    26.484     8.426
    18   7 N      1.965    -0.243    27.171     7.730
    19   7 N      3.244     0.213    17.746     6.257
    20   7 N      1.964    -0.238    27.056     7.714
    21   7 N      1.964    -0.242    27.140     7.726
    22   7 N      3.242     0.212    17.757     6.259
    23   7 N      1.964    -0.245    27.205     7.735
    24   6 C      2.916    -0.020    28.509     8.756
    25   6 C      2.945    -0.008    28.227     8.714
    26   6 C      2.917    -0.020    28.501     8.754
    27   6 C      2.945    -0.008    28.224     8.713
    28   6 C      3.687    -0.078    22.197     6.744
    29   6 C      3.687    -0.079    22.208     6.746
    30   6 C      2.863     0.266    22.523     7.779
    31   7 N      2.818    -0.070    22.586     7.058
    32   6 C      2.914     0.102    25.733     8.318
    33  16 S      2.181    -0.044   142.884    20.118
    34   6 C      2.863     0.266    22.527     7.780
    35   7 N      2.818    -0.069    22.581     7.058
    36   6 C      2.914     0.102    25.733     8.318
    37  16 S      2.179    -0.044   142.867    20.117
    38   6 C      3.686    -0.045    21.589     6.651
    39   8 O      0.857    -0.389    21.472     6.213
    40   6 C      2.989    -0.026    28.649     8.780
    41   6 C      1.918     0.114    28.290     8.590
    42   6 C      1.905     0.112    28.338     8.597
    43   6 C      2.913    -0.029    28.731     8.789
    44   6 C      2.915    -0.038    28.944     8.822
    45   6 C      2.956     0.019    27.589     8.615
    46   6 C      2.915    -0.038    28.942     8.822
    47   6 C      2.911    -0.037    28.925     8.819
    48   6 C      2.912    -0.028    28.712     8.786
    49   6 C      2.914    -0.037    28.927     8.820
    50   6 C      2.956     0.020    27.560     8.611
    51   6 C      2.915    -0.038    28.951     8.823
    52   6 C      2.912    -0.037    28.913     8.817
    53   6 C      2.912    -0.030    28.742     8.791
    54   6 C      2.914    -0.038    28.951     8.823
    55   6 C      2.956     0.018    27.596     8.616
    56   6 C      2.915    -0.038    28.946     8.822
    57   6 C      2.911    -0.038    28.944     8.822
    58   6 C      2.911    -0.035    28.879     8.812
    59   6 C      2.914    -0.038    28.947     8.823
    60   6 C      2.956     0.019    27.579     8.614
    61   6 C      2.914    -0.037    28.926     8.819
    62   6 C      2.913    -0.027    28.668     8.780
    63   8 O      0.857    -0.389    21.468     6.212
    64   6 C      3.686    -0.045    21.591     6.652
    65   6 C      2.990    -0.026    28.648     8.780
    66   6 C      1.918     0.114    28.287     8.589
    67   6 C      1.906     0.112    28.340     8.598
    68   7 N      0.911    -0.231    26.065     7.384
    69   7 N      0.911    -0.244    26.372     7.427
    70   7 N      0.911    -0.244    26.366     7.427
    71   7 N      0.911    -0.232    26.074     7.385
    72   6 C      3.750    -0.105    22.567     6.775
    73   6 C      3.749    -0.105    22.575     6.776
    74   6 C      3.750    -0.106    22.593     6.779
    75   6 C      3.750    -0.105    22.570     6.775
    76  16 S      2.261    -0.007   141.348    20.010
    77   6 C      2.984    -0.012    28.305     8.727
    78   6 C      3.039     0.138    24.966     8.195
    79   6 C      3.054    -0.068    29.649     8.930
    80   6 C      2.979     0.011    27.772     8.644
    81   6 C      2.973    -0.004    28.131     8.700
    82   6 C      3.807     0.135    18.390     6.105
    83   8 O      1.701    -0.277    18.596     5.822
    84   6 C      2.910    -0.040    28.989     8.829
    85   6 C      2.969    -0.006    28.158     8.704
    86   6 C      2.987     0.010    27.786     8.647
    87   6 C      2.913    -0.041    29.026     8.835
    88   6 C      3.795     0.134    18.414     6.111
    89   8 O      1.699    -0.277    18.603     5.823
    90   6 C      3.033     0.139    24.945     8.192
    91   6 C      2.985    -0.008    28.214     8.713
    92   6 C      3.048    -0.067    29.613     8.925
    93   6 C      2.983     0.024    27.455     8.595
    94  16 S      2.276    -0.041   142.741    20.108
    95   1 H      0.925     0.047     2.358     2.401
    96   1 H      0.924     0.055     2.255     2.348
    97   1 H      0.924     0.053     2.282     2.362
    98   1 H      0.925     0.056     2.241     2.341
    99   1 H      0.924     0.093     1.852     2.128
   100   1 H      0.924     0.092     1.857     2.131
   101   1 H      0.924     0.093     1.847     2.125
   102   1 H      0.923     0.085     1.933     2.174
   103   1 H      0.923     0.085     1.927     2.171
   104   1 H      0.923     0.085     1.927     2.171
   105   1 H      0.923     0.087     1.909     2.161
   106   1 H      0.924     0.092     1.858     2.132
   107   1 H      0.924     0.097     1.812     2.105
   108   1 H      0.923     0.069     2.094     2.263
   109   1 H      0.924     0.069     2.102     2.267
   110   1 H      0.924     0.041     2.429     2.437
   111   1 H      0.924     0.035     2.517     2.481
   112   1 H      0.924     0.031     2.572     2.508
   113   1 H      0.924     0.024     2.667     2.554
   114   1 H      0.924     0.042     2.425     2.435
   115   1 H      0.924     0.034     2.527     2.486
   116   1 H      0.924     0.035     2.513     2.479
   117   1 H      0.924     0.030     2.581     2.512
   118   1 H      0.924     0.043     2.411     2.428
   119   1 H      0.924     0.033     2.548     2.496
   120   1 H      0.924     0.032     2.553     2.499
   121   1 H      0.925     0.027     2.624     2.533
   122   1 H      0.924     0.032     2.561     2.503
   123   1 H      0.924     0.033     2.551     2.498
   124   1 H      0.924     0.035     2.521     2.483
   125   1 H      0.924     0.041     2.442     2.444
   126   1 H      0.924     0.097     1.810     2.104
   127   1 H      0.924     0.069     2.098     2.265
   128   1 H      0.924     0.069     2.098     2.265
   129   1 H      0.923     0.043     2.415     2.430
   130   1 H      0.923     0.043     2.408     2.427
   131   1 H      0.923     0.047     2.356     2.400
   132   1 H      0.923     0.042     2.417     2.431
   133   1 H      0.923     0.047     2.359     2.402
   134   1 H      0.923     0.044     2.400     2.423
   135   1 H      0.923     0.042     2.420     2.433
   136   1 H      0.923     0.049     2.333     2.389
   137   1 H      0.923     0.047     2.353     2.399
   138   1 H      0.923     0.041     2.440     2.443
   139   1 H      0.923     0.047     2.360     2.403
   140   1 H      0.923     0.047     2.364     2.404
   141   1 H      0.925     0.056     2.241     2.341
   142   1 H      0.924     0.043     2.405     2.425
   143   1 H      0.925     0.046     2.369     2.407
   144   1 H      0.925     0.073     2.049     2.238

 Mol. C6AA /au·bohr⁶  :     341119.536158
 Mol. C8AA /au·bohr⁸  :    9113772.492017
 Mol. α(0) /au        :        929.874459


Wiberg/Mayer (AO) data.
largest (>0.10) Wiberg bond orders for each atom
          total WBO             WBO to atom ...
     1  C   3.926        C   79 1.458    C    2 1.160    S   76 1.129
     2  C   3.927        C    8 1.396    C   12 1.197    C    1 1.160
     3  C   3.928        C   13 1.405    C   17 1.189    C   93 1.160
     4  C   3.980        C   57 1.416    C   53 1.404    C   88 0.956    C   55 0.106
     5  C   3.981        C   58 1.419    C   62 1.402    C   88 0.962    C   60 0.106
     6  C   3.981        C   47 1.424    C   43 1.396    C   82 0.955    C   45 0.106
     7  C   3.981        C   48 1.414    C   52 1.404    C   82 0.962    C   50 0.106
     8  C   3.970        C    9 1.409    C    2 1.396    H   95 0.965
     9  C   3.959        C    8 1.409    C   10 1.394    H   96 0.955
    10  C   3.942        C    9 1.394    C   24 1.192    C   11 1.182
    11  C   3.970        N   18 1.364    C   12 1.224    C   10 1.182
    12  C   3.971        N   20 1.353    C   11 1.224    C    2 1.197
    13  C   3.970        C   14 1.406    C    3 1.405    H   97 0.961
    14  C   3.958        C   13 1.406    C   15 1.396    H   98 0.953
    15  C   3.940        C   14 1.396    C   26 1.192    C   16 1.181
    16  C   3.970        N   21 1.363    C   17 1.226    C   15 1.181
    17  C   3.971        N   23 1.354    C   16 1.226    C    3 1.189
    18  N   2.982        C   11 1.364    N   19 1.279    N   20 0.218
    19  N   3.745        N   20 1.288    N   18 1.279    C   29 0.994
    20  N   2.990        C   12 1.353    N   19 1.288    N   18 0.218
    21  N   2.982        C   16 1.363    N   22 1.279    N   23 0.219
    22  N   3.746        N   23 1.287    N   21 1.279    C   28 0.993
    23  N   2.981        C   17 1.354    N   22 1.287    N   21 0.219
    24  C   3.952        C   25 1.596    C   10 1.192    H   99 0.945
    25  C   3.891        C   24 1.596    S   37 1.058    C   34 1.049
    26  C   3.952        C   27 1.596    C   15 1.192    H  100 0.945
    27  C   3.891        C   26 1.596    S   33 1.058    C   30 1.050
    28  C   3.956        N   22 0.993    H  101 0.978    H  103 0.968    H  102 0.967
    29  C   3.956        N   19 0.994    H  106 0.978    H  105 0.969    H  104 0.966
    30  C   3.930        O   63 1.705    N   31 1.070    C   27 1.050
    31  N   3.577        C   32 1.208    C   30 1.070    C   64 0.980    O   63 0.132
    32  C   3.949        C   65 1.433    N   31 1.208    S   33 1.084
    33  S   2.506        C   32 1.084    C   27 1.058
    34  C   3.930        O   39 1.705    N   35 1.071    C   25 1.049
    35  N   3.577        C   36 1.208    C   34 1.071    C   38 0.980    O   39 0.132
    36  C   3.949        C   40 1.433    N   35 1.208    S   37 1.085
    37  S   2.504        C   36 1.085    C   25 1.058
    38  C   3.948        N   35 0.980    H  109 0.973    H  108 0.972    H  107 0.969
    39  O   2.035        C   34 1.705    N   35 0.132
    40  C   3.938        C   36 1.433    C   42 1.105    C   41 1.096
    41  C   3.945        N   68 2.774    C   40 1.096
    42  C   3.946        N   69 2.762    C   40 1.105
    43  C   3.989        C   44 1.464    C    6 1.396    H  110 0.968    C   46 0.108
    44  C   3.989        C   43 1.464    C   45 1.394    H  111 0.969    C   47 0.109
    45  C   3.986        C   46 1.422    C   44 1.394    C   75 1.027    C    6 0.106
    46  C   3.989        C   47 1.432    C   45 1.422    H  112 0.969    C   43 0.108
    47  C   3.990        C   46 1.432    C    6 1.424    H  113 0.966    C   44 0.109
    48  C   3.988        C   49 1.444    C    7 1.414    H  114 0.968    C   51 0.109
    49  C   3.988        C   48 1.444    C   50 1.411    H  115 0.968    C   52 0.107
    50  C   3.986        C   49 1.411    C   51 1.404    C   74 1.027    C    7 0.106
    51  C   3.989        C   52 1.452    C   50 1.404    H  116 0.969    C   48 0.109
    52  C   3.989        C   51 1.452    C    7 1.404    H  117 0.966    C   49 0.107
    53  C   3.988        C   54 1.454    C    4 1.404    H  118 0.968    C   56 0.109
    54  C   3.989        C   53 1.454    C   55 1.402    H  119 0.969    C   57 0.108
    55  C   3.986        C   56 1.413    C   54 1.402    C   72 1.027    C    4 0.106
    56  C   3.990        C   57 1.442    C   55 1.413    H  120 0.969    C   53 0.109
    57  C   3.990        C   56 1.442    C    4 1.416    H  121 0.964    C   54 0.108
    58  C   3.989        C   59 1.439    C    5 1.419    H  122 0.967    C   61 0.108
    59  C   3.989        C   58 1.439    C   60 1.416    H  123 0.969    C   62 0.109
    60  C   3.986        C   59 1.416    C   61 1.401    C   73 1.027    C    5 0.106
    61  C   3.989        C   62 1.456    C   60 1.401    H  124 0.969    C   58 0.108
    62  C   3.989        C   61 1.456    C    5 1.402    H  125 0.968    C   59 0.109
    63  O   2.036        C   30 1.705    N   31 0.132
    64  C   3.948        N   31 0.980    H  128 0.973    H  127 0.972    H  126 0.969
    65  C   3.938        C   32 1.433    C   67 1.105    C   66 1.095
    66  C   3.945        N   71 2.774    C   65 1.095
    67  C   3.946        N   70 2.762    C   65 1.105
    68  N   2.986        C   41 2.774
    69  N   2.980        C   42 2.762
    70  N   2.980        C   67 2.762
    71  N   2.986        C   66 2.774
    72  C   3.996        C   55 1.027    H  129 0.982    H  130 0.981    H  131 0.967
    73  C   3.996        C   60 1.027    H  132 0.982    H  134 0.981    H  133 0.967
    74  C   3.995        C   50 1.027    H  135 0.985    H  137 0.975    H  136 0.968
    75  C   3.995        C   45 1.027    H  138 0.986    H  139 0.973    H  140 0.971
    76  S   2.582        C   77 1.145    C    1 1.129
    77  C   3.901        C   78 1.377    S   76 1.145    C   80 1.145
    78  C   3.923        C   77 1.377    C   79 1.303    O   83 1.072
    79  C   3.944        C    1 1.458    C   78 1.303    H  141 0.958
    80  C   3.957        C   84 1.337    C   81 1.298    C   77 1.145
    81  C   3.969        C   87 1.465    C   80 1.298    C   82 0.965
    82  C   3.927        C   81 0.965    C    7 0.962    C    6 0.955    O   83 0.918
    83  O   2.217        C   78 1.072    C   82 0.918
    84  C   3.974        C   85 1.459    C   80 1.337    H  142 0.963
    85  C   3.968        C   84 1.459    C   86 1.301    C   88 0.967
    86  C   3.959        C   87 1.336    C   85 1.301    C   91 1.149
    87  C   3.974        C   81 1.465    C   86 1.336    H  143 0.958
    88  C   3.926        C   85 0.967    C    5 0.962    C    4 0.956    O   89 0.914
    89  O   2.225        C   90 1.077    C   88 0.914
    90  C   3.921        C   91 1.384    C   92 1.286    O   89 1.077
    91  C   3.901        C   90 1.384    C   86 1.149    S   94 1.134
    92  C   3.946        C   93 1.470    C   90 1.286    H  144 0.957
    93  C   3.924        C   92 1.470    C    3 1.160    S   94 1.117
    94  S   2.561        C   91 1.134    C   93 1.117
    95  H   0.997        C    8 0.965
    96  H   0.996        C    9 0.955
    97  H   0.996        C   13 0.961
    98  H   0.996        C   14 0.953
    99  H   0.991        C   24 0.945
   100  H   0.991        C   26 0.945
   101  H   0.991        C   28 0.978
   102  H   0.990        C   28 0.967
   103  H   0.990        C   28 0.968
   104  H   0.989        C   29 0.966
   105  H   0.989        C   29 0.969
   106  H   0.991        C   29 0.978
   107  H   0.990        C   38 0.969
   108  H   0.994        C   38 0.972
   109  H   0.994        C   38 0.973
   110  H   0.998        C   43 0.968
   111  H   0.998        C   44 0.969
   112  H   0.999        C   46 0.969
   113  H   0.999        C   47 0.966
   114  H   0.998        C   48 0.968
   115  H   0.998        C   49 0.968
   116  H   0.998        C   51 0.969
   117  H   0.999        C   52 0.966
   118  H   0.998        C   53 0.968
   119  H   0.998        C   54 0.969
   120  H   0.998        C   56 0.969
   121  H   0.999        C   57 0.964
   122  H   0.999        C   58 0.967
   123  H   0.999        C   59 0.969
   124  H   0.998        C   61 0.969
   125  H   0.998        C   62 0.968
   126  H   0.990        C   64 0.969
   127  H   0.994        C   64 0.972
   128  H   0.994        C   64 0.973
   129  H   0.998        C   72 0.982
   130  H   0.998        C   72 0.981
   131  H   0.997        C   72 0.967
   132  H   0.998        C   73 0.982
   133  H   0.997        C   73 0.967
   134  H   0.998        C   73 0.981
   135  H   0.998        C   74 0.985
   136  H   0.997        C   74 0.968
   137  H   0.997        C   74 0.975
   138  H   0.998        C   75 0.986
   139  H   0.997        C   75 0.973
   140  H   0.997        C   75 0.971
   141  H   0.996        C   79 0.958
   142  H   0.997        C   84 0.963
   143  H   0.996        C   87 0.958
   144  H   0.994        C   92 0.957

molecular dipole:
                 x           y           z       tot (Debye)
 q only:       -0.616       1.822       5.585
   full:       -0.663       1.961       5.787      15.621
molecular quadrupole (traceless):
                xx          xy          yy          xz          yz          zz
 q only:       86.016     -31.698    -158.975     -51.879      72.951      72.959
  q+dip:      103.305     -33.178    -167.505     -54.853      62.571      64.200
   full:      112.780     -34.707    -172.851     -53.104      63.093      60.071


           -------------------------------------------------
          | TOTAL ENERGY             -248.211881567579 Eh   |
          | GRADIENT NORM               0.117859042703 Eh/α |
          | HOMO-LUMO GAP               0.954662153630 eV   |
           -------------------------------------------------

------------------------------------------------------------------------
 * finished run on 2021/04/12 at 13:53:02.415     
------------------------------------------------------------------------
 total:
 * wall-time:     0 d,  0 h,  0 min,  1.468 sec
 *  cpu-time:     0 d,  0 h,  0 min,  1.456 sec
 * ratio c/w:     0.992 speedup
 SCF:
 * wall-time:     0 d,  0 h,  0 min,  1.103 sec
 *  cpu-time:     0 d,  0 h,  0 min,  1.100 sec
 * ratio c/w:     0.998 speedup

