      -----------------------------------------------------------      
     |                   =====================                   |     
     |                           x T B                           |     
     |                   =====================                   |     
     |                         S. Grimme                         |     
     |          Mulliken Center for Theoretical Chemistry        |     
     |                    University of Bonn                     |     
     |                Version 6.2 RC2 (SAW190805)                |     
      -----------------------------------------------------------      

   This program is distributed in the hope that it will be useful,
   but WITHOUT ANY WARRANTY; without even the implied warranty of
   MERCHANTABILITY or FITNESS FOR A PARTICULAR PURPOSE.
   
   FOR NON-COMMERCIAL, ACADEMIA USE ONLY.
   
   Cite this work as:
   * S. Grimme, C. Bannwarth, P. Shushkov, J. Chem. Theory Comput., 2017,
     13, 1989-2009. DOI: 10.1021/acs.jctc.7b00118
   * C. Bannwarth, S. Ehlert and S. Grimme., J. Chem. Theory Comput., 2019,
     15, 1652-1671. DOI: 10.1021/acs.jctc.8b01176
   * P. Pracht, E. Caldeweyher, S. Ehlert, S. Grimme, ChemRxiv, 2019, preprint.
     DOI: 10.26434/chemrxiv.8326202.v1
   
   for DFT-D4:
   * E. Caldeweyher, C. Bannwarth and S. Grimme, J. Chem. Phys., 2017,
     147, 034112. DOI: 10.1063/1.4993215
   * E. Caldeweyher, S. Ehlert, A. Hansen, H. Neugebauer, S. Spicher,
     C. Bannwarth and S. Grimme, J. Chem. Phys., 2019, 150, 154122.
     DOI: 10.1063/1.5090222
   
   for sTDA-xTB:
   * S. Grimme and C. Bannwarth, J. Chem. Phys., 2016, 145, 054103.
     DOI: 10.1063/1.4959605
   
   in the mass-spec context:
   * V. Asgeirsson, C. Bauer and S. Grimme, Chem. Sci., 2017, 8, 4879.
     DOI: 10.1039/c7sc00601b
   
   for metadynamics refer to:
   * S. Grimme, J. Chem. Theory Comput., 2019, 155, 2847-2862
     DOI: 10.1021/acs.jctc.9b00143
   
   with help from (in alphabetical order)
   C. Bannwarth, F. Bohle, G. Brandenburg, E. Caldeweyher, M. Checinski,
   S. Dohm, S. Ehlert, S. Ehrlich, F. März, H. Neugebauer, J. Pisarek,
   P. Pracht, P. Shushkov, and S. Spicher.
   
 * started run on 2020/11/20 at 13:44:59.186     

           -------------------------------------------------
          |                Calculation Setup                |
           -------------------------------------------------

          program call               : /ihome/ghutchison/geoffh/xtb/xtb BTP-4Cl.xyz -sp
          hostname                   : smp-n25
          coordinate file            : BTP-4Cl.xyz
          omp threads                :                     1
          number of atoms            :                    97
          number of electrons        :                   344
          charge                     :                     0
          spin                       :                   0.0
          first test random number   :      0.94199097252881


########################################################################
# WARNING! Please study the warnings concerning your input carefully
#  - XTBPATH is not set, using XTBHOME instead
#  - the use of '-sp' is discouraged, please use '--sp' next time
########################################################################

           ------------------------------------------------- 
          |                 G F N 2 - x T B                 |
          | Geometry, Frequencies, Noncovalent interactions |
          |            JCTC 2019 parametrisation            |
           ------------------------------------------------- 
             KAB for C  - Si     :                1.0500
             KAB for H  - Pd     :                0.9500
             k(s)              :                1.8500
             k(p)              :                2.2300
             k(d)              :                2.2300
             k(f)              :                2.0000
             kEN (H0ij)        :               -2.0000
             D4 a1             :                0.5200
             D4 a2             :                5.0000
             D4 s6             :                1.0000
             D4 s8             :                2.7000
             D4 s9             :                5.0000
             alphaj            :                2.0000

  Z AO/shell   Hii/eV     exponent
  1     Wed Apr 25 08:07:45 CEST 2018   EN: 2.200 GM2: 0.406  GM3: 0.0800  RAES: 1.40
     1s    -10.707211    1.230000
  6     Wed Apr 25 08:07:45 CEST 2018   EN: 2.550 GM2: 0.538  GM3: 0.1500  RAES: 3.00
     2s    -13.970922    2.096432
     2p    -10.063292    1.800000
  7     Wed Apr 25 08:07:45 CEST 2018   EN: 3.040 GM2: 0.461  GM3:-0.0640  RAES: 1.90
     2s    -16.686243    2.339881
     2p    -12.523956    2.014332
  8     Wed Apr 25 08:07:45 CEST 2018   EN: 3.440 GM2: 0.452  GM3:-0.0517  RAES: 1.80
     2s    -20.229985    2.439742
     2p    -15.503117    2.137023
 16     Tue Apr 24 11:44:34 CEST 2018   EN: 2.580 GM2: 0.340  GM3:-0.0502  RAES: 3.10
     3s    -20.029654    1.981333
     3p    -11.377694    2.025643
     3d     -0.420282    1.702555
 17     Mon Apr 23 14:09:22 CEST 2018   EN: 3.160 GM2: 0.249  GM3: 0.1495  RAES: 2.50
     3s    -29.278781    2.485265
     3p    -12.673758    2.199650
     3d     -0.240338    2.476089

           ------------------------------------------------- 
          |        Self-Consistent Charge Iterations        |
           ------------------------------------------------- 

          ...................................................
          :                      SETUP                      :
          :.................................................:
          :  # basis functions                 364          :
          :  # atomic orbitals                 355          :
          :  # shells                          177          :
          :  # electrons                       344          :
          :  max. iterations                   250          :
          :  Hamiltonian                  GFN2-xTB          :
          :  restarted?                      false          :
          :  GBSA solvation                  false          :
          :  PC potential                    false          :
          :  electronic temp.          300.0000000     K    :
          :  accuracy                    1.0000000          :
          :  -> integral cutoff          0.2500000E+02      :
          :  -> integral neglect         0.1000000E-07      :
          :  -> SCF convergence          0.1000000E-05 Eh   :
          :  -> wf. convergence          0.1000000E-03 e    :
          :  Broyden damping             0.4000000          :
          ...................................................

 iter      E             dE          RMSdq      gap      omega  full diag
   1   -192.6816501 -0.192682E+03  0.482E+00    1.29       0.0  T
   2   -192.8075762 -0.125926E+00  0.313E+00    1.02       1.0  T
   3   -192.7343828  0.731935E-01  0.206E+00    1.00       1.0  T
   4   -192.9778262 -0.243443E+00  0.833E-01    1.21       1.0  T
   5   -193.0372898 -0.594637E-01  0.258E-01    1.00       1.0  T
   6   -193.0420071 -0.471727E-02  0.138E-01    1.11       1.0  T
   7   -193.0431497 -0.114261E-02  0.703E-02    1.07       1.0  T
   8   -193.0434529 -0.303188E-03  0.378E-02    1.08       1.0  T
   9   -193.0434845 -0.315804E-04  0.277E-02    1.08       1.0  T
  10   -193.0435053 -0.208523E-04  0.202E-02    1.08       1.0  T
  11   -193.0435186 -0.132685E-04  0.126E-02    1.08       1.0  T
  12   -193.0435253 -0.672549E-05  0.646E-03    1.08       1.6  T
  13   -193.0435264 -0.104702E-05  0.353E-03    1.08       2.9  T
  14   -193.0435273 -0.886353E-06  0.141E-03    1.08       7.2  T
  15   -193.0435273 -0.424341E-07  0.956E-04    1.08      10.6  T
  16   -193.0435273 -0.404274E-07  0.577E-04    1.08      17.6  T

   *** convergence criteria satisfied after 16 iterations ***

         #    Occupation            Energy/Eh            Energy/eV
      -------------------------------------------------------------
         1        2.0000           -1.0757268             -29.2720
       ...           ...                  ...                  ...
       166        2.0000           -0.4132168             -11.2442
       167        2.0000           -0.4131508             -11.2424
       168        2.0000           -0.4112556             -11.1908
       169        2.0000           -0.3997669             -10.8782
       170        2.0000           -0.3944276             -10.7329
       171        2.0000           -0.3877440             -10.5511
       172        2.0000           -0.3816299             -10.3847 (HOMO)
       173                         -0.3420141              -9.3067 (LUMO)
       174                         -0.3379357              -9.1957
       175                         -0.3292783              -8.9601
       176                         -0.3263168              -8.8795
       177                         -0.3113354              -8.4719
       ...                                ...                  ...
       355                          1.0688794              29.0857
      -------------------------------------------------------------
                  HL-Gap            0.0396158 Eh            1.0780 eV
             Fermi-level           -0.3618277 Eh           -9.8458 eV

 SCC (total)                   0 d,  0 h,  0 min,  0.882 sec
 SCC setup                      ...        0 min,  0.003 sec (  0.330%)
 Dispersion                     ...        0 min,  0.007 sec (  0.755%)
 integral evaluation            ...        0 min,  0.274 sec ( 31.054%)
 zeroth order Hamiltonian       ...        0 min,  0.002 sec (  0.187%)
 iterations                     ...        0 min,  0.397 sec ( 44.998%)
 molecular gradient             ...        0 min,  0.197 sec ( 22.324%)
 printout                       ...        0 min,  0.003 sec (  0.342%)

         :::::::::::::::::::::::::::::::::::::::::::::::::::::
         ::                     SUMMARY                     ::
         :::::::::::::::::::::::::::::::::::::::::::::::::::::
         :: total energy            -190.504590197017 Eh    ::
         :: gradient norm              0.104134835989 Eh/a0 ::
         :: HOMO-LUMO gap              1.078002133398 eV    ::
         ::.................................................::
         :: SCC energy              -193.043527335066 Eh    ::
         :: -> isotropic ES            0.119464500655 Eh    ::
         :: -> anisotropic ES          0.004989806836 Eh    ::
         :: -> anisotropic XC          0.121734650877 Eh    ::
         :: -> dispersion             -0.165580834876 Eh    ::
         :: repulsion energy           2.540620345551 Eh    ::
         :: add. restraining           0.000000000000 Eh    ::
         :::::::::::::::::::::::::::::::::::::::::::::::::::::

           -------------------------------------------------
          |                Property Printout                |
           -------------------------------------------------

    * Orbital Energies and Occupations

         #    Occupation            Energy/Eh            Energy/eV
      -------------------------------------------------------------
         1        2.0000           -1.0757268             -29.2720
       ...           ...                  ...                  ...
       160        2.0000           -0.4282261             -11.6526
       161        2.0000           -0.4267790             -11.6132
       162        2.0000           -0.4250943             -11.5674
       163        2.0000           -0.4177984             -11.3689
       164        2.0000           -0.4158634             -11.3162
       165        2.0000           -0.4151736             -11.2974
       166        2.0000           -0.4132168             -11.2442
       167        2.0000           -0.4131508             -11.2424
       168        2.0000           -0.4112556             -11.1908
       169        2.0000           -0.3997669             -10.8782
       170        2.0000           -0.3944276             -10.7329
       171        2.0000           -0.3877440             -10.5511
       172        2.0000           -0.3816299             -10.3847 (HOMO)
       173                         -0.3420141              -9.3067 (LUMO)
       174                         -0.3379357              -9.1957
       175                         -0.3292783              -8.9601
       176                         -0.3263168              -8.8795
       177                         -0.3113354              -8.4719
       178                         -0.2873658              -7.8196
       179                         -0.2832372              -7.7073
       180                         -0.2657824              -7.2323
       181                         -0.2591274              -7.0512
       182                         -0.2518657              -6.8536
       183                         -0.2516150              -6.8468
       ...                                ...                  ...
       355                          1.0688794              29.0857
      -------------------------------------------------------------
                  HL-Gap            0.0396158 Eh            1.0780 eV
             Fermi-level           -0.3618277 Eh           -9.8458 eV

     #   Z        covCN         q      C6AA      α(0)
     1   6 C      2.864     0.225    23.271     7.907
     2   8 O      0.875    -0.358    20.860     6.124
     3   6 C      3.025    -0.017    28.409     8.743
     4   6 C      2.940    -0.026    28.642     8.777
     5   6 C      2.905     0.090    25.991     8.359
     6  17 Cl     0.965    -0.120   102.884    15.518
     7   6 C      2.901     0.092    25.949     8.352
     8  17 Cl     0.972    -0.117   102.794    15.511
     9   6 C      2.947    -0.039    28.962     8.827
    10   6 C      3.014     0.007    27.850     8.657
    11   6 C      3.002     0.030    27.324     8.575
    12   6 C      2.943     0.007    27.871     8.659
    13   6 C      1.914     0.119    28.174     8.572
    14   7 N      0.911    -0.237    26.201     7.403
    15   6 C      1.914     0.119    28.174     8.572
    16   7 N      0.911    -0.228    25.980     7.372
    17   6 C      2.986    -0.039    28.961     8.828
    18   6 C      2.907    -0.015    28.396     8.738
    19   6 C      2.977     0.016    27.646     8.625
    20  16 S      2.189     0.019   140.292    19.935
    21   6 C      3.088    -0.001    27.948     8.666
    22   6 C      3.136     0.007    27.637     8.605
    23   6 C      3.061     0.006    27.830     8.651
    24   6 C      3.798    -0.054    21.555     6.611
    25   6 C      3.745    -0.097    22.419     6.754
    26  16 S      2.146    -0.020   141.894    20.049
    27   6 C      3.065     0.010    27.728     8.635
    28   6 C      3.211     0.029    26.709     8.412
    29   7 N      2.776    -0.061    22.415     7.032
    30   6 C      3.739    -0.006    20.757     6.501
    31   6 C      3.746    -0.104    22.563     6.776
    32   6 C      3.050     0.033    27.207     8.555
    33   6 C      3.056    -0.028    28.650     8.778
    34   6 C      3.309     0.071    24.565     7.915
    35   7 N      1.843    -0.254    27.466     7.767
    36  16 S      2.650     0.289   129.811    19.176
    37   7 N      1.843    -0.255    27.486     7.770
    38   6 C      3.305     0.072    24.635     7.937
    39   6 C      3.055    -0.032    28.738     8.792
    40   6 C      3.046     0.029    27.302     8.570
    41   7 N      2.785    -0.036    21.938     6.956
    42   6 C      3.735     0.001    20.647     6.485
    43   6 C      3.746    -0.116    22.794     6.810
    44   6 C      3.198     0.026    26.879     8.451
    45   6 C      3.068     0.008    27.759     8.639
    46  16 S      2.141    -0.020   141.898    20.049
    47   6 C      3.142     0.008    27.596     8.596
    48   6 C      3.079    -0.001    27.963     8.669
    49  16 S      2.184     0.020   140.245    19.932
    50   6 C      2.976     0.015    27.680     8.630
    51   6 C      3.063     0.006    27.823     8.650
    52   6 C      3.799    -0.055    21.567     6.612
    53   6 C      3.746    -0.096    22.409     6.752
    54   6 C      2.906    -0.016    28.400     8.738
    55   6 C      2.984    -0.038    28.949     8.826
    56   6 C      3.002     0.030    27.316     8.573
    57   6 C      2.943     0.007    27.870     8.658
    58   6 C      1.915     0.119    28.170     8.571
    59   7 N      0.911    -0.227    25.976     7.371
    60   6 C      1.915     0.120    28.147     8.568
    61   7 N      0.911    -0.239    26.252     7.410
    62   6 C      3.012     0.007    27.850     8.657
    63   6 C      2.943    -0.039    28.958     8.826
    64   6 C      2.902     0.092    25.952     8.353
    65  17 Cl     0.972    -0.117   102.804    15.512
    66   6 C      2.905     0.090    25.989     8.359
    67  17 Cl     0.968    -0.119   102.879    15.518
    68   6 C      2.938    -0.026    28.642     8.777
    69   6 C      3.023    -0.017    28.409     8.743
    70   6 C      2.862     0.226    23.268     7.907
    71   8 O      0.868    -0.359    20.880     6.127
    72   1 H      0.924     0.091     1.873     2.140
    73   1 H      0.925     0.089     1.884     2.146
    74   1 H      0.925     0.079     1.989     2.206
    75   1 H      0.923     0.059     2.212     2.326
    76   1 H      0.923     0.055     2.253     2.348
    77   1 H      0.923     0.038     2.475     2.460
    78   1 H      0.923     0.055     2.257     2.349
    79   1 H      0.923     0.040     2.451     2.448
    80   1 H      0.923     0.070     2.088     2.260
    81   1 H      0.924     0.066     2.130     2.282
    82   1 H      0.923     0.045     2.389     2.417
    83   1 H      0.923     0.047     2.363     2.404
    84   1 H      0.923     0.052     2.297     2.370
    85   1 H      0.924     0.060     2.202     2.321
    86   1 H      0.923     0.061     2.191     2.315
    87   1 H      0.923     0.056     2.251     2.347
    88   1 H      0.923     0.063     2.161     2.299
    89   1 H      0.923     0.052     2.290     2.367
    90   1 H      0.923     0.056     2.245     2.343
    91   1 H      0.923     0.058     2.222     2.331
    92   1 H      0.923     0.042     2.423     2.434
    93   1 H      0.923     0.053     2.279     2.361
    94   1 H      0.923     0.040     2.454     2.450
    95   1 H      0.925     0.077     2.012     2.218
    96   1 H      0.925     0.089     1.886     2.148
    97   1 H      0.924     0.090     1.875     2.141

 Mol. C6AA /au·bohr⁶  :     206718.884086
 Mol. C8AA /au·bohr⁸  :    6129230.150245
 Mol. α(0) /au        :        722.959281


Wiberg/Mayer (AO) data.
largest (>0.10) Wiberg bond orders for each atom
          total WBO             WBO to atom ...
     1  C   3.921        O    2 1.732    C   17 1.057    C    3 1.018
     2  O   2.085        C    1 1.732
     3  C   3.975        C    4 1.417    C   10 1.297    C    1 1.018
     4  C   3.975        C    3 1.417    C    5 1.388    H   72 0.959
     5  C   3.897        C    4 1.388    C    7 1.343    Cl   6 1.009
     6  Cl  1.157        C    5 1.009
     7  C   3.920        C    9 1.394    C    5 1.343    Cl   8 1.013
     8  Cl  1.160        C    7 1.013
     9  C   3.969        C   10 1.400    C    7 1.394    H   73 0.953
    10  C   3.980        C    9 1.400    C    3 1.297    C   11 1.073
    11  C   3.966        C   12 1.482    C   17 1.147    C   10 1.073
    12  C   3.923        C   11 1.482    C   13 1.098    C   15 1.094
    13  C   3.941        N   14 2.754    C   12 1.098
    14  N   2.967        C   13 2.754
    15  C   3.941        N   16 2.769    C   12 1.094
    16  N   2.969        C   15 2.769
    17  C   3.950        C   18 1.483    C   11 1.147    C    1 1.057
    18  C   3.943        C   17 1.483    C   19 1.317    H   74 0.929
    19  C   3.926        C   23 1.327    C   18 1.317    S   20 1.077
    20  S   2.672        C   21 1.161    C   19 1.077
    21  C   3.940        C   22 1.291    C   28 1.257    S   20 1.161
    22  C   3.927        C   23 1.362    C   21 1.291    S   26 1.076
    23  C   3.949        C   22 1.362    C   19 1.327    C   24 1.017
    24  C   3.991        C   23 1.017    C   25 0.995    H   76 0.971    H   75 0.957
    25  C   3.990        C   24 0.995    H   79 0.988    H   77 0.984    H   78 0.984
    26  S   2.492        C   27 1.112    C   22 1.076
    27  C   3.915        C   28 1.322    C   33 1.259    S   26 1.112
    28  C   3.937        C   27 1.322    C   21 1.257    N   29 1.135
    29  N   3.496        C   32 1.150    C   28 1.135    C   30 0.964
    30  C   3.958        C   31 1.012    H   80 0.965    N   29 0.964    H   81 0.955
    31  C   3.990        C   30 1.012    H   83 0.986    H   82 0.983    H   84 0.981
    32  C   3.928        C   33 1.296    C   40 1.220    N   29 1.150
    33  C   3.949        C   32 1.296    C   27 1.259    C   34 1.158
    34  C   3.971        N   35 1.460    C   33 1.158    C   38 1.149    S   36 0.103
    35  N   3.071        C   34 1.460    S   36 1.359    N   37 0.146
    36  S   3.037        N   35 1.359    N   37 1.357    C   34 0.103    C   38 0.102
    37  N   3.071        C   38 1.460    S   36 1.357    N   35 0.146
    38  C   3.971        N   37 1.460    C   39 1.157    C   34 1.149    S   36 0.102
    39  C   3.952        C   45 1.281    C   40 1.271    C   38 1.157
    40  C   3.926        C   39 1.271    C   32 1.220    N   41 1.176
    41  N   3.556        C   40 1.176    C   44 1.153    C   42 0.976
    42  C   3.962        C   43 1.011    N   41 0.976    H   86 0.965    H   85 0.961
    43  C   3.986        C   42 1.011    H   87 0.982    H   89 0.979    H   88 0.978
    44  C   3.930        C   45 1.305    C   48 1.251    N   41 1.153
    45  C   3.916        C   44 1.305    C   39 1.281    S   46 1.109
    46  S   2.490        C   45 1.109    C   47 1.077
    47  C   3.928        C   51 1.357    C   48 1.297    S   46 1.077
    48  C   3.938        C   47 1.297    C   44 1.251    S   49 1.157
    49  S   2.659        C   48 1.157    C   50 1.076
    50  C   3.926        C   51 1.330    C   54 1.315    S   49 1.076
    51  C   3.952        C   47 1.357    C   50 1.330    C   52 1.018
    52  C   3.991        C   51 1.018    C   53 0.992    H   90 0.964    H   91 0.960
    53  C   3.989        C   52 0.992    H   94 0.988    H   92 0.988    H   93 0.983
    54  C   3.938        C   55 1.485    C   50 1.315    H   95 0.927
    55  C   3.950        C   54 1.485    C   56 1.147    C   70 1.056
    56  C   3.966        C   57 1.482    C   55 1.147    C   62 1.073
    57  C   3.923        C   56 1.482    C   60 1.098    C   58 1.094
    58  C   3.941        N   59 2.769    C   57 1.094
    59  N   2.969        C   58 2.769
    60  C   3.941        N   61 2.751    C   57 1.098
    61  N   2.967        C   60 2.751
    62  C   3.980        C   63 1.399    C   69 1.298    C   56 1.073
    63  C   3.969        C   62 1.399    C   64 1.394    H   96 0.953
    64  C   3.920        C   63 1.394    C   66 1.343    Cl  65 1.012
    65  Cl  1.160        C   64 1.012
    66  C   3.897        C   68 1.388    C   64 1.343    Cl  67 1.009
    67  Cl  1.157        C   66 1.009
    68  C   3.975        C   69 1.417    C   66 1.388    H   97 0.959
    69  C   3.975        C   68 1.417    C   62 1.298    C   70 1.016
    70  C   3.922        O   71 1.736    C   55 1.056    C   69 1.016
    71  O   2.081        C   70 1.736
    72  H   0.991        C    4 0.959
    73  H   0.991        C    9 0.953
    74  H   0.993        C   18 0.929
    75  H   0.995        C   24 0.957
    76  H   0.996        C   24 0.971
    77  H   0.998        C   25 0.984
    78  H   0.996        C   25 0.984
    79  H   0.998        C   25 0.988
    80  H   0.995        C   30 0.965
    81  H   0.994        C   30 0.955
    82  H   0.998        C   31 0.983
    83  H   0.998        C   31 0.986
    84  H   0.997        C   31 0.981
    85  H   0.996        C   42 0.961
    86  H   0.994        C   42 0.965
    87  H   0.996        C   43 0.982
    88  H   0.996        C   43 0.978
    89  H   0.997        C   43 0.979
    90  H   0.995        C   52 0.964
    91  H   0.996        C   52 0.960
    92  H   0.998        C   53 0.988
    93  H   0.995        C   53 0.983
    94  H   0.998        C   53 0.988
    95  H   0.993        C   54 0.927
    96  H   0.992        C   63 0.953
    97  H   0.991        C   68 0.959

molecular dipole:
                 x           y           z       tot (Debye)
 q only:        0.965      -0.522       1.822
   full:        0.209       0.160       0.096       0.711
molecular quadrupole (traceless):
                xx          xy          yy          xz          yz          zz
 q only:       39.669      70.592      -8.754      95.221     -67.745     -30.915
  q+dip:        7.267      91.450      -9.039      58.486     -60.557       1.772
   full:       11.009     103.969      -5.046      58.840     -61.650      -5.963


           -------------------------------------------------
          | TOTAL ENERGY             -190.504590197017 Eh   |
          | GRADIENT NORM               0.104134835989 Eh/α |
          | HOMO-LUMO GAP               1.078002133398 eV   |
           -------------------------------------------------

------------------------------------------------------------------------
 * finished run on 2020/11/20 at 13:45:00.372     
------------------------------------------------------------------------
 total:
 * wall-time:     0 d,  0 h,  0 min,  1.186 sec
 *  cpu-time:     0 d,  0 h,  0 min,  1.174 sec
 * ratio c/w:     0.990 speedup
 SCF:
 * wall-time:     0 d,  0 h,  0 min,  0.883 sec
 *  cpu-time:     0 d,  0 h,  0 min,  0.883 sec
 * ratio c/w:     1.000 speedup

