      -----------------------------------------------------------      
     |                   =====================                   |     
     |                           x T B                           |     
     |                   =====================                   |     
     |                         S. Grimme                         |     
     |          Mulliken Center for Theoretical Chemistry        |     
     |                    University of Bonn                     |     
     |                Version 6.2 RC2 (SAW190805)                |     
      -----------------------------------------------------------      

   This program is distributed in the hope that it will be useful,
   but WITHOUT ANY WARRANTY; without even the implied warranty of
   MERCHANTABILITY or FITNESS FOR A PARTICULAR PURPOSE.
   
   FOR NON-COMMERCIAL, ACADEMIA USE ONLY.
   
   Cite this work as:
   * S. Grimme, C. Bannwarth, P. Shushkov, J. Chem. Theory Comput., 2017,
     13, 1989-2009. DOI: 10.1021/acs.jctc.7b00118
   * C. Bannwarth, S. Ehlert and S. Grimme., J. Chem. Theory Comput., 2019,
     15, 1652-1671. DOI: 10.1021/acs.jctc.8b01176
   * P. Pracht, E. Caldeweyher, S. Ehlert, S. Grimme, ChemRxiv, 2019, preprint.
     DOI: 10.26434/chemrxiv.8326202.v1
   
   for DFT-D4:
   * E. Caldeweyher, C. Bannwarth and S. Grimme, J. Chem. Phys., 2017,
     147, 034112. DOI: 10.1063/1.4993215
   * E. Caldeweyher, S. Ehlert, A. Hansen, H. Neugebauer, S. Spicher,
     C. Bannwarth and S. Grimme, J. Chem. Phys., 2019, 150, 154122.
     DOI: 10.1063/1.5090222
   
   for sTDA-xTB:
   * S. Grimme and C. Bannwarth, J. Chem. Phys., 2016, 145, 054103.
     DOI: 10.1063/1.4959605
   
   in the mass-spec context:
   * V. Asgeirsson, C. Bauer and S. Grimme, Chem. Sci., 2017, 8, 4879.
     DOI: 10.1039/c7sc00601b
   
   for metadynamics refer to:
   * S. Grimme, J. Chem. Theory Comput., 2019, 155, 2847-2862
     DOI: 10.1021/acs.jctc.9b00143
   
   with help from (in alphabetical order)
   C. Bannwarth, F. Bohle, G. Brandenburg, E. Caldeweyher, M. Checinski,
   S. Dohm, S. Ehlert, S. Ehrlich, F. März, H. Neugebauer, J. Pisarek,
   P. Pracht, P. Shushkov, and S. Spicher.
   
 * started run on 2020/11/20 at 13:45:03.028     

           -------------------------------------------------
          |                Calculation Setup                |
           -------------------------------------------------

          program call               : /ihome/ghutchison/geoffh/xtb/xtb BTTPC-Br.xyz -sp
          hostname                   : smp-n25
          coordinate file            : BTTPC-Br.xyz
          omp threads                :                     1
          number of atoms            :                   103
          number of electrons        :                   360
          charge                     :                     0
          spin                       :                   0.0
          first test random number   :      0.05704325942727


########################################################################
# WARNING! Please study the warnings concerning your input carefully
#  - XTBPATH is not set, using XTBHOME instead
#  - the use of '-sp' is discouraged, please use '--sp' next time
########################################################################

           ------------------------------------------------- 
          |                 G F N 2 - x T B                 |
          | Geometry, Frequencies, Noncovalent interactions |
          |            JCTC 2019 parametrisation            |
           ------------------------------------------------- 
             KAB for C  - Si     :                1.0500
             KAB for H  - Pd     :                0.9500
             k(s)              :                1.8500
             k(p)              :                2.2300
             k(d)              :                2.2300
             k(f)              :                2.0000
             kEN (H0ij)        :               -2.0000
             D4 a1             :                0.5200
             D4 a2             :                5.0000
             D4 s6             :                1.0000
             D4 s8             :                2.7000
             D4 s9             :                5.0000
             alphaj            :                2.0000

  Z AO/shell   Hii/eV     exponent
  1     Wed Apr 25 08:07:45 CEST 2018   EN: 2.200 GM2: 0.406  GM3: 0.0800  RAES: 1.40
     1s    -10.707211    1.230000
  6     Wed Apr 25 08:07:45 CEST 2018   EN: 2.550 GM2: 0.538  GM3: 0.1500  RAES: 3.00
     2s    -13.970922    2.096432
     2p    -10.063292    1.800000
  7     Wed Apr 25 08:07:45 CEST 2018   EN: 3.040 GM2: 0.461  GM3:-0.0640  RAES: 1.90
     2s    -16.686243    2.339881
     2p    -12.523956    2.014332
  8     Wed Apr 25 08:07:45 CEST 2018   EN: 3.440 GM2: 0.452  GM3:-0.0517  RAES: 1.80
     2s    -20.229985    2.439742
     2p    -15.503117    2.137023
 16     Tue Apr 24 11:44:34 CEST 2018   EN: 2.580 GM2: 0.340  GM3:-0.0502  RAES: 3.10
     3s    -20.029654    1.981333
     3p    -11.377694    2.025643
     3d     -0.420282    1.702555
 35     Tue Apr 24 12:21:41 CEST 2018   EN: 2.960 GM2: 0.261  GM3: 0.1300  RAES: 4.00
     4s    -23.583718    2.077587
     4p    -12.588824    2.263120
     4d      0.047980    1.845038

           ------------------------------------------------- 
          |        Self-Consistent Charge Iterations        |
           ------------------------------------------------- 

          ...................................................
          :                      SETUP                      :
          :.................................................:
          :  # basis functions                 382          :
          :  # atomic orbitals                 373          :
          :  # shells                          187          :
          :  # electrons                       360          :
          :  max. iterations                   250          :
          :  Hamiltonian                  GFN2-xTB          :
          :  restarted?                      false          :
          :  GBSA solvation                  false          :
          :  PC potential                    false          :
          :  electronic temp.          300.0000000     K    :
          :  accuracy                    1.0000000          :
          :  -> integral cutoff          0.2500000E+02      :
          :  -> integral neglect         0.1000000E-07      :
          :  -> SCF convergence          0.1000000E-05 Eh   :
          :  -> wf. convergence          0.1000000E-03 e    :
          :  Broyden damping             0.4000000          :
          ...................................................

 iter      E             dE          RMSdq      gap      omega  full diag
   1   -198.8688122 -0.198869E+03  0.507E+00    1.35       0.0  T
   2   -198.9947782 -0.125966E+00  0.340E+00    1.04       1.0  T
   3   -198.9056602  0.891180E-01  0.211E+00    1.03       1.0  T
   4   -199.1911771 -0.285517E+00  0.819E-01    1.22       1.0  T
   5   -199.2455785 -0.544013E-01  0.298E-01    0.98       1.0  T
   6   -199.2495817 -0.400324E-02  0.177E-01    1.11       1.0  T
   7   -199.2510555 -0.147384E-02  0.869E-02    1.07       1.0  T
   8   -199.2513785 -0.322951E-03  0.562E-02    1.07       1.0  T
   9   -199.2514153 -0.368511E-04  0.435E-02    1.07       1.0  T
  10   -199.2514363 -0.209595E-04  0.315E-02    1.07       1.0  T
  11   -199.2514668 -0.305025E-04  0.169E-02    1.07       1.0  T
  12   -199.2514776 -0.108230E-04  0.958E-03    1.07       1.0  T
  13   -199.2514810 -0.342455E-05  0.467E-03    1.07       2.1  T
  14   -199.2514821 -0.110210E-05  0.198E-03    1.07       5.0  T
  15   -199.2514823 -0.156333E-06  0.973E-04    1.07      10.1  T
  16   -199.2514823 -0.275812E-07  0.586E-04    1.07      16.8  T

   *** convergence criteria satisfied after 16 iterations ***

         #    Occupation            Energy/Eh            Energy/eV
      -------------------------------------------------------------
         1        2.0000           -0.8623411             -23.4655
       ...           ...                  ...                  ...
       174        2.0000           -0.4100098             -11.1569
       175        2.0000           -0.4090267             -11.1302
       176        2.0000           -0.4074538             -11.0874
       177        2.0000           -0.3971655             -10.8074
       178        2.0000           -0.3921205             -10.6701
       179        2.0000           -0.3852042             -10.4819
       180        2.0000           -0.3779599             -10.2848 (HOMO)
       181                         -0.3386577              -9.2153 (LUMO)
       182                         -0.3358088              -9.1378
       183                         -0.3237732              -8.8103
       184                         -0.3211383              -8.7386
       185                         -0.3082619              -8.3882
       ...                                ...                  ...
       373                          1.0684644              29.0744
      -------------------------------------------------------------
                  HL-Gap            0.0393022 Eh            1.0695 eV
             Fermi-level           -0.3583317 Eh           -9.7507 eV

 SCC (total)                   0 d,  0 h,  0 min,  0.926 sec
 SCC setup                      ...        0 min,  0.003 sec (  0.331%)
 Dispersion                     ...        0 min,  0.007 sec (  0.786%)
 integral evaluation            ...        0 min,  0.266 sec ( 28.715%)
 zeroth order Hamiltonian       ...        0 min,  0.002 sec (  0.189%)
 iterations                     ...        0 min,  0.439 sec ( 47.429%)
 molecular gradient             ...        0 min,  0.206 sec ( 22.192%)
 printout                       ...        0 min,  0.003 sec (  0.349%)

         :::::::::::::::::::::::::::::::::::::::::::::::::::::
         ::                     SUMMARY                     ::
         :::::::::::::::::::::::::::::::::::::::::::::::::::::
         :: total energy            -196.520369725444 Eh    ::
         :: gradient norm              0.108225695394 Eh/a0 ::
         :: HOMO-LUMO gap              1.069466948747 eV    ::
         ::.................................................::
         :: SCC energy              -199.251482327994 Eh    ::
         :: -> isotropic ES            0.114798287439 Eh    ::
         :: -> anisotropic ES          0.012286672051 Eh    ::
         :: -> anisotropic XC          0.129320617122 Eh    ::
         :: -> dispersion             -0.178896202873 Eh    ::
         :: repulsion energy           2.732019922682 Eh    ::
         :: add. restraining           0.000000000000 Eh    ::
         :::::::::::::::::::::::::::::::::::::::::::::::::::::

           -------------------------------------------------
          |                Property Printout                |
           -------------------------------------------------

    * Orbital Energies and Occupations

         #    Occupation            Energy/Eh            Energy/eV
      -------------------------------------------------------------
         1        2.0000           -0.8623411             -23.4655
       ...           ...                  ...                  ...
       168        2.0000           -0.4217142             -11.4754
       169        2.0000           -0.4215092             -11.4698
       170        2.0000           -0.4201416             -11.4326
       171        2.0000           -0.4187703             -11.3953
       172        2.0000           -0.4124563             -11.2235
       173        2.0000           -0.4114206             -11.1953
       174        2.0000           -0.4100098             -11.1569
       175        2.0000           -0.4090267             -11.1302
       176        2.0000           -0.4074538             -11.0874
       177        2.0000           -0.3971655             -10.8074
       178        2.0000           -0.3921205             -10.6701
       179        2.0000           -0.3852042             -10.4819
       180        2.0000           -0.3779599             -10.2848 (HOMO)
       181                         -0.3386577              -9.2153 (LUMO)
       182                         -0.3358088              -9.1378
       183                         -0.3237732              -8.8103
       184                         -0.3211383              -8.7386
       185                         -0.3082619              -8.3882
       186                         -0.2913502              -7.9280
       187                         -0.2901255              -7.8947
       188                         -0.2791105              -7.5950
       189                         -0.2733045              -7.4370
       190                         -0.2581385              -7.0243
       191                         -0.2541974              -6.9171
       ...                                ...                  ...
       373                          1.0684644              29.0744
      -------------------------------------------------------------
                  HL-Gap            0.0393022 Eh            1.0695 eV
             Fermi-level           -0.3583317 Eh           -9.7507 eV

     #   Z        covCN         q      C6AA      α(0)
     1   6 C      2.852     0.226    23.267     7.906
     2   8 O      0.856    -0.366    21.021     6.147
     3   6 C      3.019    -0.021    28.508     8.758
     4   6 C      2.903    -0.018    28.458     8.747
     5   6 C      3.114     0.008    27.675     8.618
     6   6 C      2.990     0.029    27.341     8.577
     7   6 C      2.922    -0.034    28.843     8.807
     8   6 C      3.012     0.005    27.903     8.665
     9   6 C      3.001     0.028    27.373     8.582
    10   6 C      2.944     0.007    27.872     8.659
    11   6 C      1.912     0.119    28.184     8.574
    12   7 N      0.911    -0.232    26.071     7.385
    13   6 C      1.911     0.116    28.251     8.584
    14   7 N      0.911    -0.232    26.078     7.386
    15   6 C      2.989    -0.036    28.879     8.815
    16   6 C      2.934    -0.005    28.154     8.702
    17   6 C      2.986     0.024    27.471     8.598
    18  16 S      2.228    -0.047   143.013    20.128
    19   6 C      3.086     0.008    27.746     8.635
    20   6 C      3.162     0.009    27.494     8.571
    21   6 C      3.062     0.022    27.455     8.592
    22   6 C      3.800    -0.047    21.423     6.590
    23   6 C      3.746    -0.099    22.453     6.759
    24  16 S      2.153    -0.012   141.531    20.023
    25   6 C      3.068     0.006    27.813     8.647
    26   6 C      3.201     0.028    26.816     8.438
    27   7 N      2.782    -0.054    22.280     7.010
    28   6 C      3.740    -0.006    20.757     6.501
    29   6 C      3.746    -0.106    22.589     6.779
    30   6 C      3.043     0.029    27.305     8.570
    31   6 C      3.057    -0.030    28.682     8.783
    32   6 C      3.308     0.071    24.592     7.923
    33   7 N      1.843    -0.255    27.478     7.769
    34  16 S      2.651     0.285   129.965    19.187
    35   7 N      1.843    -0.256    27.502     7.772
    36   6 C      3.309     0.072    24.559     7.915
    37   6 C      3.057    -0.031    28.726     8.790
    38   6 C      3.041     0.029    27.323     8.573
    39   7 N      2.785    -0.043    22.070     6.977
    40   6 C      3.735     0.004    20.601     6.478
    41   6 C      3.746    -0.114    22.761     6.805
    42   6 C      3.192     0.027    26.913     8.460
    43   6 C      3.071     0.008    27.773     8.641
    44  16 S      2.151    -0.016   141.711    20.036
    45   6 C      3.162     0.010    27.475     8.568
    46   6 C      3.083     0.010    27.703     8.628
    47  16 S      2.249    -0.029   142.247    20.074
    48   6 C      2.980     0.017    27.628     8.622
    49   6 C      3.060     0.008    27.781     8.643
    50   6 C      3.799    -0.046    21.394     6.586
    51   6 C      3.745    -0.097    22.420     6.754
    52   6 C      2.953    -0.011    28.288     8.723
    53   6 C      2.983    -0.038    28.937     8.824
    54   6 C      3.000     0.031    27.303     8.571
    55   6 C      2.944     0.007    27.865     8.658
    56   6 C      1.911     0.117    28.221     8.579
    57   7 N      0.911    -0.234    26.136     7.394
    58   6 C      1.912     0.121    28.133     8.566
    59   7 N      0.911    -0.240    26.271     7.413
    60   6 C      3.013     0.004    27.924     8.668
    61   6 C      2.920    -0.034    28.847     8.808
    62   6 C      2.988     0.029    27.347     8.578
    63   6 C      3.117     0.008    27.670     8.616
    64   6 C      2.903    -0.018    28.455     8.747
    65   6 C      3.015    -0.021    28.510     8.759
    66   6 C      2.863     0.222    23.333     7.918
    67   8 O      0.856    -0.366    21.014     6.146
    68   6 C      3.072    -0.055    29.292     8.874
    69   6 C      2.919     0.090    26.004     8.362
    70  16 S      2.360     0.012   140.570    19.955
    71  16 S      2.360     0.014   140.472    19.948
    72   6 C      2.919     0.090    26.007     8.363
    73   6 C      3.072    -0.055    29.293     8.874
    74  35 Br     1.132    -0.108   188.019    22.109
    75  35 Br     1.132    -0.109   188.039    22.110
    76   1 H      0.924     0.068     2.105     2.269
    77   1 H      0.925     0.067     2.114     2.273
    78   1 H      0.924     0.063     2.170     2.303
    79   1 H      0.924     0.047     2.361     2.403
    80   1 H      0.923     0.066     2.125     2.280
    81   1 H      0.923     0.039     2.468     2.457
    82   1 H      0.923     0.044     2.394     2.420
    83   1 H      0.923     0.045     2.380     2.412
    84   1 H      0.925     0.068     2.111     2.272
    85   1 H      0.923     0.061     2.191     2.315
    86   1 H      0.923     0.046     2.369     2.407
    87   1 H      0.923     0.052     2.299     2.371
    88   1 H      0.923     0.049     2.337     2.391
    89   1 H      0.923     0.057     2.234     2.338
    90   1 H      0.924     0.056     2.241     2.341
    91   1 H      0.923     0.052     2.292     2.368
    92   1 H      0.923     0.063     2.166     2.301
    93   1 H      0.923     0.053     2.281     2.362
    94   1 H      0.922     0.052     2.289     2.366
    95   1 H      0.924     0.035     2.517     2.481
    96   1 H      0.924     0.041     2.441     2.443
    97   1 H      0.923     0.052     2.298     2.371
    98   1 H      0.923     0.043     2.415     2.430
    99   1 H      0.923     0.084     1.942     2.179
   100   1 H      0.925     0.066     2.134     2.284
   101   1 H      0.924     0.069     2.097     2.265
   102   1 H      0.925     0.068     2.107     2.270
   103   1 H      0.925     0.068     2.106     2.269

 Mol. C6AA /au·bohr⁶  :     240385.610060
 Mol. C8AA /au·bohr⁸  :    7431856.991002
 Mol. α(0) /au        :        785.941435


Wiberg/Mayer (AO) data.
largest (>0.10) Wiberg bond orders for each atom
          total WBO             WBO to atom ...
     1  C   3.927        O    2 1.772    C   15 1.016    C    3 1.015
     2  O   2.059        C    1 1.772
     3  C   3.977        C    4 1.470    C    8 1.252    C    1 1.015
     4  C   3.969        C    3 1.470    C    5 1.316    H   76 0.962
     5  C   3.960        C    4 1.316    C    6 1.265    C   73 1.202
     6  C   3.948        C    7 1.380    C    5 1.265    S   71 1.117
     7  C   3.971        C    8 1.422    C    6 1.380    H   77 0.958
     8  C   3.975        C    7 1.422    C    3 1.252    C    9 1.086
     9  C   3.968        C   10 1.490    C   15 1.129    C    8 1.086
    10  C   3.926        C    9 1.490    C   11 1.095    C   13 1.092
    11  C   3.941        N   12 2.770    C   10 1.095
    12  N   2.971        C   11 2.770
    13  C   3.942        N   14 2.772    C   10 1.092
    14  N   2.972        C   13 2.772
    15  C   3.955        C   16 1.558    C    9 1.129    C    1 1.016
    16  C   3.948        C   15 1.558    C   17 1.223    H   78 0.946
    17  C   3.919        C   21 1.423    C   16 1.223    S   18 1.063
    18  S   2.533        C   19 1.129    C   17 1.063
    19  C   3.934        C   20 1.335    C   26 1.243    S   18 1.129
    20  C   3.928        C   19 1.335    C   21 1.293    S   24 1.090
    21  C   3.954        C   17 1.423    C   20 1.293    C   22 1.016
    22  C   3.991        C   21 1.016    C   23 0.997    H   79 0.973    H   80 0.955
    23  C   3.992        C   22 0.997    H   81 0.988    H   83 0.985    H   82 0.985
    24  S   2.510        C   25 1.113    C   20 1.090
    25  C   3.922        C   26 1.324    C   31 1.259    S   24 1.113
    26  C   3.936        C   25 1.324    C   19 1.243    N   27 1.143
    27  N   3.517        C   30 1.153    C   26 1.143    C   28 0.972
    28  C   3.961        C   29 1.009    N   27 0.972    H   85 0.966    H   84 0.952
    29  C   3.989        C   28 1.009    H   88 0.986    H   86 0.985    H   87 0.982
    30  C   3.929        C   31 1.296    C   38 1.214    N   27 1.153
    31  C   3.951        C   30 1.296    C   25 1.259    C   32 1.158
    32  C   3.972        N   33 1.458    C   31 1.158    C   36 1.149    S   34 0.103
    33  N   3.072        C   32 1.458    S   34 1.359    N   35 0.147
    34  S   3.038        N   33 1.359    N   35 1.357    C   32 0.103    C   36 0.102
    35  N   3.071        C   36 1.459    S   34 1.357    N   33 0.147
    36  C   3.972        N   35 1.459    C   37 1.159    C   32 1.149    S   34 0.102
    37  C   3.951        C   38 1.284    C   43 1.269    C   36 1.159
    38  C   3.927        C   37 1.284    C   30 1.214    N   39 1.167
    39  N   3.541        C   38 1.167    C   42 1.147    C   40 0.976
    40  C   3.965        C   41 1.011    N   39 0.976    H   89 0.965    H   90 0.963
    41  C   3.985        C   40 1.011    H   93 0.982    H   92 0.978    H   91 0.977
    42  C   3.936        C   43 1.315    C   46 1.247    N   39 1.147
    43  C   3.921        C   42 1.315    C   37 1.269    S   44 1.110
    44  S   2.508        C   43 1.110    C   45 1.087
    45  C   3.930        C   46 1.323    C   49 1.311    S   44 1.087
    46  C   3.929        C   45 1.323    C   42 1.247    S   47 1.137
    47  S   2.551        C   46 1.137    C   48 1.067
    48  C   3.920        C   49 1.398    C   52 1.249    S   47 1.067
    49  C   3.959        C   48 1.398    C   45 1.311    C   50 1.014
    50  C   3.994        C   49 1.014    C   51 1.002    H   95 0.972    H   94 0.955
    51  C   3.991        C   50 1.002    H   98 0.985    H   96 0.982    H   97 0.981
    52  C   3.942        C   53 1.538    C   48 1.249    H   99 0.942
    53  C   3.956        C   52 1.538    C   54 1.148    C   66 1.010
    54  C   3.968        C   55 1.468    C   53 1.148    C   60 1.076
    55  C   3.938        C   54 1.468    C   58 1.100    C   56 1.098
    56  C   3.942        N   57 2.767    C   55 1.098
    57  N   2.966        C   56 2.767
    58  C   3.942        N   59 2.763    C   55 1.100
    59  N   2.978        C   58 2.763
    60  C   3.976        C   61 1.428    C   65 1.252    C   54 1.076
    61  C   3.971        C   60 1.428    C   62 1.377    H  100 0.959
    62  C   3.948        C   61 1.377    C   63 1.267    S   70 1.117
    63  C   3.962        C   64 1.318    C   62 1.267    C   68 1.200
    64  C   3.970        C   65 1.468    C   63 1.318    H  101 0.962
    65  C   3.976        C   64 1.468    C   60 1.252    C   66 1.021
    66  C   3.921        O   67 1.776    C   65 1.021    C   53 1.010
    67  O   2.042        C   66 1.776
    68  C   3.973        C   69 1.609    C   63 1.200    H  102 0.959
    69  C   3.901        C   68 1.609    S   70 1.130    Br  75 1.033
    70  S   2.553        C   69 1.130    C   62 1.117
    71  S   2.557        C   72 1.132    C    6 1.117
    72  C   3.900        C   73 1.607    S   71 1.132    Br  74 1.033
    73  C   3.973        C   72 1.607    C    5 1.202    H  103 0.959
    74  Br  1.176        C   72 1.033
    75  Br  1.176        C   69 1.033
    76  H   0.995        C    4 0.962
    77  H   0.995        C    7 0.958
    78  H   0.993        C   16 0.946
    79  H   0.997        C   22 0.973
    80  H   0.994        C   22 0.955
    81  H   0.998        C   23 0.988
    82  H   0.997        C   23 0.985
    83  H   0.998        C   23 0.985
    84  H   0.994        C   28 0.952
    85  H   0.995        C   28 0.966
    86  H   0.998        C   29 0.985
    87  H   0.997        C   29 0.982
    88  H   0.998        C   29 0.986
    89  H   0.994        C   40 0.965
    90  H   0.996        C   40 0.963
    91  H   0.997        C   41 0.977
    92  H   0.996        C   41 0.978
    93  H   0.996        C   41 0.982
    94  H   0.996        C   50 0.955
    95  H   0.998        C   50 0.972
    96  H   0.998        C   51 0.982
    97  H   0.997        C   51 0.981
    98  H   0.997        C   51 0.985
    99  H   0.990        C   52 0.942
   100  H   0.995        C   61 0.959
   101  H   0.995        C   64 0.962
   102  H   0.995        C   68 0.959
   103  H   0.995        C   73 0.959

molecular dipole:
                 x           y           z       tot (Debye)
 q only:        1.413       0.235      -0.238
   full:        1.952       0.295       0.021       5.017
molecular quadrupole (traceless):
                xx          xy          yy          xz          yz          zz
 q only:       -2.252      26.415     -55.129       7.168       5.179      57.382
  q+dip:       -0.602      49.286     -68.947       2.032      21.873      69.549
   full:        2.386      51.025     -76.301       0.189      26.618      73.915


           -------------------------------------------------
          | TOTAL ENERGY             -196.520369725444 Eh   |
          | GRADIENT NORM               0.108225695394 Eh/α |
          | HOMO-LUMO GAP               1.069466948747 eV   |
           -------------------------------------------------

------------------------------------------------------------------------
 * finished run on 2020/11/20 at 13:45:04.247     
------------------------------------------------------------------------
 total:
 * wall-time:     0 d,  0 h,  0 min,  1.220 sec
 *  cpu-time:     0 d,  0 h,  0 min,  1.214 sec
 * ratio c/w:     0.995 speedup
 SCF:
 * wall-time:     0 d,  0 h,  0 min,  0.927 sec
 *  cpu-time:     0 d,  0 h,  0 min,  0.927 sec
 * ratio c/w:     1.000 speedup

