      -----------------------------------------------------------      
     |                   =====================                   |     
     |                           x T B                           |     
     |                   =====================                   |     
     |                         S. Grimme                         |     
     |          Mulliken Center for Theoretical Chemistry        |     
     |                    University of Bonn                     |     
     |                Version 6.2 RC2 (SAW190805)                |     
      -----------------------------------------------------------      

   This program is distributed in the hope that it will be useful,
   but WITHOUT ANY WARRANTY; without even the implied warranty of
   MERCHANTABILITY or FITNESS FOR A PARTICULAR PURPOSE.
   
   FOR NON-COMMERCIAL, ACADEMIA USE ONLY.
   
   Cite this work as:
   * S. Grimme, C. Bannwarth, P. Shushkov, J. Chem. Theory Comput., 2017,
     13, 1989-2009. DOI: 10.1021/acs.jctc.7b00118
   * C. Bannwarth, S. Ehlert and S. Grimme., J. Chem. Theory Comput., 2019,
     15, 1652-1671. DOI: 10.1021/acs.jctc.8b01176
   * P. Pracht, E. Caldeweyher, S. Ehlert, S. Grimme, ChemRxiv, 2019, preprint.
     DOI: 10.26434/chemrxiv.8326202.v1
   
   for DFT-D4:
   * E. Caldeweyher, C. Bannwarth and S. Grimme, J. Chem. Phys., 2017,
     147, 034112. DOI: 10.1063/1.4993215
   * E. Caldeweyher, S. Ehlert, A. Hansen, H. Neugebauer, S. Spicher,
     C. Bannwarth and S. Grimme, J. Chem. Phys., 2019, 150, 154122.
     DOI: 10.1063/1.5090222
   
   for sTDA-xTB:
   * S. Grimme and C. Bannwarth, J. Chem. Phys., 2016, 145, 054103.
     DOI: 10.1063/1.4959605
   
   in the mass-spec context:
   * V. Asgeirsson, C. Bauer and S. Grimme, Chem. Sci., 2017, 8, 4879.
     DOI: 10.1039/c7sc00601b
   
   for metadynamics refer to:
   * S. Grimme, J. Chem. Theory Comput., 2019, 155, 2847-2862
     DOI: 10.1021/acs.jctc.9b00143
   
   with help from (in alphabetical order)
   C. Bannwarth, F. Bohle, G. Brandenburg, E. Caldeweyher, M. Checinski,
   S. Dohm, S. Ehlert, S. Ehrlich, F. März, H. Neugebauer, J. Pisarek,
   P. Pracht, P. Shushkov, and S. Spicher.
   
 * started run on 2021/04/12 at 13:53:10.232     

           -------------------------------------------------
          |                Calculation Setup                |
           -------------------------------------------------

          program call               : /ihome/ghutchison/geoffh/xtb/xtb CPDT-4Cl.xyz -sp
          hostname                   : smp-n149
          coordinate file            : CPDT-4Cl.xyz
          omp threads                :                     1
          number of atoms            :                    96
          number of electrons        :                   322
          charge                     :                     0
          spin                       :                   0.0
          first test random number   :      0.70148726302498


########################################################################
# WARNING! Please study the warnings concerning your input carefully
#  - XTBPATH is not set, using XTBHOME instead
#  - the use of '-sp' is discouraged, please use '--sp' next time
########################################################################

           ------------------------------------------------- 
          |                 G F N 2 - x T B                 |
          | Geometry, Frequencies, Noncovalent interactions |
          |            JCTC 2019 parametrisation            |
           ------------------------------------------------- 
             KAB for C  - Si     :                1.0500
             KAB for H  - Pd     :                0.9500
             k(s)              :                1.8500
             k(p)              :                2.2300
             k(d)              :                2.2300
             k(f)              :                2.0000
             kEN (H0ij)        :               -2.0000
             D4 a1             :                0.5200
             D4 a2             :                5.0000
             D4 s6             :                1.0000
             D4 s8             :                2.7000
             D4 s9             :                5.0000
             alphaj            :                2.0000

  Z AO/shell   Hii/eV     exponent
  1     Wed Apr 25 08:07:45 CEST 2018   EN: 2.200 GM2: 0.406  GM3: 0.0800  RAES: 1.40
     1s    -10.707211    1.230000
  6     Wed Apr 25 08:07:45 CEST 2018   EN: 2.550 GM2: 0.538  GM3: 0.1500  RAES: 3.00
     2s    -13.970922    2.096432
     2p    -10.063292    1.800000
  7     Wed Apr 25 08:07:45 CEST 2018   EN: 3.040 GM2: 0.461  GM3:-0.0640  RAES: 1.90
     2s    -16.686243    2.339881
     2p    -12.523956    2.014332
  8     Wed Apr 25 08:07:45 CEST 2018   EN: 3.440 GM2: 0.452  GM3:-0.0517  RAES: 1.80
     2s    -20.229985    2.439742
     2p    -15.503117    2.137023
 16     Tue Apr 24 11:44:34 CEST 2018   EN: 2.580 GM2: 0.340  GM3:-0.0502  RAES: 3.10
     3s    -20.029654    1.981333
     3p    -11.377694    2.025643
     3d     -0.420282    1.702555
 17     Mon Apr 23 14:09:22 CEST 2018   EN: 3.160 GM2: 0.249  GM3: 0.1495  RAES: 2.50
     3s    -29.278781    2.485265
     3p    -12.673758    2.199650
     3d     -0.240338    2.476089

           ------------------------------------------------- 
          |        Self-Consistent Charge Iterations        |
           ------------------------------------------------- 

          ...................................................
          :                      SETUP                      :
          :.................................................:
          :  # basis functions                 342          :
          :  # atomic orbitals                 334          :
          :  # shells                          170          :
          :  # electrons                       322          :
          :  max. iterations                   250          :
          :  Hamiltonian                  GFN2-xTB          :
          :  restarted?                      false          :
          :  GBSA solvation                  false          :
          :  PC potential                    false          :
          :  electronic temp.          300.0000000     K    :
          :  accuracy                    1.0000000          :
          :  -> integral cutoff          0.2500000E+02      :
          :  -> integral neglect         0.1000000E-07      :
          :  -> SCF convergence          0.1000000E-05 Eh   :
          :  -> wf. convergence          0.1000000E-03 e    :
          :  Broyden damping             0.4000000          :
          ...................................................

 iter      E             dE          RMSdq      gap      omega  full diag
   1   -179.7261691 -0.179726E+03  0.473E+00    1.07       0.0  T
   2   -179.7757103 -0.495412E-01  0.298E+00    1.06       1.0  T
   3   -179.5332321  0.242478E+00  0.224E+00    0.75       1.0  T
   4   -179.9168885 -0.383656E+00  0.712E-01    1.11       1.0  T
   5   -179.9623572 -0.454687E-01  0.254E-01    0.94       1.0  T
   6   -179.9651502 -0.279303E-02  0.137E-01    1.00       1.0  T
   7   -179.9664291 -0.127886E-02  0.663E-02    0.97       1.0  T
   8   -179.9666417 -0.212549E-03  0.372E-02    0.98       1.0  T
   9   -179.9666833 -0.416480E-04  0.272E-02    0.98       1.0  T
  10   -179.9666963 -0.129889E-04  0.203E-02    0.98       1.0  T
  11   -179.9667127 -0.164278E-04  0.132E-02    0.98       1.0  T
  12   -179.9667186 -0.585018E-05  0.759E-03    0.98       1.3  T
  13   -179.9667215 -0.295685E-05  0.369E-03    0.98       2.8  T
  14   -179.9667223 -0.816098E-06  0.152E-03    0.98       6.7  T
  15   -179.9667224 -0.834191E-07  0.798E-04    0.98      12.8  T
  16   -179.9667224 -0.146796E-07  0.525E-04    0.98      19.4  T

   *** convergence criteria satisfied after 16 iterations ***

         #    Occupation            Energy/Eh            Energy/eV
      -------------------------------------------------------------
         1        2.0000           -1.0754350             -29.2641
       ...           ...                  ...                  ...
       155        2.0000           -0.4165039             -11.3336
       156        2.0000           -0.4160286             -11.3207
       157        2.0000           -0.4129284             -11.2364
       158        2.0000           -0.4110982             -11.1866
       159        2.0000           -0.4093104             -11.1379
       160        2.0000           -0.3979093             -10.8277
       161        2.0000           -0.3796571             -10.3310 (HOMO)
       162                         -0.3436871              -9.3522 (LUMO)
       163                         -0.3365697              -9.1585
       164                         -0.3285837              -8.9412
       165                         -0.3253180              -8.8524
       166                         -0.3046385              -8.2896
       ...                                ...                  ...
       334                          1.0691171              29.0922
      -------------------------------------------------------------
                  HL-Gap            0.0359699 Eh            0.9788 eV
             Fermi-level           -0.3616724 Eh           -9.8416 eV

 SCC (total)                   0 d,  0 h,  0 min,  0.623 sec
 SCC setup                      ...        0 min,  0.002 sec (  0.362%)
 Dispersion                     ...        0 min,  0.004 sec (  0.692%)
 integral evaluation            ...        0 min,  0.193 sec ( 30.972%)
 zeroth order Hamiltonian       ...        0 min,  0.001 sec (  0.199%)
 iterations                     ...        0 min,  0.272 sec ( 43.570%)
 molecular gradient             ...        0 min,  0.149 sec ( 23.844%)
 printout                       ...        0 min,  0.002 sec (  0.352%)

         :::::::::::::::::::::::::::::::::::::::::::::::::::::
         ::                     SUMMARY                     ::
         :::::::::::::::::::::::::::::::::::::::::::::::::::::
         :: total energy            -177.504382321454 Eh    ::
         :: gradient norm              0.099189654965 Eh/a0 ::
         :: HOMO-LUMO gap              0.978791677367 eV    ::
         ::.................................................::
         :: SCC energy              -179.966722443031 Eh    ::
         :: -> isotropic ES            0.102238087627 Eh    ::
         :: -> anisotropic ES          0.005844851972 Eh    ::
         :: -> anisotropic XC          0.119497218815 Eh    ::
         :: -> dispersion             -0.152967618336 Eh    ::
         :: repulsion energy           2.462564110047 Eh    ::
         :: add. restraining           0.000000000000 Eh    ::
         :::::::::::::::::::::::::::::::::::::::::::::::::::::

           -------------------------------------------------
          |                Property Printout                |
           -------------------------------------------------

    * Orbital Energies and Occupations

         #    Occupation            Energy/Eh            Energy/eV
      -------------------------------------------------------------
         1        2.0000           -1.0754350             -29.2641
       ...           ...                  ...                  ...
       149        2.0000           -0.4338929             -11.8068
       150        2.0000           -0.4303946             -11.7116
       151        2.0000           -0.4280434             -11.6477
       152        2.0000           -0.4263118             -11.6005
       153        2.0000           -0.4247012             -11.5567
       154        2.0000           -0.4208779             -11.4527
       155        2.0000           -0.4165039             -11.3336
       156        2.0000           -0.4160286             -11.3207
       157        2.0000           -0.4129284             -11.2364
       158        2.0000           -0.4110982             -11.1866
       159        2.0000           -0.4093104             -11.1379
       160        2.0000           -0.3979093             -10.8277
       161        2.0000           -0.3796571             -10.3310 (HOMO)
       162                         -0.3436871              -9.3522 (LUMO)
       163                         -0.3365697              -9.1585
       164                         -0.3285837              -8.9412
       165                         -0.3253180              -8.8524
       166                         -0.3046385              -8.2896
       167                         -0.2858895              -7.7794
       168                         -0.2750407              -7.4842
       169                         -0.2653729              -7.2212
       170                         -0.2535576              -6.8997
       171                         -0.2497811              -6.7969
       172                         -0.2481004              -6.7512
       ...                                ...                  ...
       334                          1.0691171              29.0922
      -------------------------------------------------------------
                  HL-Gap            0.0359699 Eh            0.9788 eV
             Fermi-level           -0.3616724 Eh           -9.8416 eV

     #   Z        covCN         q      C6AA      α(0)
     1   6 C      2.943    -0.037    28.932     8.822
     2   6 C      2.902     0.093    25.936     8.350
     3   6 C      2.904     0.091    25.984     8.358
     4   6 C      2.939    -0.025    28.625     8.775
     5   6 C      3.022    -0.016    28.391     8.740
     6   6 C      3.014     0.009    27.803     8.649
     7   6 C      2.859     0.227    23.234     7.901
     8   6 C      2.990    -0.033    28.812     8.805
     9   6 C      3.003     0.035    27.204     8.556
    10   6 C      2.916    -0.010    28.274     8.720
    11   6 C      2.975     0.024    27.467     8.597
    12   6 C      3.044    -0.034    28.792     8.801
    13   6 C      3.175    -0.007    27.780     8.608
    14   6 C      3.056     0.027    27.345     8.576
    15  16 S      2.215    -0.012   141.533    20.023
    16   6 C      3.923     0.019    20.186     6.385
    17   6 C      3.196    -0.008    27.690     8.579
    18   6 C      3.047     0.016    27.609     8.618
    19   6 C      3.041    -0.047    29.132     8.853
    20   6 C      3.007     0.020    27.538     8.608
    21  16 S      2.231    -0.010   141.480    20.019
    22   6 C      3.013     0.021    27.526     8.606
    23  16 S      2.227    -0.009   141.410    20.014
    24   6 C      3.044     0.015    27.646     8.624
    25   6 C      3.201    -0.007    27.619     8.563
    26   6 C      3.041    -0.048    29.150     8.856
    27   6 C      3.045     0.025    27.395     8.584
    28   6 C      3.190    -0.007    27.692     8.583
    29   6 C      3.923     0.018    20.210     6.389
    30  16 S      2.239     0.006   140.803    19.971
    31   6 C      2.975     0.024    27.457     8.595
    32   6 C      3.027    -0.042    29.012     8.835
    33   6 C      2.942    -0.014    28.372     8.736
    34   6 C      2.983    -0.038    28.936     8.824
    35   6 C      3.001     0.030    27.315     8.573
    36   6 C      3.010     0.007    27.849     8.657
    37   6 C      3.026    -0.017    28.411     8.743
    38   6 C      2.858     0.226    23.267     7.906
    39   6 C      2.945    -0.039    28.967     8.827
    40   6 C      2.902     0.092    25.950     8.353
    41   6 C      2.906     0.090    25.993     8.360
    42   6 C      2.939    -0.026    28.643     8.778
    43  17 Cl     0.968    -0.120   102.903    15.519
    44  17 Cl     0.974    -0.117   102.818    15.513
    45   8 O      0.856    -0.378    21.238     6.179
    46   6 C      2.943     0.008    27.836     8.653
    47   6 C      1.916     0.119    28.163     8.570
    48   6 C      1.914     0.119    28.167     8.571
    49   6 C      3.798    -0.051    21.488     6.600
    50   6 C      3.798    -0.048    21.438     6.593
    51   6 C      3.745    -0.103    22.538     6.772
    52   6 C      3.745    -0.097    22.421     6.754
    53   6 C      3.798    -0.050    21.479     6.599
    54   6 C      3.800    -0.049    21.445     6.593
    55   6 C      3.745    -0.101    22.495     6.766
    56   6 C      3.745    -0.097    22.422     6.755
    57   8 O      0.856    -0.352    20.746     6.107
    58  17 Cl     0.971    -0.115   102.758    15.508
    59  17 Cl     0.966    -0.117   102.815    15.513
    60   6 C      2.944     0.010    27.788     8.646
    61   6 C      1.911     0.118    28.203     8.577
    62   6 C      1.911     0.121    28.136     8.566
    63   7 N      0.911    -0.237    26.194     7.402
    64   7 N      0.911    -0.227    25.971     7.371
    65   7 N      0.911    -0.228    25.980     7.372
    66   7 N      0.911    -0.232    26.080     7.386
    67   1 H      0.925     0.088     1.896     2.153
    68   1 H      0.924     0.093     1.854     2.130
    69   1 H      0.924     0.081     1.968     2.194
    70   1 H      0.925     0.059     2.216     2.328
    71   1 H      0.924     0.052     2.299     2.371
    72   1 H      0.924     0.052     2.299     2.371
    73   1 H      0.925     0.106     1.731     2.057
    74   1 H      0.925     0.071     2.072     2.251
    75   1 H      0.925     0.089     1.888     2.149
    76   1 H      0.924     0.091     1.868     2.137
    77   1 H      0.923     0.050     2.317     2.381
    78   1 H      0.923     0.040     2.444     2.445
    79   1 H      0.923     0.035     2.517     2.481
    80   1 H      0.923     0.041     2.439     2.442
    81   1 H      0.923     0.047     2.358     2.401
    82   1 H      0.923     0.042     2.427     2.436
    83   1 H      0.923     0.042     2.428     2.437
    84   1 H      0.923     0.035     2.513     2.479
    85   1 H      0.923     0.042     2.426     2.436
    86   1 H      0.923     0.032     2.563     2.504
    87   1 H      0.923     0.045     2.377     2.411
    88   1 H      0.923     0.042     2.426     2.436
    89   1 H      0.923     0.043     2.406     2.426
    90   1 H      0.923     0.041     2.435     2.440
    91   1 H      0.923     0.044     2.391     2.418
    92   1 H      0.923     0.044     2.391     2.418
    93   1 H      0.923     0.037     2.488     2.467
    94   1 H      0.923     0.034     2.535     2.490
    95   1 H      0.923     0.042     2.426     2.436
    96   1 H      0.923     0.034     2.535     2.490

 Mol. C6AA /au·bohr⁶  :     184751.291860
 Mol. C8AA /au·bohr⁸  :    5401875.431683
 Mol. α(0) /au        :        682.620228


Wiberg/Mayer (AO) data.
largest (>0.10) Wiberg bond orders for each atom
          total WBO             WBO to atom ...
     1  C   3.971        C    6 1.401    C    2 1.394    H   67 0.956
     2  C   3.920        C    1 1.394    C    3 1.341    Cl  58 1.013
     3  C   3.913        C    4 1.388    C    2 1.341    Cl  59 1.011
     4  C   3.976        C    5 1.418    C    3 1.388    H   68 0.958
     5  C   3.973        C    4 1.418    C    6 1.293    C    7 1.010
     6  C   3.980        C    1 1.401    C    5 1.293    C    9 1.072
     7  C   3.921        O   57 1.785    C    8 1.012    C    5 1.010
     8  C   3.950        C   10 1.543    C    9 1.136    C    7 1.012
     9  C   3.968        C   60 1.486    C    8 1.136    C    6 1.072
    10  C   3.940        C    8 1.543    C   11 1.247    H   69 0.944
    11  C   3.910        C   12 1.395    C   10 1.247    S   15 1.097
    12  C   3.964        C   11 1.395    C   13 1.392    H   70 0.959
    13  C   3.951        C   12 1.392    C   14 1.345    C   16 0.983
    14  C   3.932        C   13 1.345    C   18 1.204    S   15 1.176
    15  S   2.587        C   14 1.176    C   11 1.097
    16  C   3.985        C   17 0.983    C   13 0.983    C   53 0.963    C   54 0.948
    17  C   3.948        C   18 1.370    C   19 1.361    C   16 0.983
    18  C   3.916        C   17 1.370    C   14 1.204    S   21 1.148
    19  C   3.961        C   20 1.433    C   17 1.361    H   71 0.959
    20  C   3.898        C   19 1.433    C   22 1.198    S   21 1.114
    21  S   2.569        C   18 1.148    C   20 1.114
    22  C   3.896        C   26 1.430    C   20 1.198    S   23 1.118
    23  S   2.568        C   24 1.144    C   22 1.118
    24  C   3.921        C   25 1.367    C   27 1.207    S   23 1.144
    25  C   3.945        C   24 1.367    C   26 1.365    C   29 0.985
    26  C   3.961        C   22 1.430    C   25 1.365    H   72 0.958
    27  C   3.924        C   28 1.312    C   24 1.207    S   30 1.206
    28  C   3.953        C   32 1.428    C   27 1.312    C   29 0.985
    29  C   3.986        C   25 0.985    C   28 0.985    C   49 0.957    C   50 0.952
    30  S   2.594        C   27 1.206    C   31 1.074
    31  C   3.908        C   32 1.358    C   33 1.305    S   30 1.074
    32  C   3.952        C   28 1.428    C   31 1.358    H   73 0.931
    33  C   3.945        C   34 1.487    C   31 1.305    H   74 0.942
    34  C   3.946        C   33 1.487    C   35 1.144    C   38 1.050
    35  C   3.965        C   46 1.486    C   34 1.144    C   36 1.074
    36  C   3.979        C   39 1.398    C   37 1.298    C   35 1.074
    37  C   3.977        C   42 1.415    C   36 1.298    C   38 1.019
    38  C   3.920        O   45 1.740    C   34 1.050    C   37 1.019
    39  C   3.969        C   36 1.398    C   40 1.395    H   75 0.953
    40  C   3.919        C   39 1.395    C   41 1.342    Cl  44 1.012
    41  C   3.896        C   42 1.389    C   40 1.342    Cl  43 1.009
    42  C   3.975        C   37 1.415    C   41 1.389    H   76 0.959
    43  Cl  1.156        C   41 1.009
    44  Cl  1.159        C   40 1.012
    45  O   2.043        C   38 1.740
    46  C   3.921        C   35 1.486    C   48 1.096    C   47 1.093
    47  C   3.941        N   65 2.769    C   46 1.093
    48  C   3.941        N   66 2.757    C   46 1.096
    49  C   3.992        C   52 1.021    H   78 0.974    H   77 0.970    C   29 0.957
    50  C   3.992        C   51 1.020    H   79 0.977    H   80 0.973    C   29 0.952
    51  C   3.992        C   50 1.020    H   82 0.983    H   83 0.983    H   81 0.982
    52  C   3.996        C   49 1.021    H   86 0.987    H   84 0.986    H   85 0.985
    53  C   3.993        C   56 1.021    H   88 0.973    H   87 0.970    C   16 0.963
    54  C   3.991        C   55 1.020    H   89 0.976    H   90 0.973    C   16 0.948
    55  C   3.993        C   54 1.020    H   91 0.984    H   92 0.983    H   93 0.983
    56  C   3.996        C   53 1.021    H   96 0.987    H   94 0.986    H   95 0.985
    57  O   2.050        C    7 1.785
    58  Cl  1.161        C    2 1.013
    59  Cl  1.157        C    3 1.011
    60  C   3.964        C    9 1.486    C   61 1.096    C   62 1.095
    61  C   3.942        N   64 2.771    C   60 1.096
    62  C   3.942        N   63 2.772    C   60 1.095
    63  N   2.979        C   62 2.772
    64  N   2.971        C   61 2.771
    65  N   2.969        C   47 2.769
    66  N   2.966        C   48 2.757
    67  H   0.992        C    1 0.956
    68  H   0.991        C    4 0.958
    69  H   0.990        C   10 0.944
    70  H   0.996        C   12 0.959
    71  H   0.997        C   19 0.959
    72  H   0.997        C   26 0.958
    73  H   0.988        C   32 0.931
    74  H   0.994        C   33 0.942
    75  H   0.992        C   39 0.953
    76  H   0.991        C   42 0.959
    77  H   0.996        C   49 0.970
    78  H   0.997        C   49 0.974
    79  H   0.999        C   50 0.977
    80  H   0.997        C   50 0.973
    81  H   0.998        C   51 0.982
    82  H   0.997        C   51 0.983
    83  H   0.998        C   51 0.983
    84  H   0.999        C   52 0.986
    85  H   0.998        C   52 0.985
    86  H   0.999        C   52 0.987
    87  H   0.997        C   53 0.970
    88  H   0.997        C   53 0.973
    89  H   0.998        C   54 0.976
    90  H   0.997        C   54 0.973
    91  H   0.998        C   55 0.984
    92  H   0.997        C   55 0.983
    93  H   0.999        C   55 0.983
    94  H   0.999        C   56 0.986
    95  H   0.998        C   56 0.985
    96  H   0.999        C   56 0.987

molecular dipole:
                 x           y           z       tot (Debye)
 q only:        0.902       1.581       2.041
   full:        0.043       0.959       2.369       6.497
molecular quadrupole (traceless):
                xx          xy          yy          xz          yz          zz
 q only:       18.423     114.580     -34.293     103.539     -91.935      15.870
  q+dip:      -15.721      96.003      11.604     100.327     -65.815       4.117
   full:      -17.495      91.726       7.590     109.147     -72.234       9.905


           -------------------------------------------------
          | TOTAL ENERGY             -177.504382321454 Eh   |
          | GRADIENT NORM               0.099189654965 Eh/α |
          | HOMO-LUMO GAP               0.978791677367 eV   |
           -------------------------------------------------

------------------------------------------------------------------------
 * finished run on 2021/04/12 at 13:53:11.072     
------------------------------------------------------------------------
 total:
 * wall-time:     0 d,  0 h,  0 min,  0.840 sec
 *  cpu-time:     0 d,  0 h,  0 min,  0.829 sec
 * ratio c/w:     0.988 speedup
 SCF:
 * wall-time:     0 d,  0 h,  0 min,  0.624 sec
 *  cpu-time:     0 d,  0 h,  0 min,  0.623 sec
 * ratio c/w:     0.998 speedup

