      -----------------------------------------------------------      
     |                   =====================                   |     
     |                           x T B                           |     
     |                   =====================                   |     
     |                         S. Grimme                         |     
     |          Mulliken Center for Theoretical Chemistry        |     
     |                    University of Bonn                     |     
     |                Version 6.2 RC2 (SAW190805)                |     
      -----------------------------------------------------------      

   This program is distributed in the hope that it will be useful,
   but WITHOUT ANY WARRANTY; without even the implied warranty of
   MERCHANTABILITY or FITNESS FOR A PARTICULAR PURPOSE.
   
   FOR NON-COMMERCIAL, ACADEMIA USE ONLY.
   
   Cite this work as:
   * S. Grimme, C. Bannwarth, P. Shushkov, J. Chem. Theory Comput., 2017,
     13, 1989-2009. DOI: 10.1021/acs.jctc.7b00118
   * C. Bannwarth, S. Ehlert and S. Grimme., J. Chem. Theory Comput., 2019,
     15, 1652-1671. DOI: 10.1021/acs.jctc.8b01176
   * P. Pracht, E. Caldeweyher, S. Ehlert, S. Grimme, ChemRxiv, 2019, preprint.
     DOI: 10.26434/chemrxiv.8326202.v1
   
   for DFT-D4:
   * E. Caldeweyher, C. Bannwarth and S. Grimme, J. Chem. Phys., 2017,
     147, 034112. DOI: 10.1063/1.4993215
   * E. Caldeweyher, S. Ehlert, A. Hansen, H. Neugebauer, S. Spicher,
     C. Bannwarth and S. Grimme, J. Chem. Phys., 2019, 150, 154122.
     DOI: 10.1063/1.5090222
   
   for sTDA-xTB:
   * S. Grimme and C. Bannwarth, J. Chem. Phys., 2016, 145, 054103.
     DOI: 10.1063/1.4959605
   
   in the mass-spec context:
   * V. Asgeirsson, C. Bauer and S. Grimme, Chem. Sci., 2017, 8, 4879.
     DOI: 10.1039/c7sc00601b
   
   for metadynamics refer to:
   * S. Grimme, J. Chem. Theory Comput., 2019, 155, 2847-2862
     DOI: 10.1021/acs.jctc.9b00143
   
   with help from (in alphabetical order)
   C. Bannwarth, F. Bohle, G. Brandenburg, E. Caldeweyher, M. Checinski,
   S. Dohm, S. Ehlert, S. Ehrlich, F. März, H. Neugebauer, J. Pisarek,
   P. Pracht, P. Shushkov, and S. Spicher.
   
 * started run on 2021/04/12 at 13:53:11.090     

           -------------------------------------------------
          |                Calculation Setup                |
           -------------------------------------------------

          program call               : /ihome/ghutchison/geoffh/xtb/xtb CPDT-4F.xyz -sp
          hostname                   : smp-n149
          coordinate file            : CPDT-4F.xyz
          omp threads                :                     1
          number of atoms            :                    96
          number of electrons        :                   322
          charge                     :                     0
          spin                       :                   0.0
          first test random number   :      0.15357432703200


########################################################################
# WARNING! Please study the warnings concerning your input carefully
#  - XTBPATH is not set, using XTBHOME instead
#  - the use of '-sp' is discouraged, please use '--sp' next time
########################################################################

           ------------------------------------------------- 
          |                 G F N 2 - x T B                 |
          | Geometry, Frequencies, Noncovalent interactions |
          |            JCTC 2019 parametrisation            |
           ------------------------------------------------- 
             KAB for C  - Si     :                1.0500
             KAB for H  - Pd     :                0.9500
             k(s)              :                1.8500
             k(p)              :                2.2300
             k(d)              :                2.2300
             k(f)              :                2.0000
             kEN (H0ij)        :               -2.0000
             D4 a1             :                0.5200
             D4 a2             :                5.0000
             D4 s6             :                1.0000
             D4 s8             :                2.7000
             D4 s9             :                5.0000
             alphaj            :                2.0000

  Z AO/shell   Hii/eV     exponent
  1     Wed Apr 25 08:07:45 CEST 2018   EN: 2.200 GM2: 0.406  GM3: 0.0800  RAES: 1.40
     1s    -10.707211    1.230000
  6     Wed Apr 25 08:07:45 CEST 2018   EN: 2.550 GM2: 0.538  GM3: 0.1500  RAES: 3.00
     2s    -13.970922    2.096432
     2p    -10.063292    1.800000
  7     Wed Apr 25 08:07:45 CEST 2018   EN: 3.040 GM2: 0.461  GM3:-0.0640  RAES: 1.90
     2s    -16.686243    2.339881
     2p    -12.523956    2.014332
  8     Wed Apr 25 08:07:45 CEST 2018   EN: 3.440 GM2: 0.452  GM3:-0.0517  RAES: 1.80
     2s    -20.229985    2.439742
     2p    -15.503117    2.137023
  9     Mon Apr 23 13:58:50 CEST 2018   EN: 3.980 GM2: 0.532  GM3: 0.1426  RAES: 2.40
     2s    -23.458179    2.416361
     2p    -15.746583    2.308399
 16     Tue Apr 24 11:44:34 CEST 2018   EN: 2.580 GM2: 0.340  GM3:-0.0502  RAES: 3.10
     3s    -20.029654    1.981333
     3p    -11.377694    2.025643
     3d     -0.420282    1.702555

           ------------------------------------------------- 
          |        Self-Consistent Charge Iterations        |
           ------------------------------------------------- 

          ...................................................
          :                      SETUP                      :
          :.................................................:
          :  # basis functions                 318          :
          :  # atomic orbitals                 314          :
          :  # shells                          166          :
          :  # electrons                       322          :
          :  max. iterations                   250          :
          :  Hamiltonian                  GFN2-xTB          :
          :  restarted?                      false          :
          :  GBSA solvation                  false          :
          :  PC potential                    false          :
          :  electronic temp.          300.0000000     K    :
          :  accuracy                    1.0000000          :
          :  -> integral cutoff          0.2500000E+02      :
          :  -> integral neglect         0.1000000E-07      :
          :  -> SCF convergence          0.1000000E-05 Eh   :
          :  -> wf. convergence          0.1000000E-03 e    :
          :  Broyden damping             0.4000000          :
          ...................................................

 iter      E             dE          RMSdq      gap      omega  full diag
   1   -180.4423294 -0.180442E+03  0.491E+00    1.10       0.0  T
   2   -180.4871907 -0.448612E-01  0.315E+00    1.09       1.0  T
   3   -180.2251396  0.262051E+00  0.233E+00    0.72       1.0  T
   4   -180.6428323 -0.417693E+00  0.733E-01    1.14       1.0  T
   5   -180.6920633 -0.492310E-01  0.240E-01    0.98       1.0  T
   6   -180.6937532 -0.168988E-02  0.131E-01    1.02       1.0  T
   7   -180.6949853 -0.123212E-02  0.533E-02    1.00       1.0  T
   8   -180.6951647 -0.179414E-03  0.194E-02    1.00       1.0  T
   9   -180.6951848 -0.200637E-04  0.998E-03    1.00       1.0  T
  10   -180.6951890 -0.419054E-05  0.499E-03    1.00       2.0  T
  11   -180.6951904 -0.143715E-05  0.189E-03    1.00       5.4  T
  12   -180.6951906 -0.220080E-06  0.898E-04    1.00      11.4  T
  13   -180.6951906 -0.274589E-07  0.559E-04    1.00      18.3  T

   *** convergence criteria satisfied after 13 iterations ***

         #    Occupation            Energy/Eh            Energy/eV
      -------------------------------------------------------------
         1        2.0000           -0.8502902             -23.1376
       ...           ...                  ...                  ...
       155        2.0000           -0.4253662             -11.5748
       156        2.0000           -0.4227921             -11.5048
       157        2.0000           -0.4172104             -11.3529
       158        2.0000           -0.4157651             -11.3135
       159        2.0000           -0.4148934             -11.2898
       160        2.0000           -0.4017690             -10.9327
       161        2.0000           -0.3836103             -10.4386 (HOMO)
       162                         -0.3467579              -9.4358 (LUMO)
       163                         -0.3401486              -9.2559
       164                         -0.3331964              -9.0667
       165                         -0.3290706              -8.9545
       166                         -0.3066548              -8.3445
       ...                                ...                  ...
       314                          1.0654956              28.9936
      -------------------------------------------------------------
                  HL-Gap            0.0368524 Eh            1.0028 eV
             Fermi-level           -0.3651845 Eh           -9.9372 eV

 SCC (total)                   0 d,  0 h,  0 min,  0.509 sec
 SCC setup                      ...        0 min,  0.002 sec (  0.412%)
 Dispersion                     ...        0 min,  0.004 sec (  0.832%)
 integral evaluation            ...        0 min,  0.169 sec ( 33.237%)
 zeroth order Hamiltonian       ...        0 min,  0.001 sec (  0.223%)
 iterations                     ...        0 min,  0.195 sec ( 38.312%)
 molecular gradient             ...        0 min,  0.135 sec ( 26.595%)
 printout                       ...        0 min,  0.002 sec (  0.379%)

         :::::::::::::::::::::::::::::::::::::::::::::::::::::
         ::                     SUMMARY                     ::
         :::::::::::::::::::::::::::::::::::::::::::::::::::::
         :: total energy            -178.208936668968 Eh    ::
         :: gradient norm              0.101712064133 Eh/a0 ::
         :: HOMO-LUMO gap              1.002804800569 eV    ::
         ::.................................................::
         :: SCC energy              -180.695190644422 Eh    ::
         :: -> isotropic ES            0.128454262209 Eh    ::
         :: -> anisotropic ES          0.012248215838 Eh    ::
         :: -> anisotropic XC          0.100082301508 Eh    ::
         :: -> dispersion             -0.142607108097 Eh    ::
         :: repulsion energy           2.487083193024 Eh    ::
         :: add. restraining           0.000000000000 Eh    ::
         :::::::::::::::::::::::::::::::::::::::::::::::::::::

           -------------------------------------------------
          |                Property Printout                |
           -------------------------------------------------

    * Orbital Energies and Occupations

         #    Occupation            Energy/Eh            Energy/eV
      -------------------------------------------------------------
         1        2.0000           -0.8502902             -23.1376
       ...           ...                  ...                  ...
       149        2.0000           -0.4408492             -11.9961
       150        2.0000           -0.4391954             -11.9511
       151        2.0000           -0.4333525             -11.7921
       152        2.0000           -0.4301040             -11.7037
       153        2.0000           -0.4285649             -11.6618
       154        2.0000           -0.4278226             -11.6416
       155        2.0000           -0.4253662             -11.5748
       156        2.0000           -0.4227921             -11.5048
       157        2.0000           -0.4172104             -11.3529
       158        2.0000           -0.4157651             -11.3135
       159        2.0000           -0.4148934             -11.2898
       160        2.0000           -0.4017690             -10.9327
       161        2.0000           -0.3836103             -10.4386 (HOMO)
       162                         -0.3467579              -9.4358 (LUMO)
       163                         -0.3401486              -9.2559
       164                         -0.3331964              -9.0667
       165                         -0.3290706              -8.9545
       166                         -0.3066548              -8.3445
       167                         -0.2885287              -7.8513
       168                         -0.2780937              -7.5673
       169                         -0.2677695              -7.2864
       170                         -0.2537323              -6.9044
       171                         -0.2533025              -6.8927
       172                         -0.2524502              -6.8695
       ...                                ...                  ...
       314                          1.0654956              28.9936
      -------------------------------------------------------------
                  HL-Gap            0.0368524 Eh            1.0028 eV
             Fermi-level           -0.3651845 Eh           -9.9372 eV

     #   Z        covCN         q      C6AA      α(0)
     1   6 C      2.908    -0.051    29.254     8.869
     2   6 C      2.775     0.162    24.484     8.104
     3   6 C      2.777     0.160    24.518     8.110
     4   6 C      2.906    -0.038    28.940     8.821
     5   6 C      3.025    -0.019    28.467     8.752
     6   6 C      3.014     0.005    27.898     8.664
     7   6 C      2.862     0.225    23.273     7.907
     8   6 C      2.986    -0.038    28.931     8.823
     9   6 C      3.000     0.030    27.315     8.573
    10   6 C      2.905    -0.015    28.378     8.735
    11   6 C      2.970     0.019    27.574     8.613
    12   6 C      3.044    -0.040    28.941     8.823
    13   6 C      3.159    -0.009    27.915     8.638
    14   6 C      3.056     0.013    27.661     8.625
    15  16 S      2.181     0.068   138.298    19.793
    16   6 C      3.921     0.019    20.200     6.388
    17   6 C      3.194    -0.008    27.695     8.581
    18   6 C      3.048     0.016    27.602     8.617
    19   6 C      3.040    -0.048    29.144     8.855
    20   6 C      3.007     0.019    27.558     8.611
    21  16 S      2.231    -0.005   141.269    20.004
    22   6 C      3.012     0.021    27.530     8.607
    23  16 S      2.228    -0.008   141.366    20.011
    24   6 C      3.043     0.014    27.654     8.625
    25   6 C      3.200    -0.007    27.628     8.565
    26   6 C      3.041    -0.048    29.154     8.856
    27   6 C      3.046     0.026    27.389     8.583
    28   6 C      3.186    -0.007    27.726     8.592
    29   6 C      3.923     0.018    20.206     6.389
    30  16 S      2.246     0.009   140.696    19.964
    31   6 C      2.974     0.024    27.461     8.596
    32   6 C      3.026    -0.039    28.953     8.826
    33   6 C      2.948    -0.014    28.364     8.735
    34   6 C      2.983    -0.038    28.947     8.825
    35   6 C      3.001     0.030    27.321     8.574
    36   6 C      3.012     0.005    27.899     8.664
    37   6 C      3.027    -0.020    28.479     8.754
    38   6 C      2.857     0.226    23.259     7.905
    39   6 C      2.908    -0.051    29.270     8.871
    40   6 C      2.775     0.162    24.483     8.104
    41   6 C      2.777     0.160    24.527     8.111
    42   6 C      2.906    -0.038    28.944     8.822
    43   9 F      0.787    -0.182    11.056     3.928
    44   9 F      0.787    -0.181    11.040     3.925
    45   8 O      0.856    -0.375    21.183     6.171
    46   6 C      2.943     0.009    27.813     8.650
    47   6 C      1.916     0.119    28.163     8.570
    48   6 C      1.915     0.119    28.164     8.571
    49   6 C      3.798    -0.051    21.489     6.600
    50   6 C      3.799    -0.048    21.437     6.592
    51   6 C      3.745    -0.102    22.528     6.771
    52   6 C      3.745    -0.097    22.427     6.755
    53   6 C      3.798    -0.051    21.488     6.600
    54   6 C      3.799    -0.049    21.448     6.594
    55   6 C      3.745    -0.101    22.509     6.768
    56   6 C      3.745    -0.097    22.430     6.756
    57   8 O      0.865    -0.357    20.844     6.121
    58   9 F      0.787    -0.181    11.040     3.925
    59   9 F      0.787    -0.182    11.052     3.927
    60   6 C      2.943     0.009    27.828     8.652
    61   6 C      1.914     0.119    28.178     8.573
    62   6 C      1.914     0.120    28.139     8.567
    63   7 N      0.911    -0.235    26.160     7.397
    64   7 N      0.911    -0.225    25.924     7.364
    65   7 N      0.911    -0.225    25.924     7.364
    66   7 N      0.911    -0.230    26.033     7.379
    67   1 H      0.925     0.091     1.873     2.140
    68   1 H      0.924     0.092     1.858     2.132
    69   1 H      0.925     0.073     2.057     2.243
    70   1 H      0.924     0.060     2.204     2.322
    71   1 H      0.924     0.051     2.303     2.373
    72   1 H      0.924     0.052     2.292     2.368
    73   1 H      0.925     0.102     1.763     2.077
    74   1 H      0.925     0.072     2.067     2.248
    75   1 H      0.925     0.091     1.866     2.136
    76   1 H      0.924     0.092     1.861     2.133
    77   1 H      0.923     0.050     2.321     2.382
    78   1 H      0.923     0.041     2.441     2.443
    79   1 H      0.923     0.035     2.520     2.482
    80   1 H      0.923     0.041     2.433     2.439
    81   1 H      0.923     0.045     2.379     2.412
    82   1 H      0.923     0.042     2.423     2.435
    83   1 H      0.923     0.042     2.424     2.435
    84   1 H      0.923     0.036     2.507     2.476
    85   1 H      0.923     0.042     2.419     2.432
    86   1 H      0.923     0.032     2.564     2.504
    87   1 H      0.923     0.047     2.358     2.401
    88   1 H      0.923     0.041     2.431     2.438
    89   1 H      0.923     0.035     2.511     2.478
    90   1 H      0.923     0.042     2.424     2.435
    91   1 H      0.923     0.041     2.442     2.444
    92   1 H      0.923     0.043     2.407     2.426
    93   1 H      0.923     0.041     2.430     2.438
    94   1 H      0.923     0.035     2.518     2.481
    95   1 H      0.923     0.042     2.420     2.433
    96   1 H      0.923     0.034     2.537     2.491

 Mol. C6AA /au·bohr⁶  :     161338.561243
 Mol. C8AA /au·bohr⁸  :    4463148.891985
 Mol. α(0) /au        :        635.486503


Wiberg/Mayer (AO) data.
largest (>0.10) Wiberg bond orders for each atom
          total WBO             WBO to atom ...
     1  C   3.971        C    2 1.398    C    6 1.391    H   67 0.954
     2  C   3.888        C    1 1.398    C    3 1.318    F   58 0.995
     3  C   3.865        C    4 1.392    C    2 1.318    F   59 0.994
     4  C   3.977        C    5 1.408    C    3 1.392    H   68 0.959
     5  C   3.975        C    4 1.408    C    6 1.313    C    7 1.015
     6  C   3.980        C    1 1.391    C    5 1.313    C    9 1.072
     7  C   3.924        O   57 1.741    C    8 1.056    C    5 1.015
     8  C   3.949        C   10 1.485    C    9 1.147    C    7 1.056
     9  C   3.968        C   60 1.485    C    8 1.147    C    6 1.072
    10  C   3.940        C    8 1.485    C   11 1.311    H   69 0.936
    11  C   3.917        C   12 1.335    C   10 1.311    S   15 1.101
    12  C   3.963        C   13 1.443    C   11 1.335    H   70 0.959
    13  C   3.951        C   12 1.443    C   14 1.308    C   16 0.982
    14  C   3.932        C   13 1.308    S   15 1.214    C   18 1.206
    15  S   2.689        C   14 1.214    C   11 1.101
    16  C   3.986        C   17 0.983    C   13 0.982    C   53 0.962    C   54 0.952
    17  C   3.943        C   18 1.370    C   19 1.362    C   16 0.983
    18  C   3.916        C   17 1.370    C   14 1.206    S   21 1.148
    19  C   3.961        C   20 1.432    C   17 1.362    H   71 0.959
    20  C   3.895        C   19 1.432    C   22 1.195    S   21 1.118
    21  S   2.573        C   18 1.148    C   20 1.118
    22  C   3.897        C   26 1.432    C   20 1.195    S   23 1.118
    23  S   2.569        C   24 1.145    C   22 1.118
    24  C   3.922        C   25 1.370    C   27 1.205    S   23 1.145
    25  C   3.945        C   24 1.370    C   26 1.362    C   29 0.984
    26  C   3.961        C   22 1.432    C   25 1.362    H   72 0.958
    27  C   3.925        C   28 1.314    S   30 1.208    C   24 1.205
    28  C   3.953        C   32 1.426    C   27 1.314    C   29 0.984
    29  C   3.986        C   25 0.984    C   28 0.984    C   49 0.959    C   50 0.951
    30  S   2.598        C   27 1.208    C   31 1.076
    31  C   3.909        C   32 1.360    C   33 1.302    S   30 1.076
    32  C   3.954        C   28 1.426    C   31 1.360    H   73 0.936
    33  C   3.946        C   34 1.490    C   31 1.302    H   74 0.941
    34  C   3.948        C   33 1.490    C   35 1.144    C   38 1.049
    35  C   3.969        C   46 1.488    C   34 1.144    C   36 1.074
    36  C   3.980        C   39 1.388    C   37 1.314    C   35 1.074
    37  C   3.976        C   42 1.406    C   36 1.314    C   38 1.016
    38  C   3.921        O   45 1.747    C   34 1.049    C   37 1.016
    39  C   3.971        C   40 1.400    C   36 1.388    H   75 0.953
    40  C   3.887        C   39 1.400    C   41 1.316    F   44 0.995
    41  C   3.880        C   42 1.393    C   40 1.316    F   43 0.994
    42  C   3.977        C   37 1.406    C   41 1.393    H   76 0.959
    43  F   1.134        C   41 0.994
    44  F   1.138        C   40 0.995
    45  O   2.045        C   38 1.747
    46  C   3.940        C   35 1.488    C   48 1.095    C   47 1.093
    47  C   3.941        N   65 2.770    C   46 1.093
    48  C   3.942        N   66 2.758    C   46 1.095
    49  C   3.992        C   52 1.021    H   78 0.974    H   77 0.970    C   29 0.959
    50  C   3.992        C   51 1.020    H   79 0.977    H   80 0.973    C   29 0.951
    51  C   3.992        C   50 1.020    H   82 0.983    H   83 0.983    H   81 0.983
    52  C   3.996        C   49 1.021    H   86 0.987    H   84 0.986    H   85 0.985
    53  C   3.993        C   56 1.021    H   88 0.973    H   87 0.970    C   16 0.962
    54  C   3.992        C   55 1.020    H   89 0.977    H   90 0.973    C   16 0.952
    55  C   3.993        C   54 1.020    H   91 0.984    H   92 0.983    H   93 0.983
    56  C   3.996        C   53 1.021    H   96 0.987    H   94 0.986    H   95 0.985
    57  O   2.081        C    7 1.741
    58  F   1.138        C    2 0.995
    59  F   1.135        C    3 0.994
    60  C   3.923        C    9 1.485    C   62 1.096    C   61 1.094
    61  C   3.941        N   64 2.770    C   60 1.094
    62  C   3.941        N   63 2.758    C   60 1.096
    63  N   2.966        C   62 2.758
    64  N   2.970        C   61 2.770
    65  N   2.971        C   47 2.770
    66  N   2.967        C   48 2.758
    67  H   0.991        C    1 0.954
    68  H   0.991        C    4 0.959
    69  H   0.994        C   10 0.936
    70  H   0.996        C   12 0.959
    71  H   0.997        C   19 0.959
    72  H   0.997        C   26 0.958
    73  H   0.989        C   32 0.936
    74  H   0.994        C   33 0.941
    75  H   0.991        C   39 0.953
    76  H   0.991        C   42 0.959
    77  H   0.996        C   49 0.970
    78  H   0.997        C   49 0.974
    79  H   0.999        C   50 0.977
    80  H   0.997        C   50 0.973
    81  H   0.998        C   51 0.983
    82  H   0.997        C   51 0.983
    83  H   0.998        C   51 0.983
    84  H   0.999        C   52 0.986
    85  H   0.998        C   52 0.985
    86  H   0.999        C   52 0.987
    87  H   0.997        C   53 0.970
    88  H   0.997        C   53 0.973
    89  H   0.998        C   54 0.977
    90  H   0.997        C   54 0.973
    91  H   0.998        C   55 0.984
    92  H   0.997        C   55 0.983
    93  H   0.998        C   55 0.983
    94  H   0.999        C   56 0.986
    95  H   0.998        C   56 0.985
    96  H   0.999        C   56 0.987

molecular dipole:
                 x           y           z       tot (Debye)
 q only:        0.819       0.496       1.003
   full:        0.382       0.042       1.218       3.246
molecular quadrupole (traceless):
                xx          xy          yy          xz          yz          zz
 q only:       17.687     130.650     -71.609      97.257     -90.369      53.923
  q+dip:        2.005     123.253     -53.878     106.155     -89.591      51.872
   full:       -0.409     123.888     -61.976     115.938     -90.687      62.385


           -------------------------------------------------
          | TOTAL ENERGY             -178.208936668968 Eh   |
          | GRADIENT NORM               0.101712064133 Eh/α |
          | HOMO-LUMO GAP               1.002804800569 eV   |
           -------------------------------------------------

------------------------------------------------------------------------
 * finished run on 2021/04/12 at 13:53:11.782     
------------------------------------------------------------------------
 total:
 * wall-time:     0 d,  0 h,  0 min,  0.692 sec
 *  cpu-time:     0 d,  0 h,  0 min,  0.690 sec
 * ratio c/w:     0.997 speedup
 SCF:
 * wall-time:     0 d,  0 h,  0 min,  0.510 sec
 *  cpu-time:     0 d,  0 h,  0 min,  0.509 sec
 * ratio c/w:     0.998 speedup

