      -----------------------------------------------------------      
     |                   =====================                   |     
     |                           x T B                           |     
     |                   =====================                   |     
     |                         S. Grimme                         |     
     |          Mulliken Center for Theoretical Chemistry        |     
     |                    University of Bonn                     |     
     |                Version 6.2 RC2 (SAW190805)                |     
      -----------------------------------------------------------      

   This program is distributed in the hope that it will be useful,
   but WITHOUT ANY WARRANTY; without even the implied warranty of
   MERCHANTABILITY or FITNESS FOR A PARTICULAR PURPOSE.
   
   FOR NON-COMMERCIAL, ACADEMIA USE ONLY.
   
   Cite this work as:
   * S. Grimme, C. Bannwarth, P. Shushkov, J. Chem. Theory Comput., 2017,
     13, 1989-2009. DOI: 10.1021/acs.jctc.7b00118
   * C. Bannwarth, S. Ehlert and S. Grimme., J. Chem. Theory Comput., 2019,
     15, 1652-1671. DOI: 10.1021/acs.jctc.8b01176
   * P. Pracht, E. Caldeweyher, S. Ehlert, S. Grimme, ChemRxiv, 2019, preprint.
     DOI: 10.26434/chemrxiv.8326202.v1
   
   for DFT-D4:
   * E. Caldeweyher, C. Bannwarth and S. Grimme, J. Chem. Phys., 2017,
     147, 034112. DOI: 10.1063/1.4993215
   * E. Caldeweyher, S. Ehlert, A. Hansen, H. Neugebauer, S. Spicher,
     C. Bannwarth and S. Grimme, J. Chem. Phys., 2019, 150, 154122.
     DOI: 10.1063/1.5090222
   
   for sTDA-xTB:
   * S. Grimme and C. Bannwarth, J. Chem. Phys., 2016, 145, 054103.
     DOI: 10.1063/1.4959605
   
   in the mass-spec context:
   * V. Asgeirsson, C. Bauer and S. Grimme, Chem. Sci., 2017, 8, 4879.
     DOI: 10.1039/c7sc00601b
   
   for metadynamics refer to:
   * S. Grimme, J. Chem. Theory Comput., 2019, 155, 2847-2862
     DOI: 10.1021/acs.jctc.9b00143
   
   with help from (in alphabetical order)
   C. Bannwarth, F. Bohle, G. Brandenburg, E. Caldeweyher, M. Checinski,
   S. Dohm, S. Ehlert, S. Ehrlich, F. März, H. Neugebauer, J. Pisarek,
   P. Pracht, P. Shushkov, and S. Spicher.
   
 * started run on 2021/04/12 at 13:53:11.798     

           -------------------------------------------------
          |                Calculation Setup                |
           -------------------------------------------------

          program call               : /ihome/ghutchison/geoffh/xtb/xtb DTG-IW.xyz -sp
          hostname                   : smp-n149
          coordinate file            : DTG-IW.xyz
          omp threads                :                     1
          number of atoms            :                   143
          number of electrons        :                   414
          charge                     :                     0
          spin                       :                   0.0
          first test random number   :      0.45583163422797


########################################################################
# WARNING! Please study the warnings concerning your input carefully
#  - XTBPATH is not set, using XTBHOME instead
#  - the use of '-sp' is discouraged, please use '--sp' next time
########################################################################

           ------------------------------------------------- 
          |                 G F N 2 - x T B                 |
          | Geometry, Frequencies, Noncovalent interactions |
          |            JCTC 2019 parametrisation            |
           ------------------------------------------------- 
             KAB for C  - Si     :                1.0500
             KAB for H  - Pd     :                0.9500
             k(s)              :                1.8500
             k(p)              :                2.2300
             k(d)              :                2.2300
             k(f)              :                2.0000
             kEN (H0ij)        :               -2.0000
             D4 a1             :                0.5200
             D4 a2             :                5.0000
             D4 s6             :                1.0000
             D4 s8             :                2.7000
             D4 s9             :                5.0000
             alphaj            :                2.0000

  Z AO/shell   Hii/eV     exponent
  1     Wed Apr 25 08:07:45 CEST 2018   EN: 2.200 GM2: 0.406  GM3: 0.0800  RAES: 1.40
     1s    -10.707211    1.230000
  6     Wed Apr 25 08:07:45 CEST 2018   EN: 2.550 GM2: 0.538  GM3: 0.1500  RAES: 3.00
     2s    -13.970922    2.096432
     2p    -10.063292    1.800000
  7     Wed Apr 25 08:07:45 CEST 2018   EN: 3.040 GM2: 0.461  GM3:-0.0640  RAES: 1.90
     2s    -16.686243    2.339881
     2p    -12.523956    2.014332
  8     Wed Apr 25 08:07:45 CEST 2018   EN: 3.440 GM2: 0.452  GM3:-0.0517  RAES: 1.80
     2s    -20.229985    2.439742
     2p    -15.503117    2.137023
  9     Mon Apr 23 13:58:50 CEST 2018   EN: 3.980 GM2: 0.532  GM3: 0.1426  RAES: 2.40
     2s    -23.458179    2.416361
     2p    -15.746583    2.308399
 16     Tue Apr 24 11:44:34 CEST 2018   EN: 2.580 GM2: 0.340  GM3:-0.0502  RAES: 3.10
     3s    -20.029654    1.981333
     3p    -11.377694    2.025643
     3d     -0.420282    1.702555
 32     Tue Apr 24 21:32:01 CEST 2018   EN: 2.010 GM2: 0.802  GM3:-0.0065  RAES: 5.00
     4s    -16.369792    1.990429
     4p     -8.207673    1.830340
     4d     -0.994226    1.100000

           ------------------------------------------------- 
          |        Self-Consistent Charge Iterations        |
           ------------------------------------------------- 

          ...................................................
          :                      SETUP                      :
          :.................................................:
          :  # basis functions                 416          :
          :  # atomic orbitals                 411          :
          :  # shells                          229          :
          :  # electrons                       414          :
          :  max. iterations                   250          :
          :  Hamiltonian                  GFN2-xTB          :
          :  restarted?                      false          :
          :  GBSA solvation                  false          :
          :  PC potential                    false          :
          :  electronic temp.          300.0000000     K    :
          :  accuracy                    1.0000000          :
          :  -> integral cutoff          0.2500000E+02      :
          :  -> integral neglect         0.1000000E-07      :
          :  -> SCF convergence          0.1000000E-05 Eh   :
          :  -> wf. convergence          0.1000000E-03 e    :
          :  Broyden damping             0.4000000          :
          ...................................................

 iter      E             dE          RMSdq      gap      omega  full diag
   1   -228.9696982 -0.228970E+03  0.427E+00    1.30       0.0  T
   2   -228.8035413  0.166157E+00  0.321E+00    1.21       1.0  T
   3   -228.8453347 -0.417935E-01  0.214E+00    0.93       1.0  T
   4   -229.3840393 -0.538705E+00  0.908E-01    1.02       1.0  T
   5   -229.5386462 -0.154607E+00  0.356E-01    0.96       1.0  T
   6   -229.5495938 -0.109476E-01  0.152E-01    0.94       1.0  T
   7   -229.5496704 -0.765204E-04  0.109E-01    0.99       1.0  T
   8   -229.5507786 -0.110826E-02  0.376E-02    0.96       1.0  T
   9   -229.5509705 -0.191897E-03  0.161E-02    0.98       1.0  T
  10   -229.5509879 -0.174345E-04  0.750E-03    0.97       1.1  T
  11   -229.5509929 -0.495810E-05  0.321E-03    0.97       2.6  T
  12   -229.5509937 -0.816601E-06  0.185E-03    0.97       4.5  T
  13   -229.5509938 -0.102273E-06  0.916E-04    0.97       9.1  T
  14   -229.5509939 -0.572332E-07  0.453E-04    0.97      18.5  T

   *** convergence criteria satisfied after 14 iterations ***

         #    Occupation            Energy/Eh            Energy/eV
      -------------------------------------------------------------
         1        2.0000           -0.8504447             -23.1418
       ...           ...                  ...                  ...
       201        2.0000           -0.4158423             -11.3156
       202        2.0000           -0.4146277             -11.2826
       203        2.0000           -0.4133268             -11.2472
       204        2.0000           -0.4102649             -11.1639
       205        2.0000           -0.4094816             -11.1426
       206        2.0000           -0.3971231             -10.8063
       207        2.0000           -0.3775790             -10.2744 (HOMO)
       208                         -0.3418000              -9.3009 (LUMO)
       209                         -0.3390772              -9.2268
       210                         -0.3301113              -8.9828
       211                         -0.3272596              -8.9052
       212                         -0.3013143              -8.1992
       ...                                ...                  ...
       411                          1.1919330              32.4341
      -------------------------------------------------------------
                  HL-Gap            0.0357791 Eh            0.9736 eV
             Fermi-level           -0.3597158 Eh           -9.7884 eV

 SCC (total)                   0 d,  0 h,  0 min,  0.960 sec
 SCC setup                      ...        0 min,  0.004 sec (  0.394%)
 Dispersion                     ...        0 min,  0.008 sec (  0.786%)
 integral evaluation            ...        0 min,  0.289 sec ( 30.079%)
 zeroth order Hamiltonian       ...        0 min,  0.002 sec (  0.191%)
 iterations                     ...        0 min,  0.398 sec ( 41.454%)
 molecular gradient             ...        0 min,  0.256 sec ( 26.706%)
 printout                       ...        0 min,  0.004 sec (  0.384%)

         :::::::::::::::::::::::::::::::::::::::::::::::::::::
         ::                     SUMMARY                     ::
         :::::::::::::::::::::::::::::::::::::::::::::::::::::
         :: total energy            -226.421171841791 Eh    ::
         :: gradient norm              0.119130892108 Eh/a0 ::
         :: HOMO-LUMO gap              0.973597842541 eV    ::
         ::.................................................::
         :: SCC energy              -229.550993883081 Eh    ::
         :: -> isotropic ES            0.132781263338 Eh    ::
         :: -> anisotropic ES          0.028169118598 Eh    ::
         :: -> anisotropic XC          0.130680430692 Eh    ::
         :: -> dispersion             -0.195780418529 Eh    ::
         :: repulsion energy           3.126925130870 Eh    ::
         :: add. restraining           0.000000000000 Eh    ::
         :::::::::::::::::::::::::::::::::::::::::::::::::::::

           -------------------------------------------------
          |                Property Printout                |
           -------------------------------------------------

    * Orbital Energies and Occupations

         #    Occupation            Energy/Eh            Energy/eV
      -------------------------------------------------------------
         1        2.0000           -0.8504447             -23.1418
       ...           ...                  ...                  ...
       195        2.0000           -0.4269546             -11.6180
       196        2.0000           -0.4259737             -11.5913
       197        2.0000           -0.4253765             -11.5751
       198        2.0000           -0.4236372             -11.5278
       199        2.0000           -0.4185096             -11.3882
       200        2.0000           -0.4169731             -11.3464
       201        2.0000           -0.4158423             -11.3156
       202        2.0000           -0.4146277             -11.2826
       203        2.0000           -0.4133268             -11.2472
       204        2.0000           -0.4102649             -11.1639
       205        2.0000           -0.4094816             -11.1426
       206        2.0000           -0.3971231             -10.8063
       207        2.0000           -0.3775790             -10.2744 (HOMO)
       208                         -0.3418000              -9.3009 (LUMO)
       209                         -0.3390772              -9.2268
       210                         -0.3301113              -8.9828
       211                         -0.3272596              -8.9052
       212                         -0.3013143              -8.1992
       213                         -0.2843616              -7.7379
       214                         -0.2786714              -7.5830
       215                         -0.2631084              -7.1595
       216                         -0.2549022              -6.9362
       217                         -0.2510713              -6.8320
       218                         -0.2504865              -6.8161
       ...                                ...                  ...
       411                          1.1919330              32.4341
      -------------------------------------------------------------
                  HL-Gap            0.0357791 Eh            0.9736 eV
             Fermi-level           -0.3597158 Eh           -9.7884 eV

     #   Z        covCN         q      C6AA      α(0)
     1   6 C      3.085     0.009    27.724     8.632
     2   6 C      3.004     0.022    27.500     8.602
     3  16 S      2.286    -0.021   141.913    20.050
     4   6 C      2.963     0.027    27.405     8.587
     5   6 C      3.094    -0.038    28.821     8.799
     6   6 C      2.912    -0.011    28.292     8.722
     7   6 C      2.989    -0.035    28.862     8.813
     8   6 C      3.001     0.034    27.216     8.558
     9   6 C      2.944     0.012    27.746     8.639
    10   6 C      1.911     0.118    28.205     8.577
    11   7 N      0.911    -0.226    25.951     7.368
    12   6 C      1.912     0.121    28.132     8.566
    13   7 N      0.911    -0.228    25.996     7.374
    14   6 C      3.016     0.006    27.860     8.658
    15   6 C      2.907    -0.050    29.235     8.866
    16   6 C      2.775     0.163    24.475     8.103
    17   9 F      0.787    -0.180    11.034     3.924
    18   6 C      2.777     0.161    24.516     8.110
    19   9 F      0.787    -0.182    11.050     3.927
    20   6 C      2.906    -0.037    28.931     8.820
    21   6 C      3.024    -0.019    28.462     8.751
    22   6 C      2.862     0.226    23.256     7.905
    23   8 O      0.856    -0.354    20.783     6.112
    24   6 C      3.092     0.006    27.774     8.638
    25   6 C      3.009     0.020    27.553     8.610
    26  16 S      2.338    -0.002   141.132    19.995
    27   6 C      2.964     0.027    27.402     8.586
    28   6 C      3.074    -0.043    28.982     8.827
    29   6 C      2.949    -0.011    28.293     8.724
    30   6 C      2.984    -0.037    28.917     8.821
    31   6 C      3.002     0.030    27.316     8.573
    32   6 C      2.944     0.010    27.787     8.646
    33   6 C      1.915     0.119    28.162     8.570
    34   7 N      0.911    -0.224    25.908     7.362
    35   6 C      1.914     0.119    28.183     8.574
    36   7 N      0.911    -0.227    25.956     7.369
    37   6 C      3.014     0.005    27.887     8.662
    38   6 C      2.908    -0.052    29.279     8.873
    39   6 C      2.776     0.163    24.474     8.103
    40   9 F      0.788    -0.180    11.034     3.924
    41   6 C      2.777     0.160    24.525     8.111
    42   9 F      0.787    -0.182    11.053     3.927
    43   6 C      2.906    -0.038    28.945     8.822
    44   6 C      3.027    -0.020    28.476     8.753
    45   6 C      2.857     0.227    23.237     7.901
    46   8 O      0.856    -0.371    21.115     6.161
    47   6 C      3.801    -0.061    21.670     6.628
    48   6 C      3.845    -0.019    20.879     6.500
    49   6 C      3.797    -0.056    21.576     6.614
    50   6 C      3.744    -0.095    22.382     6.749
    51   6 C      3.798    -0.056    21.580     6.614
    52   6 C      3.744    -0.098    22.448     6.759
    53   6 C      3.008     0.014    27.675     8.629
    54  16 S      2.242    -0.020   141.871    20.047
    55   6 C      3.094     0.016    27.546     8.602
    56   6 C      3.012    -0.073    29.796     8.954
    57   6 C      3.064    -0.041    28.949     8.823
    58   6 C      3.093     0.015    27.564     8.605
    59   6 C      3.017    -0.072    29.766     8.949
    60  32 Ge     3.785     0.186   167.858    23.254
    61  16 S      2.263    -0.019   141.840    20.045
    62   6 C      3.012     0.014    27.687     8.631
    63   6 C      3.061    -0.041    28.967     8.826
    64   6 C      3.801    -0.061    21.671     6.628
    65   6 C      3.845    -0.021    20.921     6.506
    66   6 C      3.797    -0.055    21.561     6.612
    67   6 C      3.744    -0.097    22.418     6.754
    68   6 C      3.798    -0.053    21.527     6.606
    69   6 C      3.745    -0.099    22.462     6.761
    70   6 C      3.709    -0.100    22.564     6.789
    71   6 C      3.711    -0.098    22.516     6.781
    72   6 C      3.867    -0.018    20.860     6.495
    73   6 C      3.796    -0.055    21.571     6.613
    74   6 C      3.745    -0.095    22.377     6.748
    75   6 C      3.798    -0.055    21.573     6.613
    76   6 C      3.745    -0.095    22.388     6.750
    77   6 C      3.866    -0.018    20.847     6.493
    78   6 C      3.797    -0.057    21.610     6.619
    79   6 C      3.745    -0.098    22.438     6.757
    80   6 C      3.798    -0.057    21.599     6.617
    81   6 C      3.744    -0.094    22.363     6.746
    82   1 H      0.925     0.058     2.218     2.329
    83   1 H      0.923     0.084     1.941     2.179
    84   1 H      0.925     0.089     1.888     2.149
    85   1 H      0.924     0.094     1.844     2.124
    86   1 H      0.925     0.099     1.795     2.095
    87   1 H      0.924     0.069     2.097     2.265
    88   1 H      0.925     0.092     1.863     2.135
    89   1 H      0.924     0.092     1.862     2.134
    90   1 H      0.923     0.056     2.246     2.344
    91   1 H      0.923     0.049     2.338     2.391
    92   1 H      0.923     0.037     2.494     2.470
    93   1 H      0.923     0.039     2.459     2.453
    94   1 H      0.922     0.028     2.613     2.528
    95   1 H      0.923     0.030     2.591     2.517
    96   1 H      0.923     0.034     2.530     2.488
    97   1 H      0.923     0.027     2.630     2.536
    98   1 H      0.923     0.032     2.553     2.499
    99   1 H      0.922     0.030     2.587     2.516
   100   1 H      0.923     0.033     2.539     2.492
   101   1 H      0.923     0.037     2.494     2.470
   102   1 H      0.923     0.034     2.532     2.489
   103   1 H      0.924     0.043     2.411     2.428
   104   1 H      0.924     0.045     2.389     2.417
   105   1 H      0.922     0.046     2.367     2.406
   106   1 H      0.923     0.049     2.326     2.385
   107   1 H      0.923     0.044     2.400     2.423
   108   1 H      0.923     0.039     2.458     2.452
   109   1 H      0.922     0.026     2.640     2.541
   110   1 H      0.923     0.041     2.437     2.441
   111   1 H      0.923     0.031     2.574     2.509
   112   1 H      0.923     0.024     2.675     2.558
   113   1 H      0.923     0.029     2.604     2.524
   114   1 H      0.922     0.024     2.681     2.561
   115   1 H      0.923     0.036     2.502     2.474
   116   1 H      0.923     0.035     2.523     2.484
   117   1 H      0.923     0.034     2.524     2.485
   118   1 H      0.923     0.044     2.393     2.419
   119   1 H      0.923     0.051     2.304     2.374
   120   1 H      0.923     0.051     2.302     2.373
   121   1 H      0.923     0.051     2.304     2.374
   122   1 H      0.922     0.032     2.560     2.502
   123   1 H      0.923     0.037     2.486     2.466
   124   1 H      0.922     0.031     2.579     2.512
   125   1 H      0.923     0.029     2.607     2.525
   126   1 H      0.923     0.035     2.520     2.482
   127   1 H      0.923     0.029     2.599     2.521
   128   1 H      0.923     0.035     2.518     2.482
   129   1 H      0.922     0.032     2.563     2.504
   130   1 H      0.923     0.029     2.596     2.520
   131   1 H      0.923     0.033     2.541     2.493
   132   1 H      0.923     0.035     2.520     2.483
   133   1 H      0.922     0.035     2.516     2.481
   134   1 H      0.923     0.040     2.445     2.445
   135   1 H      0.922     0.032     2.554     2.499
   136   1 H      0.923     0.031     2.568     2.506
   137   1 H      0.923     0.037     2.492     2.469
   138   1 H      0.923     0.030     2.593     2.518
   139   1 H      0.923     0.038     2.480     2.463
   140   1 H      0.922     0.033     2.551     2.498
   141   1 H      0.923     0.028     2.611     2.527
   142   1 H      0.923     0.035     2.519     2.482
   143   1 H      0.923     0.034     2.527     2.486

 Mol. C6AA /au·bohr⁶  :     282443.825176
 Mol. C8AA /au·bohr⁸  :    7660835.137692
 Mol. α(0) /au        :        833.196749


Wiberg/Mayer (AO) data.
largest (>0.10) Wiberg bond orders for each atom
          total WBO             WBO to atom ...
     1  C   3.962        C    2 1.394    C    5 1.361    C   47 1.014
     2  C   3.924        C    1 1.394    C   53 1.168    S    3 1.145
     3  S   2.592        C    2 1.145    C    4 1.111
     4  C   3.933        C    5 1.408    C    6 1.243    S    3 1.111
     5  C   3.971        C    4 1.408    C    1 1.361    H   82 0.954
     6  C   3.941        C    7 1.544    C    4 1.243    H   83 0.942
     7  C   3.959        C    6 1.544    C    8 1.142    C   22 1.012
     8  C   3.973        C    9 1.487    C    7 1.142    C   14 1.069
     9  C   3.966        C    8 1.487    C   10 1.096    C   12 1.094
    10  C   3.942        N   11 2.771    C    9 1.096
    11  N   2.970        C   10 2.771
    12  C   3.943        N   13 2.774    C    9 1.094
    13  N   2.982        C   12 2.774
    14  C   3.980        C   15 1.392    C   21 1.309    C    8 1.069
    15  C   3.972        C   16 1.398    C   14 1.392    H   84 0.956
    16  C   3.888        C   15 1.398    C   18 1.316    F   17 0.996
    17  F   1.139        C   16 0.996
    18  C   3.881        C   20 1.394    C   16 1.316    F   19 0.994
    19  F   1.135        C   18 0.994
    20  C   3.977        C   21 1.406    C   18 1.394    H   85 0.959
    21  C   3.973        C   20 1.406    C   14 1.309    C   22 1.013
    22  C   3.924        O   23 1.784    C   21 1.013    C    7 1.012
    23  O   2.058        C   22 1.784
    24  C   3.964        C   25 1.386    C   28 1.373    C   64 1.010
    25  C   3.915        C   24 1.386    S   26 1.182    C   62 1.140
    26  S   2.618        C   25 1.182    C   27 1.097
    27  C   3.933        C   28 1.395    C   29 1.272    S   26 1.097
    28  C   3.954        C   27 1.395    C   24 1.373    H   86 0.935
    29  C   3.949        C   30 1.515    C   27 1.272    H   87 0.945
    30  C   3.960        C   29 1.515    C   31 1.135    C   45 1.043
    31  C   3.970        C   32 1.495    C   30 1.135    C   37 1.076
    32  C   3.944        C   31 1.495    C   35 1.093    C   33 1.092
    33  C   3.941        N   34 2.772    C   32 1.092
    34  N   2.972        C   33 2.772
    35  C   3.942        N   36 2.765    C   32 1.093
    36  N   2.969        C   35 2.765
    37  C   3.980        C   38 1.388    C   44 1.313    C   31 1.076
    38  C   3.971        C   39 1.401    C   37 1.388    H   88 0.953
    39  C   3.888        C   38 1.401    C   41 1.315    F   40 0.996
    40  F   1.139        C   39 0.996
    41  C   3.880        C   43 1.394    C   39 1.315    F   42 0.994
    42  F   1.135        C   41 0.994
    43  C   3.977        C   44 1.406    C   41 1.394    H   89 0.959
    44  C   3.976        C   43 1.406    C   37 1.313    C   45 1.015
    45  C   3.922        O   46 1.753    C   30 1.043    C   44 1.015
    46  O   2.052        C   45 1.753
    47  C   3.992        C    1 1.014    C   48 0.990    H   91 0.960    H   90 0.947
    48  C   3.993        C   49 0.998    C   51 0.993    C   47 0.990    H   92 0.960
    49  C   3.995        C   50 1.020    C   48 0.998    H   94 0.976    H   93 0.971
    50  C   3.996        C   49 1.020    H   96 0.986    H   97 0.986    H   95 0.986
    51  C   3.995        C   52 1.020    C   48 0.993    H   99 0.977    H   98 0.975
    52  C   3.996        C   51 1.020    H  100 0.987    H  101 0.986    H  102 0.983
    53  C   3.915        C   57 1.456    C    2 1.168    S   54 1.116
    54  S   2.602        C   55 1.159    C   53 1.116
    55  C   3.919        C   56 1.417    C   58 1.169    S   54 1.159
    56  C   3.933        C   55 1.417    C   57 1.353    Ge  60 0.816
    57  C   3.963        C   53 1.456    C   56 1.353    H  103 0.959
    58  C   3.924        C   59 1.424    C   55 1.169    S   61 1.159
    59  C   3.935        C   58 1.424    C   63 1.338    Ge  60 0.821
    60  Ge  3.582        C   70 0.844    C   71 0.836    C   59 0.821    C   56 0.816
    61  S   2.592        C   58 1.159    C   62 1.121
    62  C   3.916        C   63 1.474    C   25 1.140    S   61 1.121
    63  C   3.965        C   62 1.474    C   59 1.338    H  104 0.955
    64  C   3.992        C   24 1.010    C   65 0.992    H  106 0.961    H  105 0.950
    65  C   3.992        C   66 0.998    C   68 0.993    C   64 0.992    H  107 0.961
    66  C   3.996        C   67 1.020    C   65 0.998    H  109 0.975    H  108 0.973
    67  C   3.996        C   66 1.020    H  111 0.987    H  112 0.986    H  110 0.985
    68  C   3.995        C   69 1.020    C   65 0.993    H  113 0.976    H  114 0.974
    69  C   3.996        C   68 1.020    H  115 0.987    H  116 0.986    H  117 0.986
    70  C   3.984        C   72 0.999    H  118 0.962    H  119 0.952    Ge  60 0.844
    71  C   3.975        C   77 0.991    H  120 0.962    H  121 0.954    Ge  60 0.836
    72  C   3.993        C   70 0.999    C   75 0.997    C   73 0.993    H  122 0.956
    73  C   3.993        C   74 1.021    C   72 0.993    H  124 0.977    H  123 0.972
    74  C   3.997        C   73 1.021    H  125 0.987    H  126 0.987    H  127 0.984
    75  C   3.996        C   76 1.022    C   72 0.997    H  129 0.976    H  128 0.966
    76  C   3.997        C   75 1.022    H  131 0.986    H  130 0.986    H  132 0.984
    77  C   3.991        C   80 0.998    C   78 0.995    C   71 0.991    H  133 0.956
    78  C   3.992        C   79 1.021    C   77 0.995    H  135 0.976    H  134 0.969
    79  C   3.996        C   78 1.021    H  136 0.986    H  137 0.986    H  138 0.981
    80  C   3.995        C   81 1.020    C   77 0.998    H  140 0.975    H  139 0.967
    81  C   3.996        C   80 1.020    H  141 0.985    H  143 0.982    H  142 0.982
    82  H   0.996        C    5 0.954
    83  H   0.991        C    6 0.942
    84  H   0.991        C   15 0.956
    85  H   0.990        C   20 0.959
    86  H   0.989        C   28 0.935
    87  H   0.994        C   29 0.945
    88  H   0.991        C   38 0.953
    89  H   0.991        C   43 0.959
    90  H   0.995        C   47 0.947
    91  H   0.996        C   47 0.960
    92  H   0.998        C   48 0.960
    93  H   0.998        C   49 0.971
    94  H   0.999        C   49 0.976
    95  H   0.999        C   50 0.986
    96  H   0.998        C   50 0.986
    97  H   0.999        C   50 0.986
    98  H   0.999        C   51 0.975
    99  H   0.999        C   51 0.977
   100  H   0.999        C   52 0.987
   101  H   0.998        C   52 0.986
   102  H   0.999        C   52 0.983
   103  H   0.998        C   57 0.959
   104  H   0.997        C   63 0.955
   105  H   0.995        C   64 0.950
   106  H   0.996        C   64 0.961
   107  H   0.998        C   65 0.961
   108  H   0.998        C   66 0.973
   109  H   0.999        C   66 0.975
   110  H   0.998        C   67 0.985
   111  H   0.999        C   67 0.987
   112  H   0.999        C   67 0.986
   113  H   0.999        C   68 0.976
   114  H   0.999        C   68 0.974
   115  H   0.999        C   69 0.987
   116  H   0.998        C   69 0.986
   117  H   0.999        C   69 0.986
   118  H   0.997        C   70 0.962
   119  H   0.996        C   70 0.952
   120  H   0.997        C   71 0.962
   121  H   0.996        C   71 0.954
   122  H   0.999        C   72 0.956
   123  H   0.998        C   73 0.972
   124  H   0.999        C   73 0.977
   125  H   0.999        C   74 0.987
   126  H   0.998        C   74 0.987
   127  H   0.999        C   74 0.984
   128  H   0.999        C   75 0.966
   129  H   0.999        C   75 0.976
   130  H   0.999        C   76 0.986
   131  H   0.999        C   76 0.986
   132  H   0.998        C   76 0.984
   133  H   0.998        C   77 0.956
   134  H   0.998        C   78 0.969
   135  H   0.999        C   78 0.976
   136  H   0.999        C   79 0.986
   137  H   0.998        C   79 0.986
   138  H   0.999        C   79 0.981
   139  H   0.998        C   80 0.967
   140  H   0.999        C   80 0.975
   141  H   0.999        C   81 0.985
   142  H   0.998        C   81 0.982
   143  H   0.998        C   81 0.982

molecular dipole:
                 x           y           z       tot (Debye)
 q only:        1.712       0.189       2.410
   full:        1.836       0.071       2.670       8.238
molecular quadrupole (traceless):
                xx          xy          yy          xz          yz          zz
 q only:       95.507     -71.311     -70.425      67.963     116.429     -25.081
  q+dip:      108.075     -57.452     -81.285      52.834     112.929     -26.791
   full:      104.875     -54.192     -82.922      57.853     121.519     -21.953


           -------------------------------------------------
          | TOTAL ENERGY             -226.421171841791 Eh   |
          | GRADIENT NORM               0.119130892108 Eh/α |
          | HOMO-LUMO GAP               0.973597842541 eV   |
           -------------------------------------------------

------------------------------------------------------------------------
 * finished run on 2021/04/12 at 13:53:13.067     
------------------------------------------------------------------------
 total:
 * wall-time:     0 d,  0 h,  0 min,  1.269 sec
 *  cpu-time:     0 d,  0 h,  0 min,  1.265 sec
 * ratio c/w:     0.997 speedup
 SCF:
 * wall-time:     0 d,  0 h,  0 min,  0.961 sec
 *  cpu-time:     0 d,  0 h,  0 min,  0.959 sec
 * ratio c/w:     0.998 speedup

