      -----------------------------------------------------------      
     |                   =====================                   |     
     |                           x T B                           |     
     |                   =====================                   |     
     |                         S. Grimme                         |     
     |          Mulliken Center for Theoretical Chemistry        |     
     |                    University of Bonn                     |     
     |                Version 6.2 RC2 (SAW190805)                |     
      -----------------------------------------------------------      

   This program is distributed in the hope that it will be useful,
   but WITHOUT ANY WARRANTY; without even the implied warranty of
   MERCHANTABILITY or FITNESS FOR A PARTICULAR PURPOSE.
   
   FOR NON-COMMERCIAL, ACADEMIA USE ONLY.
   
   Cite this work as:
   * S. Grimme, C. Bannwarth, P. Shushkov, J. Chem. Theory Comput., 2017,
     13, 1989-2009. DOI: 10.1021/acs.jctc.7b00118
   * C. Bannwarth, S. Ehlert and S. Grimme., J. Chem. Theory Comput., 2019,
     15, 1652-1671. DOI: 10.1021/acs.jctc.8b01176
   * P. Pracht, E. Caldeweyher, S. Ehlert, S. Grimme, ChemRxiv, 2019, preprint.
     DOI: 10.26434/chemrxiv.8326202.v1
   
   for DFT-D4:
   * E. Caldeweyher, C. Bannwarth and S. Grimme, J. Chem. Phys., 2017,
     147, 034112. DOI: 10.1063/1.4993215
   * E. Caldeweyher, S. Ehlert, A. Hansen, H. Neugebauer, S. Spicher,
     C. Bannwarth and S. Grimme, J. Chem. Phys., 2019, 150, 154122.
     DOI: 10.1063/1.5090222
   
   for sTDA-xTB:
   * S. Grimme and C. Bannwarth, J. Chem. Phys., 2016, 145, 054103.
     DOI: 10.1063/1.4959605
   
   in the mass-spec context:
   * V. Asgeirsson, C. Bauer and S. Grimme, Chem. Sci., 2017, 8, 4879.
     DOI: 10.1039/c7sc00601b
   
   for metadynamics refer to:
   * S. Grimme, J. Chem. Theory Comput., 2019, 155, 2847-2862
     DOI: 10.1021/acs.jctc.9b00143
   
   with help from (in alphabetical order)
   C. Bannwarth, F. Bohle, G. Brandenburg, E. Caldeweyher, M. Checinski,
   S. Dohm, S. Ehlert, S. Ehrlich, F. März, H. Neugebauer, J. Pisarek,
   P. Pracht, P. Shushkov, and S. Spicher.
   
 * started run on 2021/04/12 at 13:53:15.372     

           -------------------------------------------------
          |                Calculation Setup                |
           -------------------------------------------------

          program call               : /ihome/ghutchison/geoffh/xtb/xtb F-H.xyz -sp
          hostname                   : smp-n149
          coordinate file            : F-H.xyz
          omp threads                :                     1
          number of atoms            :                   115
          number of electrons        :                   334
          charge                     :                     0
          spin                       :                   0.0
          first test random number   :      0.02583340005755


########################################################################
# WARNING! Please study the warnings concerning your input carefully
#  - XTBPATH is not set, using XTBHOME instead
#  - the use of '-sp' is discouraged, please use '--sp' next time
########################################################################

           ------------------------------------------------- 
          |                 G F N 2 - x T B                 |
          | Geometry, Frequencies, Noncovalent interactions |
          |            JCTC 2019 parametrisation            |
           ------------------------------------------------- 
             KAB for C  - Si     :                1.0500
             KAB for H  - Pd     :                0.9500
             k(s)              :                1.8500
             k(p)              :                2.2300
             k(d)              :                2.2300
             k(f)              :                2.0000
             kEN (H0ij)        :               -2.0000
             D4 a1             :                0.5200
             D4 a2             :                5.0000
             D4 s6             :                1.0000
             D4 s8             :                2.7000
             D4 s9             :                5.0000
             alphaj            :                2.0000

  Z AO/shell   Hii/eV     exponent
  1     Wed Apr 25 08:07:45 CEST 2018   EN: 2.200 GM2: 0.406  GM3: 0.0800  RAES: 1.40
     1s    -10.707211    1.230000
  6     Wed Apr 25 08:07:45 CEST 2018   EN: 2.550 GM2: 0.538  GM3: 0.1500  RAES: 3.00
     2s    -13.970922    2.096432
     2p    -10.063292    1.800000
  7     Wed Apr 25 08:07:45 CEST 2018   EN: 3.040 GM2: 0.461  GM3:-0.0640  RAES: 1.90
     2s    -16.686243    2.339881
     2p    -12.523956    2.014332
  8     Wed Apr 25 08:07:45 CEST 2018   EN: 3.440 GM2: 0.452  GM3:-0.0517  RAES: 1.80
     2s    -20.229985    2.439742
     2p    -15.503117    2.137023
 16     Tue Apr 24 11:44:34 CEST 2018   EN: 2.580 GM2: 0.340  GM3:-0.0502  RAES: 3.10
     3s    -20.029654    1.981333
     3p    -11.377694    2.025643
     3d     -0.420282    1.702555

           ------------------------------------------------- 
          |        Self-Consistent Charge Iterations        |
           ------------------------------------------------- 

          ...................................................
          :                      SETUP                      :
          :.................................................:
          :  # basis functions                 334          :
          :  # atomic orbitals                 332          :
          :  # shells                          186          :
          :  # electrons                       334          :
          :  max. iterations                   250          :
          :  Hamiltonian                  GFN2-xTB          :
          :  restarted?                      false          :
          :  GBSA solvation                  false          :
          :  PC potential                    false          :
          :  electronic temp.          300.0000000     K    :
          :  accuracy                    1.0000000          :
          :  -> integral cutoff          0.2500000E+02      :
          :  -> integral neglect         0.1000000E-07      :
          :  -> SCF convergence          0.1000000E-05 Eh   :
          :  -> wf. convergence          0.1000000E-03 e    :
          :  Broyden damping             0.4000000          :
          ...................................................

 iter      E             dE          RMSdq      gap      omega  full diag
   1   -182.9270782 -0.182927E+03  0.487E+00    1.39       0.0  T
   2   -182.9945979 -0.675197E-01  0.302E+00    1.36       1.0  T
   3   -182.6259253  0.368673E+00  0.232E+00    1.06       1.0  T
   4   -183.1193312 -0.493406E+00  0.602E-01    1.32       1.0  T
   5   -183.1499051 -0.305739E-01  0.217E-01    1.20       1.0  T
   6   -183.1524197 -0.251459E-02  0.118E-01    1.26       1.0  T
   7   -183.1536370 -0.121730E-02  0.453E-02    1.24       1.0  T
   8   -183.1537504 -0.113458E-03  0.190E-02    1.24       1.0  T
   9   -183.1537695 -0.190408E-04  0.939E-03    1.25       1.0  T
  10   -183.1537739 -0.443869E-05  0.410E-03    1.24       2.3  T
  11   -183.1537754 -0.148422E-05  0.184E-03    1.24       5.1  T
  12   -183.1537756 -0.188071E-06  0.896E-04    1.24      10.4  T
  13   -183.1537756 -0.311517E-07  0.512E-04    1.24      18.2  T

   *** convergence criteria satisfied after 13 iterations ***

         #    Occupation            Energy/Eh            Energy/eV
      -------------------------------------------------------------
         1        2.0000           -0.7477552             -20.3475
       ...           ...                  ...                  ...
       161        2.0000           -0.4114359             -11.1957
       162        2.0000           -0.4078644             -11.0986
       163        2.0000           -0.4059280             -11.0459
       164        2.0000           -0.4006050             -10.9010
       165        2.0000           -0.3978167             -10.8251
       166        2.0000           -0.3883239             -10.5668
       167        2.0000           -0.3758930             -10.2286 (HOMO)
       168                         -0.3301568              -8.9840 (LUMO)
       169                         -0.3262165              -8.8768
       170                         -0.3153557              -8.5813
       171                         -0.3127581              -8.5106
       172                         -0.2820712              -7.6755
       ...                                ...                  ...
       332                          1.0767470              29.2998
      -------------------------------------------------------------
                  HL-Gap            0.0457362 Eh            1.2445 eV
             Fermi-level           -0.3530325 Eh           -9.6065 eV

 SCC (total)                   0 d,  0 h,  0 min,  0.595 sec
 SCC setup                      ...        0 min,  0.003 sec (  0.430%)
 Dispersion                     ...        0 min,  0.006 sec (  0.928%)
 integral evaluation            ...        0 min,  0.188 sec ( 31.620%)
 zeroth order Hamiltonian       ...        0 min,  0.001 sec (  0.213%)
 iterations                     ...        0 min,  0.229 sec ( 38.429%)
 molecular gradient             ...        0 min,  0.167 sec ( 27.991%)
 printout                       ...        0 min,  0.002 sec (  0.378%)

         :::::::::::::::::::::::::::::::::::::::::::::::::::::
         ::                     SUMMARY                     ::
         :::::::::::::::::::::::::::::::::::::::::::::::::::::
         :: total energy            -180.257380341886 Eh    ::
         :: gradient norm              0.100710761514 Eh/a0 ::
         :: HOMO-LUMO gap              1.244545154628 eV    ::
         ::.................................................::
         :: SCC energy              -183.153775606778 Eh    ::
         :: -> isotropic ES            0.093404039157 Eh    ::
         :: -> anisotropic ES          0.017188636844 Eh    ::
         :: -> anisotropic XC          0.141269196481 Eh    ::
         :: -> dispersion             -0.164905194889 Eh    ::
         :: repulsion energy           2.895876679195 Eh    ::
         :: add. restraining           0.000000000000 Eh    ::
         :::::::::::::::::::::::::::::::::::::::::::::::::::::

           -------------------------------------------------
          |                Property Printout                |
           -------------------------------------------------

    * Orbital Energies and Occupations

         #    Occupation            Energy/Eh            Energy/eV
      -------------------------------------------------------------
         1        2.0000           -0.7477552             -20.3475
       ...           ...                  ...                  ...
       155        2.0000           -0.4235172             -11.5245
       156        2.0000           -0.4219599             -11.4821
       157        2.0000           -0.4200117             -11.4291
       158        2.0000           -0.4180534             -11.3758
       159        2.0000           -0.4150530             -11.2942
       160        2.0000           -0.4136856             -11.2570
       161        2.0000           -0.4114359             -11.1957
       162        2.0000           -0.4078644             -11.0986
       163        2.0000           -0.4059280             -11.0459
       164        2.0000           -0.4006050             -10.9010
       165        2.0000           -0.3978167             -10.8251
       166        2.0000           -0.3883239             -10.5668
       167        2.0000           -0.3758930             -10.2286 (HOMO)
       168                         -0.3301568              -8.9840 (LUMO)
       169                         -0.3262165              -8.8768
       170                         -0.3153557              -8.5813
       171                         -0.3127581              -8.5106
       172                         -0.2820712              -7.6755
       173                         -0.2683268              -7.3015
       174                         -0.2543766              -6.9219
       175                         -0.2447397              -6.6597
       176                         -0.2443028              -6.6478
       177                         -0.2409334              -6.5561
       178                         -0.2404886              -6.5440
       ...                                ...                  ...
       332                          1.0767470              29.2998
      -------------------------------------------------------------
                  HL-Gap            0.0457362 Eh            1.2445 eV
             Fermi-level           -0.3530325 Eh           -9.6065 eV

     #   Z        covCN         q      C6AA      α(0)
     1   6 C      2.865     0.223    23.321     7.916
     2   8 O      0.856    -0.368    21.047     6.151
     3   6 C      3.019    -0.016    28.391     8.740
     4   6 C      2.905    -0.014    28.364     8.733
     5   6 C      2.912    -0.021    28.542     8.760
     6   6 C      2.911    -0.019    28.477     8.750
     7   6 C      2.906    -0.026    28.651     8.777
     8   6 C      3.013     0.008    27.831     8.654
     9   6 C      3.001     0.033    27.258     8.564
    10   6 C      2.944     0.007    27.872     8.659
    11   6 C      1.912     0.120    28.156     8.569
    12   7 N      0.911    -0.239    26.237     7.408
    13   6 C      1.911     0.118    28.187     8.574
    14   7 N      0.911    -0.236    26.187     7.401
    15   6 C      2.986    -0.036    28.881     8.816
    16   6 C      2.859     0.223    23.307     7.913
    17   8 O      0.856    -0.386    21.409     6.203
    18   6 C      3.023    -0.017    28.400     8.741
    19   6 C      2.906    -0.014    28.372     8.734
    20   6 C      2.912    -0.022    28.546     8.761
    21   6 C      2.911    -0.019    28.491     8.753
    22   6 C      2.907    -0.027    28.681     8.782
    23   6 C      3.008     0.006    27.865     8.659
    24   6 C      3.001     0.028    27.367     8.581
    25   6 C      2.943     0.005    27.918     8.666
    26   6 C      1.916     0.118    28.195     8.575
    27   7 N      0.911    -0.238    26.223     7.406
    28   6 C      1.917     0.120    28.143     8.567
    29   7 N      0.911    -0.237    26.187     7.401
    30   6 C      2.980    -0.039    28.974     8.830
    31   6 C      3.017    -0.000    28.011     8.682
    32   6 C      3.040     0.002    27.942     8.670
    33   6 C      2.904    -0.036    28.892     8.814
    34   6 C      3.018     0.002    27.965     8.674
    35   6 C      3.023     0.006    27.864     8.659
    36   6 C      2.902    -0.034    28.851     8.807
    37   6 C      3.921     0.010    20.344     6.410
    38   6 C      3.798    -0.049    21.450     6.595
    39   6 C      3.745    -0.095    22.388     6.749
    40   6 C      3.800    -0.047    21.411     6.588
    41   6 C      3.745    -0.098    22.452     6.759
    42   6 C      3.029     0.002    27.943     8.671
    43   6 C      3.017     0.003    27.935     8.670
    44   6 C      2.903    -0.037    28.928     8.819
    45   6 C      3.047    -0.001    28.009     8.680
    46   6 C      3.015    -0.001    28.023     8.683
    47   6 C      2.902    -0.035    28.876     8.811
    48   6 C      2.911    -0.014    28.362     8.733
    49   6 C      2.934    -0.014    28.352     8.733
    50   6 C      3.044     0.025    27.402     8.586
    51   6 C      3.189    -0.010    27.775     8.597
    52   6 C      3.920     0.014    20.283     6.401
    53  16 S      2.247    -0.010   141.457    20.018
    54   6 C      2.976     0.024    27.465     8.596
    55   6 C      3.033    -0.045    29.092     8.847
    56   6 C      3.917     0.014    20.282     6.401
    57   6 C      3.192    -0.013    27.822     8.602
    58   6 C      3.046     0.026    27.379     8.582
    59   6 C      3.050    -0.040    28.950     8.824
    60   6 C      2.976     0.023    27.495     8.601
    61  16 S      2.222    -0.008   141.377    20.012
    62   6 C      3.799    -0.048    21.436     6.592
    63   6 C      3.798    -0.045    21.389     6.585
    64   6 C      3.798    -0.047    21.421     6.590
    65   6 C      3.798    -0.046    21.409     6.588
    66   6 C      3.745    -0.099    22.455     6.760
    67   6 C      3.745    -0.096    22.406     6.752
    68   6 C      3.745    -0.097    22.419     6.754
    69   6 C      3.745    -0.101    22.494     6.765
    70   1 H      0.924     0.059     2.208     2.324
    71   1 H      0.924     0.047     2.359     2.402
    72   1 H      0.924     0.049     2.338     2.391
    73   1 H      0.925     0.056     2.245     2.343
    74   1 H      0.924     0.058     2.223     2.332
    75   1 H      0.924     0.045     2.377     2.411
    76   1 H      0.924     0.048     2.347     2.396
    77   1 H      0.925     0.057     2.233     2.337
    78   1 H      0.925     0.042     2.422     2.434
    79   1 H      0.924     0.043     2.415     2.430
    80   1 H      0.923     0.036     2.503     2.474
    81   1 H      0.923     0.039     2.464     2.455
    82   1 H      0.923     0.032     2.556     2.500
    83   1 H      0.923     0.037     2.489     2.467
    84   1 H      0.923     0.031     2.567     2.505
    85   1 H      0.923     0.037     2.489     2.467
    86   1 H      0.923     0.032     2.565     2.505
    87   1 H      0.923     0.037     2.492     2.469
    88   1 H      0.923     0.039     2.456     2.451
    89   1 H      0.923     0.039     2.460     2.453
    90   1 H      0.924     0.039     2.464     2.455
    91   1 H      0.924     0.039     2.457     2.451
    92   1 H      0.923     0.081     1.972     2.196
    93   1 H      0.924     0.067     2.119     2.276
    94   1 H      0.925     0.102     1.770     2.081
    95   1 H      0.924     0.048     2.347     2.396
    96   1 H      0.923     0.048     2.352     2.398
    97   1 H      0.923     0.030     2.587     2.515
    98   1 H      0.923     0.038     2.480     2.463
    99   1 H      0.923     0.030     2.591     2.517
   100   1 H      0.923     0.038     2.469     2.458
   101   1 H      0.923     0.037     2.489     2.467
   102   1 H      0.923     0.031     2.576     2.510
   103   1 H      0.923     0.037     2.484     2.465
   104   1 H      0.924     0.040     2.444     2.445
   105   1 H      0.923     0.037     2.494     2.470
   106   1 H      0.923     0.036     2.505     2.475
   107   1 H      0.923     0.036     2.500     2.473
   108   1 H      0.923     0.036     2.506     2.475
   109   1 H      0.923     0.040     2.455     2.450
   110   1 H      0.923     0.039     2.468     2.457
   111   1 H      0.923     0.036     2.505     2.475
   112   1 H      0.923     0.034     2.530     2.488
   113   1 H      0.923     0.035     2.520     2.482
   114   1 H      0.923     0.046     2.374     2.410
   115   1 H      0.923     0.040     2.443     2.444

 Mol. C6AA /au·bohr⁶  :     191233.538512
 Mol. C8AA /au·bohr⁸  :    4984348.618193
 Mol. α(0) /au        :        691.443586


Wiberg/Mayer (AO) data.
largest (>0.10) Wiberg bond orders for each atom
          total WBO             WBO to atom ...
     1  C   3.922        O    2 1.778    C    3 1.017    C   15 1.006
     2  O   2.055        C    1 1.778
     3  C   3.974        C    4 1.416    C    8 1.301    C    1 1.017
     4  C   3.983        C    5 1.426    C    3 1.416    H   70 0.966
     5  C   3.954        C    6 1.433    C    4 1.426    H   71 0.970
     6  C   3.980        C    5 1.433    C    7 1.431    H   72 0.970
     7  C   3.978        C    6 1.431    C    8 1.403    H   73 0.963
     8  C   3.979        C    7 1.403    C    3 1.301    C    9 1.066
     9  C   3.971        C   10 1.485    C   15 1.145    C    8 1.066
    10  C   3.952        C    9 1.485    C   11 1.097    C   13 1.095
    11  C   3.942        N   12 2.769    C   10 1.097
    12  N   2.980        C   11 2.769
    13  C   3.941        N   14 2.769    C   10 1.095
    14  N   2.969        C   13 2.769
    15  C   3.959        C   48 1.542    C    9 1.145    C    1 1.006
    16  C   3.920        O   17 1.739    C   30 1.043    C   18 1.022
    17  O   2.051        C   16 1.739
    18  C   3.977        C   19 1.414    C   23 1.306    C   16 1.022
    19  C   3.982        C   20 1.427    C   18 1.414    H   74 0.966
    20  C   3.952        C   21 1.430    C   19 1.427    H   75 0.970
    21  C   3.979        C   22 1.434    C   20 1.430    H   76 0.970
    22  C   3.977        C   21 1.434    C   23 1.397    H   77 0.961
    23  C   3.979        C   22 1.397    C   18 1.306    C   24 1.073
    24  C   3.970        C   25 1.491    C   30 1.139    C   23 1.073
    25  C   3.927        C   24 1.491    C   26 1.094    C   28 1.093
    26  C   3.941        N   27 2.757    C   25 1.094
    27  N   2.967        C   26 2.757
    28  C   3.940        N   29 2.767    C   25 1.093
    29  N   2.970        C   28 2.767
    30  C   3.957        C   49 1.507    C   24 1.139    C   16 1.043
    31  C   3.956        C   36 1.354    C   32 1.283    C   58 1.142
    32  C   3.963        C   33 1.467    C   31 1.283    C   56 0.986
    33  C   3.971        C   32 1.467    C   34 1.355    H   78 0.959
    34  C   3.950        C   33 1.355    C   35 1.313    C   43 1.103
    35  C   3.971        C   36 1.454    C   34 1.313    C   37 0.988
    36  C   3.972        C   35 1.454    C   31 1.354    H   79 0.964
    37  C   3.987        C   35 0.988    C   42 0.985    C   38 0.970    C   40 0.948
    38  C   3.994        C   39 1.020    H   80 0.974    H   81 0.971    C   37 0.970
    39  C   3.996        C   38 1.020    H   82 0.987    H   84 0.987    H   83 0.986
    40  C   3.992        C   41 1.021    H   86 0.977    H   85 0.973    C   37 0.948
    41  C   3.994        C   40 1.021    H   89 0.984    H   87 0.983    H   88 0.983
    42  C   3.971        C   47 1.458    C   43 1.312    C   37 0.985
    43  C   3.949        C   44 1.357    C   42 1.312    C   34 1.103
    44  C   3.971        C   45 1.466    C   43 1.357    H   90 0.961
    45  C   3.962        C   44 1.466    C   46 1.284    C   52 0.985
    46  C   3.956        C   47 1.352    C   45 1.284    C   50 1.144
    47  C   3.972        C   42 1.458    C   46 1.352    H   91 0.965
    48  C   3.949        C   15 1.542    C   60 1.259    H   92 0.941
    49  C   3.949        C   30 1.507    C   54 1.288    H   93 0.944
    50  C   3.920        C   51 1.364    S   53 1.205    C   46 1.144
    51  C   3.964        C   55 1.399    C   50 1.364    C   52 0.986
    52  C   3.987        C   51 0.986    C   45 0.985    C   63 0.958    C   62 0.956
    53  S   2.597        C   50 1.205    C   54 1.078
    54  C   3.925        C   55 1.381    C   49 1.288    S   53 1.078
    55  C   3.952        C   51 1.399    C   54 1.381    H   94 0.929
    56  C   3.985        C   32 0.986    C   57 0.982    C   65 0.960    C   64 0.955
    57  C   3.962        C   59 1.386    C   58 1.383    C   56 0.982
    58  C   3.926        C   57 1.383    S   61 1.185    C   31 1.142
    59  C   3.973        C   60 1.392    C   57 1.386    H   95 0.961
    60  C   3.930        C   59 1.392    C   48 1.259    S   61 1.101
    61  S   2.603        C   58 1.185    C   60 1.101
    62  C   3.992        C   68 1.020    H   97 0.977    H   96 0.972    C   52 0.956
    63  C   3.993        C   69 1.020    H   99 0.977    H   98 0.971    C   52 0.958
    64  C   3.991        C   66 1.019    H  101 0.977    H  100 0.974    C   56 0.955
    65  C   3.993        C   67 1.019    H  102 0.977    H  103 0.974    C   56 0.960
    66  C   3.994        C   64 1.019    H  106 0.985    H  105 0.984    H  104 0.979
    67  C   3.994        C   65 1.019    H  108 0.984    H  107 0.982    H  109 0.981
    68  C   3.994        C   62 1.020    H  111 0.984    H  112 0.984    H  110 0.984
    69  C   3.993        C   63 1.020    H  113 0.984    H  115 0.984    H  114 0.983
    70  H   0.996        C    4 0.966
    71  H   0.997        C    5 0.970
    72  H   0.997        C    6 0.970
    73  H   0.996        C    7 0.963
    74  H   0.996        C   19 0.966
    75  H   0.997        C   20 0.970
    76  H   0.997        C   21 0.970
    77  H   0.996        C   22 0.961
    78  H   0.997        C   33 0.959
    79  H   0.997        C   36 0.964
    80  H   0.998        C   38 0.974
    81  H   0.998        C   38 0.971
    82  H   0.999        C   39 0.987
    83  H   0.998        C   39 0.986
    84  H   0.999        C   39 0.987
    85  H   0.998        C   40 0.973
    86  H   0.999        C   40 0.977
    87  H   0.999        C   41 0.983
    88  H   0.998        C   41 0.983
    89  H   0.998        C   41 0.984
    90  H   0.997        C   44 0.961
    91  H   0.998        C   47 0.965
    92  H   0.992        C   48 0.941
    93  H   0.994        C   49 0.944
    94  H   0.989        C   55 0.929
    95  H   0.997        C   59 0.961
    96  H   0.997        C   62 0.972
    97  H   0.999        C   62 0.977
    98  H   0.997        C   63 0.971
    99  H   0.999        C   63 0.977
   100  H   0.998        C   64 0.974
   101  H   0.999        C   64 0.977
   102  H   0.999        C   65 0.977
   103  H   0.998        C   65 0.974
   104  H   0.998        C   66 0.979
   105  H   0.997        C   66 0.984
   106  H   0.999        C   66 0.985
   107  H   0.999        C   67 0.982
   108  H   0.998        C   67 0.984
   109  H   0.998        C   67 0.981
   110  H   0.998        C   68 0.984
   111  H   0.997        C   68 0.984
   112  H   0.999        C   68 0.984
   113  H   0.998        C   69 0.984
   114  H   0.998        C   69 0.983
   115  H   0.998        C   69 0.984

molecular dipole:
                 x           y           z       tot (Debye)
 q only:       -2.093      -0.790      -0.966
   full:       -2.727      -0.991      -1.132       7.917
molecular quadrupole (traceless):
                xx          xy          yy          xz          yz          zz
 q only:      -82.446     106.435      64.778      15.095      -7.269      17.668
  q+dip:      -91.526     110.665      93.992      20.266     -10.971      -2.466
   full:      -99.676     109.695      83.633      17.725      -8.279      16.043


           -------------------------------------------------
          | TOTAL ENERGY             -180.257380341886 Eh   |
          | GRADIENT NORM               0.100710761514 Eh/α |
          | HOMO-LUMO GAP               1.244545154628 eV   |
           -------------------------------------------------

------------------------------------------------------------------------
 * finished run on 2021/04/12 at 13:53:16.180     
------------------------------------------------------------------------
 total:
 * wall-time:     0 d,  0 h,  0 min,  0.808 sec
 *  cpu-time:     0 d,  0 h,  0 min,  0.798 sec
 * ratio c/w:     0.988 speedup
 SCF:
 * wall-time:     0 d,  0 h,  0 min,  0.596 sec
 *  cpu-time:     0 d,  0 h,  0 min,  0.595 sec
 * ratio c/w:     0.998 speedup

