      -----------------------------------------------------------      
     |                   =====================                   |     
     |                           x T B                           |     
     |                   =====================                   |     
     |                         S. Grimme                         |     
     |          Mulliken Center for Theoretical Chemistry        |     
     |                    University of Bonn                     |     
     |                Version 6.2 RC2 (SAW190805)                |     
      -----------------------------------------------------------      

   This program is distributed in the hope that it will be useful,
   but WITHOUT ANY WARRANTY; without even the implied warranty of
   MERCHANTABILITY or FITNESS FOR A PARTICULAR PURPOSE.
   
   FOR NON-COMMERCIAL, ACADEMIA USE ONLY.
   
   Cite this work as:
   * S. Grimme, C. Bannwarth, P. Shushkov, J. Chem. Theory Comput., 2017,
     13, 1989-2009. DOI: 10.1021/acs.jctc.7b00118
   * C. Bannwarth, S. Ehlert and S. Grimme., J. Chem. Theory Comput., 2019,
     15, 1652-1671. DOI: 10.1021/acs.jctc.8b01176
   * P. Pracht, E. Caldeweyher, S. Ehlert, S. Grimme, ChemRxiv, 2019, preprint.
     DOI: 10.26434/chemrxiv.8326202.v1
   
   for DFT-D4:
   * E. Caldeweyher, C. Bannwarth and S. Grimme, J. Chem. Phys., 2017,
     147, 034112. DOI: 10.1063/1.4993215
   * E. Caldeweyher, S. Ehlert, A. Hansen, H. Neugebauer, S. Spicher,
     C. Bannwarth and S. Grimme, J. Chem. Phys., 2019, 150, 154122.
     DOI: 10.1063/1.5090222
   
   for sTDA-xTB:
   * S. Grimme and C. Bannwarth, J. Chem. Phys., 2016, 145, 054103.
     DOI: 10.1063/1.4959605
   
   in the mass-spec context:
   * V. Asgeirsson, C. Bauer and S. Grimme, Chem. Sci., 2017, 8, 4879.
     DOI: 10.1039/c7sc00601b
   
   for metadynamics refer to:
   * S. Grimme, J. Chem. Theory Comput., 2019, 155, 2847-2862
     DOI: 10.1021/acs.jctc.9b00143
   
   with help from (in alphabetical order)
   C. Bannwarth, F. Bohle, G. Brandenburg, E. Caldeweyher, M. Checinski,
   S. Dohm, S. Ehlert, S. Ehrlich, F. März, H. Neugebauer, J. Pisarek,
   P. Pracht, P. Shushkov, and S. Spicher.
   
 * started run on 2021/04/12 at 13:53:17.940     

           -------------------------------------------------
          |                Calculation Setup                |
           -------------------------------------------------

          program call               : /ihome/ghutchison/geoffh/xtb/xtb H2.xyz -sp
          hostname                   : smp-n149
          coordinate file            : H2.xyz
          omp threads                :                     1
          number of atoms            :                   121
          number of electrons        :                   380
          charge                     :                     0
          spin                       :                   0.0
          first test random number   :      0.10200682173976


########################################################################
# WARNING! Please study the warnings concerning your input carefully
#  - XTBPATH is not set, using XTBHOME instead
#  - the use of '-sp' is discouraged, please use '--sp' next time
########################################################################

           ------------------------------------------------- 
          |                 G F N 2 - x T B                 |
          | Geometry, Frequencies, Noncovalent interactions |
          |            JCTC 2019 parametrisation            |
           ------------------------------------------------- 
             KAB for C  - Si     :                1.0500
             KAB for H  - Pd     :                0.9500
             k(s)              :                1.8500
             k(p)              :                2.2300
             k(d)              :                2.2300
             k(f)              :                2.0000
             kEN (H0ij)        :               -2.0000
             D4 a1             :                0.5200
             D4 a2             :                5.0000
             D4 s6             :                1.0000
             D4 s8             :                2.7000
             D4 s9             :                5.0000
             alphaj            :                2.0000

  Z AO/shell   Hii/eV     exponent
  1     Wed Apr 25 08:07:45 CEST 2018   EN: 2.200 GM2: 0.406  GM3: 0.0800  RAES: 1.40
     1s    -10.707211    1.230000
  6     Wed Apr 25 08:07:45 CEST 2018   EN: 2.550 GM2: 0.538  GM3: 0.1500  RAES: 3.00
     2s    -13.970922    2.096432
     2p    -10.063292    1.800000
  7     Wed Apr 25 08:07:45 CEST 2018   EN: 3.040 GM2: 0.461  GM3:-0.0640  RAES: 1.90
     2s    -16.686243    2.339881
     2p    -12.523956    2.014332
  8     Wed Apr 25 08:07:45 CEST 2018   EN: 3.440 GM2: 0.452  GM3:-0.0517  RAES: 1.80
     2s    -20.229985    2.439742
     2p    -15.503117    2.137023
 16     Tue Apr 24 11:44:34 CEST 2018   EN: 2.580 GM2: 0.340  GM3:-0.0502  RAES: 3.10
     3s    -20.029654    1.981333
     3p    -11.377694    2.025643
     3d     -0.420282    1.702555
 17     Mon Apr 23 14:09:22 CEST 2018   EN: 3.160 GM2: 0.249  GM3: 0.1495  RAES: 2.50
     3s    -29.278781    2.485265
     3p    -12.673758    2.199650
     3d     -0.240338    2.476089

           ------------------------------------------------- 
          |        Self-Consistent Charge Iterations        |
           ------------------------------------------------- 

          ...................................................
          :                      SETUP                      :
          :.................................................:
          :  # basis functions                 394          :
          :  # atomic orbitals                 387          :
          :  # shells                          205          :
          :  # electrons                       380          :
          :  max. iterations                   250          :
          :  Hamiltonian                  GFN2-xTB          :
          :  restarted?                      false          :
          :  GBSA solvation                  false          :
          :  PC potential                    false          :
          :  electronic temp.          300.0000000     K    :
          :  accuracy                    1.0000000          :
          :  -> integral cutoff          0.2500000E+02      :
          :  -> integral neglect         0.1000000E-07      :
          :  -> SCF convergence          0.1000000E-05 Eh   :
          :  -> wf. convergence          0.1000000E-03 e    :
          :  Broyden damping             0.4000000          :
          ...................................................

 iter      E             dE          RMSdq      gap      omega  full diag
   1   -210.2386390 -0.210239E+03  0.468E+00    1.29       0.0  T
   2   -210.4045695 -0.165930E+00  0.300E+00    1.05       1.0  T
   3   -210.2867052  0.117864E+00  0.199E+00    0.99       1.0  T
   4   -210.5616626 -0.274957E+00  0.795E-01    1.20       1.0  T
   5   -210.6249257 -0.632631E-01  0.249E-01    0.97       1.0  T
   6   -210.6306888 -0.576305E-02  0.125E-01    1.09       1.0  T
   7   -210.6318217 -0.113290E-02  0.618E-02    1.05       1.0  T
   8   -210.6320840 -0.262324E-03  0.327E-02    1.06       1.0  T
   9   -210.6321341 -0.501302E-04  0.219E-02    1.06       1.0  T
  10   -210.6321525 -0.183505E-04  0.164E-02    1.06       1.0  T
  11   -210.6321618 -0.934670E-05  0.121E-02    1.06       1.0  T
  12   -210.6321679 -0.603829E-05  0.818E-03    1.06       1.1  T
  13   -210.6321721 -0.424719E-05  0.423E-03    1.06       2.1  T
  14   -210.6321733 -0.119044E-05  0.188E-03    1.06       4.8  T
  15   -210.6321734 -0.139711E-06  0.986E-04    1.06       9.2  T
  16   -210.6321735 -0.498079E-07  0.566E-04    1.06      16.1  T

   *** convergence criteria satisfied after 16 iterations ***

         #    Occupation            Energy/Eh            Energy/eV
      -------------------------------------------------------------
         1        2.0000           -1.0704458             -29.1283
       ...           ...                  ...                  ...
       184        2.0000           -0.4100320             -11.1575
       185        2.0000           -0.4086232             -11.1192
       186        2.0000           -0.4068777             -11.0717
       187        2.0000           -0.3947601             -10.7420
       188        2.0000           -0.3921159             -10.6700
       189        2.0000           -0.3838329             -10.4446
       190        2.0000           -0.3773453             -10.2681 (HOMO)
       191                         -0.3384089              -9.2086 (LUMO)
       192                         -0.3349401              -9.1142
       193                         -0.3233189              -8.7980
       194                         -0.3208058              -8.7296
       195                         -0.3066630              -8.3447
       ...                                ...                  ...
       387                          1.0691795              29.0939
      -------------------------------------------------------------
                  HL-Gap            0.0389363 Eh            1.0595 eV
             Fermi-level           -0.3578888 Eh           -9.7386 eV

 SCC (total)                   0 d,  0 h,  0 min,  0.893 sec
 SCC setup                      ...        0 min,  0.003 sec (  0.353%)
 Dispersion                     ...        0 min,  0.006 sec (  0.725%)
 integral evaluation            ...        0 min,  0.266 sec ( 29.808%)
 zeroth order Hamiltonian       ...        0 min,  0.002 sec (  0.194%)
 iterations                     ...        0 min,  0.394 sec ( 44.165%)
 molecular gradient             ...        0 min,  0.218 sec ( 24.394%)
 printout                       ...        0 min,  0.003 sec (  0.354%)

         :::::::::::::::::::::::::::::::::::::::::::::::::::::
         ::                     SUMMARY                     ::
         :::::::::::::::::::::::::::::::::::::::::::::::::::::
         :: total energy            -207.713367947282 Eh    ::
         :: gradient norm              0.112180354228 Eh/a0 ::
         :: HOMO-LUMO gap              1.059511582648 eV    ::
         ::.................................................::
         :: SCC energy              -210.632173492906 Eh    ::
         :: -> isotropic ES            0.118402344776 Eh    ::
         :: -> anisotropic ES          0.013328115985 Eh    ::
         :: -> anisotropic XC          0.141326616058 Eh    ::
         :: -> dispersion             -0.193824442381 Eh    ::
         :: repulsion energy           2.915305642386 Eh    ::
         :: add. restraining           0.000000000000 Eh    ::
         :::::::::::::::::::::::::::::::::::::::::::::::::::::

           -------------------------------------------------
          |                Property Printout                |
           -------------------------------------------------

    * Orbital Energies and Occupations

         #    Occupation            Energy/Eh            Energy/eV
      -------------------------------------------------------------
         1        2.0000           -1.0704458             -29.1283
       ...           ...                  ...                  ...
       178        2.0000           -0.4249097             -11.5624
       179        2.0000           -0.4222133             -11.4890
       180        2.0000           -0.4206197             -11.4456
       181        2.0000           -0.4190914             -11.4041
       182        2.0000           -0.4187688             -11.3953
       183        2.0000           -0.4155528             -11.3078
       184        2.0000           -0.4100320             -11.1575
       185        2.0000           -0.4086232             -11.1192
       186        2.0000           -0.4068777             -11.0717
       187        2.0000           -0.3947601             -10.7420
       188        2.0000           -0.3921159             -10.6700
       189        2.0000           -0.3838329             -10.4446
       190        2.0000           -0.3773453             -10.2681 (HOMO)
       191                         -0.3384089              -9.2086 (LUMO)
       192                         -0.3349401              -9.1142
       193                         -0.3233189              -8.7980
       194                         -0.3208058              -8.7296
       195                         -0.3066630              -8.3447
       196                         -0.2827927              -7.6952
       197                         -0.2773656              -7.5475
       198                         -0.2620753              -7.1314
       199                         -0.2577912              -7.0149
       200                         -0.2495715              -6.7912
       201                         -0.2485799              -6.7642
       ...                                ...                  ...
       387                          1.0691795              29.0939
      -------------------------------------------------------------
                  HL-Gap            0.0389363 Eh            1.0595 eV
             Fermi-level           -0.3578888 Eh           -9.7386 eV

     #   Z        covCN         q      C6AA      α(0)
     1   6 C      2.863     0.224    23.296     7.911
     2   8 O      0.856    -0.364    20.971     6.140
     3   6 C      3.019    -0.019    28.467     8.752
     4   6 C      2.907    -0.012    28.326     8.727
     5   6 C      2.942    -0.032    28.803     8.802
     6   6 C      2.881     0.104    25.699     8.311
     7  17 Cl     0.957    -0.150   103.831    15.589
     8   6 C      2.938    -0.037    28.921     8.820
     9   6 C      3.016     0.011    27.758     8.642
    10   6 C      3.001     0.033    27.253     8.563
    11   6 C      2.944     0.007    27.857     8.656
    12   6 C      1.912     0.119    28.163     8.571
    13   7 N      0.911    -0.239    26.245     7.409
    14   6 C      1.910     0.117    28.211     8.578
    15   7 N      0.911    -0.234    26.120     7.392
    16   6 C      2.990    -0.037    28.904     8.819
    17   6 C      2.916    -0.010    28.270     8.719
    18   6 C      2.983     0.020    27.549     8.610
    19  16 S      2.202    -0.051   143.182    20.139
    20   6 C      3.083     0.011    27.679     8.625
    21   6 C      3.155     0.009    27.515     8.577
    22   6 C      3.073     0.010    27.720     8.633
    23   6 C      3.799    -0.051    21.485     6.600
    24   6 C      3.746    -0.097    22.427     6.755
    25  16 S      2.143    -0.013   141.600    20.028
    26   6 C      3.073     0.007    27.782     8.642
    27   6 C      3.188     0.028    26.901     8.462
    28   7 N      2.787    -0.034    21.903     6.951
    29   6 C      3.741    -0.011    20.842     6.514
    30   6 C      3.036     0.033    27.222     8.558
    31   6 C      3.061    -0.032    28.742     8.792
    32   6 C      3.310     0.072    24.528     7.907
    33   7 N      1.844    -0.257    27.537     7.777
    34  16 S      2.653     0.282   130.066    19.195
    35   7 N      1.844    -0.256    27.524     7.775
    36   6 C      3.310     0.072    24.539     7.909
    37   6 C      3.061    -0.032    28.740     8.791
    38   6 C      3.035     0.033    27.220     8.558
    39   7 N      2.786    -0.035    21.923     6.954
    40   6 C      3.739    -0.010    20.832     6.512
    41   6 C      3.845    -0.024    20.962     6.513
    42   6 C      3.185     0.026    26.973     8.475
    43   6 C      3.073     0.006    27.810     8.647
    44  16 S      2.147    -0.015   141.675    20.033
    45   6 C      3.162     0.009    27.487     8.570
    46   6 C      3.081     0.008    27.761     8.638
    47  16 S      2.233    -0.041   142.763    20.110
    48   6 C      2.983     0.024    27.463     8.596
    49   6 C      3.058     0.019    27.524     8.604
    50   6 C      3.799    -0.041    21.310     6.573
    51   6 C      3.745    -0.102    22.513     6.768
    52   6 C      2.938    -0.007    28.201     8.709
    53   6 C      2.984    -0.038    28.928     8.823
    54   6 C      2.999     0.028    27.358     8.580
    55   6 C      2.943     0.009    27.827     8.652
    56   6 C      1.914     0.118    28.206     8.577
    57   7 N      0.911    -0.232    26.085     7.387
    58   6 C      1.915     0.119    28.162     8.570
    59   7 N      0.911    -0.227    25.973     7.371
    60   6 C      3.012     0.010    27.772     8.645
    61   6 C      2.939    -0.037    28.932     8.822
    62   6 C      2.881     0.104    25.694     8.310
    63  17 Cl     0.958    -0.148   103.785    15.586
    64   6 C      2.944    -0.032    28.800     8.802
    65   6 C      2.908    -0.013    28.336     8.729
    66   6 C      3.021    -0.020    28.490     8.755
    67   6 C      2.858     0.226    23.261     7.905
    68   8 O      0.856    -0.367    21.037     6.149
    69   6 C      3.846    -0.024    20.961     6.512
    70   6 C      3.797    -0.056    21.590     6.616
    71   6 C      3.800    -0.055    21.571     6.613
    72   6 C      3.745    -0.100    22.475     6.763
    73   6 C      3.745    -0.095    22.391     6.750
    74   6 C      3.796    -0.056    21.592     6.617
    75   6 C      3.745    -0.095    22.389     6.750
    76   6 C      3.799    -0.056    21.588     6.615
    77   6 C      3.745    -0.100    22.484     6.764
    78   1 H      0.924     0.072     2.059     2.244
    79   1 H      0.924     0.070     2.086     2.259
    80   1 H      0.925     0.077     2.013     2.219
    81   1 H      0.923     0.084     1.942     2.179
    82   1 H      0.923     0.053     2.281     2.362
    83   1 H      0.923     0.050     2.324     2.384
    84   1 H      0.923     0.051     2.314     2.379
    85   1 H      0.923     0.046     2.366     2.405
    86   1 H      0.923     0.041     2.437     2.441
    87   1 H      0.924     0.061     2.189     2.314
    88   1 H      0.923     0.062     2.175     2.307
    89   1 H      0.924     0.056     2.243     2.342
    90   1 H      0.923     0.064     2.149     2.292
    91   1 H      0.923     0.039     2.456     2.451
    92   1 H      0.922     0.048     2.340     2.392
    93   1 H      0.924     0.038     2.470     2.458
    94   1 H      0.923     0.048     2.346     2.395
    95   1 H      0.923     0.039     2.461     2.453
    96   1 H      0.924     0.067     2.122     2.278
    97   1 H      0.924     0.067     2.117     2.275
    98   1 H      0.925     0.078     1.999     2.211
    99   1 H      0.924     0.070     2.088     2.259
   100   1 H      0.924     0.071     2.070     2.250
   101   1 H      0.923     0.040     2.453     2.450
   102   1 H      0.923     0.043     2.404     2.425
   103   1 H      0.922     0.032     2.560     2.502
   104   1 H      0.923     0.025     2.652     2.547
   105   1 H      0.922     0.036     2.500     2.473
   106   1 H      0.923     0.036     2.508     2.477
   107   1 H      0.923     0.041     2.433     2.439
   108   1 H      0.923     0.039     2.465     2.455
   109   1 H      0.923     0.030     2.582     2.513
   110   1 H      0.923     0.038     2.477     2.461
   111   1 H      0.923     0.028     2.622     2.532
   112   1 H      0.923     0.045     2.389     2.417
   113   1 H      0.922     0.033     2.543     2.494
   114   1 H      0.923     0.030     2.592     2.518
   115   1 H      0.923     0.039     2.468     2.457
   116   1 H      0.923     0.028     2.610     2.526
   117   1 H      0.923     0.024     2.667     2.554
   118   1 H      0.922     0.038     2.481     2.463
   119   1 H      0.923     0.036     2.505     2.475
   120   1 H      0.923     0.043     2.407     2.426
   121   1 H      0.923     0.039     2.457     2.451

 Mol. C6AA /au·bohr⁶  :     250979.715778
 Mol. C8AA /au·bohr⁸  :    7012909.427730
 Mol. α(0) /au        :        791.166684


Wiberg/Mayer (AO) data.
largest (>0.10) Wiberg bond orders for each atom
          total WBO             WBO to atom ...
     1  C   3.923        O    2 1.776    C    3 1.017    C   16 1.012
     2  O   2.051        C    1 1.776
     3  C   3.973        C    4 1.410    C    9 1.299    C    1 1.017
     4  C   3.981        C    5 1.432    C    3 1.410    H   78 0.963
     5  C   3.951        C    4 1.432    C    6 1.392    H   79 0.965
     6  C   3.913        C    5 1.392    C    8 1.390    Cl   7 0.994
     7  Cl  1.130        C    6 0.994
     8  C   3.974        C    9 1.408    C    6 1.390    H   80 0.958
     9  C   3.980        C    8 1.408    C    3 1.299    C   10 1.065
    10  C   3.969        C   11 1.478    C   16 1.152    C    9 1.065
    11  C   3.948        C   10 1.478    C   14 1.099    C   12 1.097
    12  C   3.942        N   13 2.769    C   11 1.097
    13  N   2.980        C   12 2.769
    14  C   3.942        N   15 2.767    C   11 1.099
    15  N   2.967        C   14 2.767
    16  C   3.954        C   17 1.531    C   10 1.152    C    1 1.012
    17  C   3.939        C   16 1.531    C   18 1.262    H   81 0.935
    18  C   3.922        C   22 1.384    C   17 1.262    S   19 1.068
    19  S   2.541        C   20 1.127    C   18 1.068
    20  C   3.934        C   21 1.319    C   27 1.249    S   19 1.127
    21  C   3.927        C   22 1.321    C   20 1.319    S   25 1.086
    22  C   3.965        C   18 1.384    C   21 1.321    C   23 1.017
    23  C   3.992        C   22 1.017    C   24 0.995    H   82 0.971    H   83 0.958
    24  C   3.988        C   23 0.995    H   84 0.987    H   86 0.985    H   85 0.985
    25  S   2.508        C   26 1.112    C   21 1.086
    26  C   3.918        C   27 1.302    C   31 1.277    S   25 1.112
    27  C   3.931        C   26 1.302    C   20 1.249    N   28 1.154
    28  N   3.554        C   30 1.169    C   27 1.154    C   29 0.979
    29  C   3.959        C   69 0.983    N   28 0.979    H   88 0.963    H   87 0.948
    30  C   3.924        C   31 1.280    C   38 1.209    N   28 1.169
    31  C   3.954        C   30 1.280    C   26 1.277    C   32 1.156
    32  C   3.972        N   33 1.458    C   31 1.156    C   36 1.154    S   34 0.102
    33  N   3.069        C   32 1.458    S   34 1.356    N   35 0.147
    34  S   3.039        N   35 1.357    N   33 1.356    C   36 0.103    C   32 0.102
    35  N   3.070        C   36 1.458    S   34 1.357    N   33 0.147
    36  C   3.972        N   35 1.458    C   37 1.156    C   32 1.154    S   34 0.103
    37  C   3.953        C   38 1.281    C   43 1.275    C   36 1.156
    38  C   3.926        C   37 1.281    C   30 1.209    N   39 1.169
    39  N   3.552        C   38 1.169    C   42 1.152    C   40 0.978
    40  C   3.957        C   41 0.984    N   39 0.978    H   90 0.964    H   89 0.949
    41  C   3.988        C   74 0.997    C   76 0.990    C   40 0.984    H   91 0.958
    42  C   3.935        C   43 1.309    C   46 1.242    N   39 1.152
    43  C   3.921        C   42 1.309    C   37 1.275    S   44 1.110
    44  S   2.515        C   43 1.110    C   45 1.087
    45  C   3.928        C   46 1.325    C   49 1.308    S   44 1.087
    46  C   3.929        C   45 1.325    C   42 1.242    S   47 1.135
    47  S   2.538        C   46 1.135    C   48 1.061
    48  C   3.919        C   49 1.404    C   52 1.246    S   47 1.061
    49  C   3.953        C   48 1.404    C   45 1.308    C   50 1.014
    50  C   3.993        C   49 1.014    C   51 1.001    H   93 0.973    H   92 0.954
    51  C   3.987        C   50 1.001    H   95 0.985    H   94 0.980    H   96 0.978
    52  C   3.944        C   53 1.534    C   48 1.246    H   97 0.942
    53  C   3.956        C   52 1.534    C   54 1.144    C   67 1.021
    54  C   3.969        C   55 1.492    C   53 1.144    C   60 1.070
    55  C   3.930        C   54 1.492    C   56 1.094    C   58 1.092
    56  C   3.942        N   57 2.765    C   55 1.094
    57  N   2.968        C   56 2.765
    58  C   3.941        N   59 2.771    C   55 1.092
    59  N   2.971        C   58 2.771
    60  C   3.981        C   61 1.403    C   66 1.304    C   54 1.070
    61  C   3.973        C   60 1.403    C   62 1.393    H   98 0.957
    62  C   3.913        C   61 1.393    C   64 1.389    Cl  63 0.995
    63  Cl  1.131        C   62 0.995
    64  C   3.950        C   65 1.435    C   62 1.389    H   99 0.965
    65  C   3.981        C   64 1.435    C   66 1.406    H  100 0.963
    66  C   3.977        C   65 1.406    C   60 1.304    C   67 1.021
    67  C   3.924        O   68 1.764    C   53 1.021    C   66 1.021
    68  O   2.054        C   67 1.764
    69  C   3.988        C   70 0.996    C   71 0.991    C   29 0.983    H  101 0.960
    70  C   3.994        C   73 1.020    C   69 0.996    H  103 0.976    H  102 0.970
    71  C   3.994        C   72 1.021    C   69 0.991    H  105 0.976    H  104 0.970
    72  C   3.994        C   71 1.021    H  106 0.987    H  107 0.985    H  108 0.982
    73  C   3.996        C   70 1.020    H  109 0.987    H  110 0.986    H  111 0.984
    74  C   3.994        C   75 1.020    C   41 0.997    H  113 0.976    H  112 0.971
    75  C   3.996        C   74 1.020    H  114 0.986    H  115 0.986    H  116 0.985
    76  C   3.994        C   77 1.021    C   41 0.990    H  118 0.977    H  117 0.971
    77  C   3.994        C   76 1.021    H  119 0.987    H  120 0.985    H  121 0.983
    78  H   0.994        C    4 0.963
    79  H   0.994        C    5 0.965
    80  H   0.994        C    8 0.958
    81  H   0.990        C   17 0.935
    82  H   0.996        C   23 0.971
    83  H   0.996        C   23 0.958
    84  H   0.997        C   24 0.987
    85  H   0.997        C   24 0.985
    86  H   0.998        C   24 0.985
    87  H   0.994        C   29 0.948
    88  H   0.996        C   29 0.963
    89  H   0.994        C   40 0.949
    90  H   0.995        C   40 0.964
    91  H   0.998        C   41 0.958
    92  H   0.996        C   50 0.954
    93  H   0.998        C   50 0.973
    94  H   0.997        C   51 0.980
    95  H   0.997        C   51 0.985
    96  H   0.995        C   51 0.978
    97  H   0.992        C   52 0.942
    98  H   0.993        C   61 0.957
    99  H   0.994        C   64 0.965
   100  H   0.994        C   65 0.963
   101  H   0.998        C   69 0.960
   102  H   0.998        C   70 0.970
   103  H   0.999        C   70 0.976
   104  H   0.999        C   71 0.970
   105  H   0.999        C   71 0.976
   106  H   0.999        C   72 0.987
   107  H   0.998        C   72 0.985
   108  H   0.998        C   72 0.982
   109  H   0.999        C   73 0.987
   110  H   0.998        C   73 0.986
   111  H   0.999        C   73 0.984
   112  H   0.998        C   74 0.971
   113  H   0.999        C   74 0.976
   114  H   0.999        C   75 0.986
   115  H   0.998        C   75 0.986
   116  H   0.999        C   75 0.985
   117  H   0.999        C   76 0.971
   118  H   0.999        C   76 0.977
   119  H   0.999        C   77 0.987
   120  H   0.998        C   77 0.985
   121  H   0.998        C   77 0.983

molecular dipole:
                 x           y           z       tot (Debye)
 q only:        0.562       0.035      -2.122
   full:        1.091      -0.572      -1.732       5.402
molecular quadrupole (traceless):
                xx          xy          yy          xz          yz          zz
 q only:        3.773     -64.255      -7.900      64.768      81.052       4.127
  q+dip:       -4.972     -46.730      27.587      58.559      72.208     -22.615
   full:       -3.430     -50.232      31.284      60.505      74.275     -27.855


           -------------------------------------------------
          | TOTAL ENERGY             -207.713367947282 Eh   |
          | GRADIENT NORM               0.112180354228 Eh/α |
          | HOMO-LUMO GAP               1.059511582648 eV   |
           -------------------------------------------------

------------------------------------------------------------------------
 * finished run on 2021/04/12 at 13:53:19.122     
------------------------------------------------------------------------
 total:
 * wall-time:     0 d,  0 h,  0 min,  1.183 sec
 *  cpu-time:     0 d,  0 h,  0 min,  1.171 sec
 * ratio c/w:     0.990 speedup
 SCF:
 * wall-time:     0 d,  0 h,  0 min,  0.894 sec
 *  cpu-time:     0 d,  0 h,  0 min,  0.891 sec
 * ratio c/w:     0.998 speedup

