      -----------------------------------------------------------      
     |                   =====================                   |     
     |                           x T B                           |     
     |                   =====================                   |     
     |                         S. Grimme                         |     
     |          Mulliken Center for Theoretical Chemistry        |     
     |                    University of Bonn                     |     
     |                Version 6.2 RC2 (SAW190805)                |     
      -----------------------------------------------------------      

   This program is distributed in the hope that it will be useful,
   but WITHOUT ANY WARRANTY; without even the implied warranty of
   MERCHANTABILITY or FITNESS FOR A PARTICULAR PURPOSE.
   
   FOR NON-COMMERCIAL, ACADEMIA USE ONLY.
   
   Cite this work as:
   * S. Grimme, C. Bannwarth, P. Shushkov, J. Chem. Theory Comput., 2017,
     13, 1989-2009. DOI: 10.1021/acs.jctc.7b00118
   * C. Bannwarth, S. Ehlert and S. Grimme., J. Chem. Theory Comput., 2019,
     15, 1652-1671. DOI: 10.1021/acs.jctc.8b01176
   * P. Pracht, E. Caldeweyher, S. Ehlert, S. Grimme, ChemRxiv, 2019, preprint.
     DOI: 10.26434/chemrxiv.8326202.v1
   
   for DFT-D4:
   * E. Caldeweyher, C. Bannwarth and S. Grimme, J. Chem. Phys., 2017,
     147, 034112. DOI: 10.1063/1.4993215
   * E. Caldeweyher, S. Ehlert, A. Hansen, H. Neugebauer, S. Spicher,
     C. Bannwarth and S. Grimme, J. Chem. Phys., 2019, 150, 154122.
     DOI: 10.1063/1.5090222
   
   for sTDA-xTB:
   * S. Grimme and C. Bannwarth, J. Chem. Phys., 2016, 145, 054103.
     DOI: 10.1063/1.4959605
   
   in the mass-spec context:
   * V. Asgeirsson, C. Bauer and S. Grimme, Chem. Sci., 2017, 8, 4879.
     DOI: 10.1039/c7sc00601b
   
   for metadynamics refer to:
   * S. Grimme, J. Chem. Theory Comput., 2019, 155, 2847-2862
     DOI: 10.1021/acs.jctc.9b00143
   
   with help from (in alphabetical order)
   C. Bannwarth, F. Bohle, G. Brandenburg, E. Caldeweyher, M. Checinski,
   S. Dohm, S. Ehlert, S. Ehrlich, F. März, H. Neugebauer, J. Pisarek,
   P. Pracht, P. Shushkov, and S. Spicher.
   
 * started run on 2021/04/12 at 13:53:20.279     

           -------------------------------------------------
          |                Calculation Setup                |
           -------------------------------------------------

          program call               : /ihome/ghutchison/geoffh/xtb/xtb IDF-IC.xyz -sp
          hostname                   : smp-n149
          coordinate file            : IDF-IC.xyz
          omp threads                :                     1
          number of atoms            :                   132
          number of electrons        :                   390
          charge                     :                     0
          spin                       :                   0.0
          first test random number   :      0.05287569598036


########################################################################
# WARNING! Please study the warnings concerning your input carefully
#  - XTBPATH is not set, using XTBHOME instead
#  - the use of '-sp' is discouraged, please use '--sp' next time
########################################################################

           ------------------------------------------------- 
          |                 G F N 2 - x T B                 |
          | Geometry, Frequencies, Noncovalent interactions |
          |            JCTC 2019 parametrisation            |
           ------------------------------------------------- 
             KAB for C  - Si     :                1.0500
             KAB for H  - Pd     :                0.9500
             k(s)              :                1.8500
             k(p)              :                2.2300
             k(d)              :                2.2300
             k(f)              :                2.0000
             kEN (H0ij)        :               -2.0000
             D4 a1             :                0.5200
             D4 a2             :                5.0000
             D4 s6             :                1.0000
             D4 s8             :                2.7000
             D4 s9             :                5.0000
             alphaj            :                2.0000

  Z AO/shell   Hii/eV     exponent
  1     Wed Apr 25 08:07:45 CEST 2018   EN: 2.200 GM2: 0.406  GM3: 0.0800  RAES: 1.40
     1s    -10.707211    1.230000
  6     Wed Apr 25 08:07:45 CEST 2018   EN: 2.550 GM2: 0.538  GM3: 0.1500  RAES: 3.00
     2s    -13.970922    2.096432
     2p    -10.063292    1.800000
  7     Wed Apr 25 08:07:45 CEST 2018   EN: 3.040 GM2: 0.461  GM3:-0.0640  RAES: 1.90
     2s    -16.686243    2.339881
     2p    -12.523956    2.014332
  8     Wed Apr 25 08:07:45 CEST 2018   EN: 3.440 GM2: 0.452  GM3:-0.0517  RAES: 1.80
     2s    -20.229985    2.439742
     2p    -15.503117    2.137023

           ------------------------------------------------- 
          |        Self-Consistent Charge Iterations        |
           ------------------------------------------------- 

          ...................................................
          :                      SETUP                      :
          :.................................................:
          :  # basis functions                 378          :
          :  # atomic orbitals                 378          :
          :  # shells                          214          :
          :  # electrons                       390          :
          :  max. iterations                   250          :
          :  Hamiltonian                  GFN2-xTB          :
          :  restarted?                      false          :
          :  GBSA solvation                  false          :
          :  PC potential                    false          :
          :  electronic temp.          300.0000000     K    :
          :  accuracy                    1.0000000          :
          :  -> integral cutoff          0.2500000E+02      :
          :  -> integral neglect         0.1000000E-07      :
          :  -> SCF convergence          0.1000000E-05 Eh   :
          :  -> wf. convergence          0.1000000E-03 e    :
          :  Broyden damping             0.4000000          :
          ...................................................

 iter      E             dE          RMSdq      gap      omega  full diag
   1   -215.0171739 -0.215017E+03  0.493E+00    1.41       0.0  T
   2   -215.0888109 -0.716369E-01  0.308E+00    1.37       1.0  T
   3   -214.6215017  0.467309E+00  0.233E+00    1.12       1.0  T
   4   -215.2173535 -0.595852E+00  0.563E-01    1.33       1.0  T
   5   -215.2485292 -0.311757E-01  0.169E-01    1.24       1.0  T
   6   -215.2500821 -0.155294E-02  0.923E-02    1.28       1.0  T
   7   -215.2511608 -0.107869E-02  0.432E-02    1.26       1.0  T
   8   -215.2513260 -0.165212E-03  0.167E-02    1.27       1.0  T
   9   -215.2513442 -0.182134E-04  0.813E-03    1.27       1.1  T
  10   -215.2513486 -0.437755E-05  0.252E-03    1.27       3.5  T
  11   -215.2513492 -0.621782E-06  0.110E-03    1.27       7.9  T
  12   -215.2513493 -0.944484E-07  0.488E-04    1.27      17.9  T
  13   -215.2513493  0.316220E-09  0.283E-04    1.27      30.8  T

   *** convergence criteria satisfied after 13 iterations ***

         #    Occupation            Energy/Eh            Energy/eV
      -------------------------------------------------------------
         1        2.0000           -0.7615744             -20.7235
       ...           ...                  ...                  ...
       189        2.0000           -0.4002850             -10.8923
       190        2.0000           -0.3995028             -10.8710
       191        2.0000           -0.3982418             -10.8367
       192        2.0000           -0.3951327             -10.7521
       193        2.0000           -0.3935417             -10.7088
       194        2.0000           -0.3881461             -10.5620
       195        2.0000           -0.3796543             -10.3309 (HOMO)
       196                         -0.3329676              -9.0605 (LUMO)
       197                         -0.3257575              -8.8643
       198                         -0.3155181              -8.5857
       199                         -0.3114006              -8.4736
       200                         -0.2781769              -7.5696
       ...                                ...                  ...
       378                          1.0763761              29.2897
      -------------------------------------------------------------
                  HL-Gap            0.0466867 Eh            1.2704 eV
             Fermi-level           -0.3563110 Eh           -9.6957 eV

 SCC (total)                   0 d,  0 h,  0 min,  0.788 sec
 SCC setup                      ...        0 min,  0.003 sec (  0.411%)
 Dispersion                     ...        0 min,  0.008 sec (  1.014%)
 integral evaluation            ...        0 min,  0.251 sec ( 31.825%)
 zeroth order Hamiltonian       ...        0 min,  0.001 sec (  0.188%)
 iterations                     ...        0 min,  0.303 sec ( 38.507%)
 molecular gradient             ...        0 min,  0.218 sec ( 27.674%)
 printout                       ...        0 min,  0.003 sec (  0.373%)

         :::::::::::::::::::::::::::::::::::::::::::::::::::::
         ::                     SUMMARY                     ::
         :::::::::::::::::::::::::::::::::::::::::::::::::::::
         :: total energy            -211.732743981864 Eh    ::
         :: gradient norm              0.110909005439 Eh/a0 ::
         :: HOMO-LUMO gap              1.270409237717 eV    ::
         ::.................................................::
         :: SCC energy              -215.251349339853 Eh    ::
         :: -> isotropic ES            0.108998467842 Eh    ::
         :: -> anisotropic ES          0.017839265092 Eh    ::
         :: -> anisotropic XC          0.159817234562 Eh    ::
         :: -> dispersion             -0.187148070723 Eh    ::
         :: repulsion energy           3.514959834230 Eh    ::
         :: add. restraining           0.000000000000 Eh    ::
         :::::::::::::::::::::::::::::::::::::::::::::::::::::

           -------------------------------------------------
          |                Property Printout                |
           -------------------------------------------------

    * Orbital Energies and Occupations

         #    Occupation            Energy/Eh            Energy/eV
      -------------------------------------------------------------
         1        2.0000           -0.7615744             -20.7235
       ...           ...                  ...                  ...
       183        2.0000           -0.4133726             -11.2484
       184        2.0000           -0.4109176             -11.1816
       185        2.0000           -0.4082072             -11.1079
       186        2.0000           -0.4060343             -11.0488
       187        2.0000           -0.4038340             -10.9889
       188        2.0000           -0.4021550             -10.9432
       189        2.0000           -0.4002850             -10.8923
       190        2.0000           -0.3995028             -10.8710
       191        2.0000           -0.3982418             -10.8367
       192        2.0000           -0.3951327             -10.7521
       193        2.0000           -0.3935417             -10.7088
       194        2.0000           -0.3881461             -10.5620
       195        2.0000           -0.3796543             -10.3309 (HOMO)
       196                         -0.3329676              -9.0605 (LUMO)
       197                         -0.3257575              -8.8643
       198                         -0.3155181              -8.5857
       199                         -0.3114006              -8.4736
       200                         -0.2781769              -7.5696
       201                         -0.2591319              -7.0513
       202                         -0.2548952              -6.9361
       203                         -0.2506868              -6.8215
       204                         -0.2407938              -6.5523
       205                         -0.2398727              -6.5273
       206                         -0.2353623              -6.4045
       ...                                ...                  ...
       378                          1.0763761              29.2897
      -------------------------------------------------------------
                  HL-Gap            0.0466867 Eh            1.2704 eV
             Fermi-level           -0.3563110 Eh           -9.6957 eV

     #   Z        covCN         q      C6AA      α(0)
     1   6 C      2.895    -0.020    28.500     8.753
     2   6 C      2.989    -0.028    28.694     8.787
     3   6 C      2.998     0.035    27.216     8.558
     4   6 C      3.014     0.008    27.831     8.654
     5   6 C      3.020    -0.016    28.386     8.739
     6   6 C      2.863     0.223    23.314     7.914
     7   6 C      2.906    -0.026    28.660     8.778
     8   6 C      2.911    -0.019    28.482     8.751
     9   6 C      2.912    -0.021    28.540     8.760
    10   6 C      2.905    -0.014    28.359     8.732
    11   1 H      0.924     0.047     2.356     2.400
    12   1 H      0.924     0.048     2.339     2.392
    13   8 O      0.856    -0.365    20.988     6.142
    14   6 C      2.944     0.012    27.754     8.640
    15   6 C      1.913     0.119    28.162     8.570
    16   6 C      1.913     0.124    28.050     8.553
    17   7 N      0.911    -0.237    26.210     7.405
    18   7 N      0.911    -0.237    26.191     7.402
    19   6 C      3.079     0.119    25.315     8.249
    20   8 O      1.718    -0.195    17.247     5.607
    21   6 C      3.191     0.133    24.640     8.096
    22   6 C      3.106    -0.017    28.293     8.715
    23   6 C      3.006    -0.049    29.210     8.866
    24   6 C      2.894    -0.017    28.442     8.744
    25   6 C      2.988    -0.035    28.874     8.814
    26   6 C      2.999     0.030    27.311     8.573
    27   6 C      3.014     0.008    27.832     8.654
    28   6 C      3.018    -0.016    28.392     8.741
    29   6 C      2.864     0.224    23.298     7.912
    30   6 C      2.906    -0.027    28.668     8.779
    31   6 C      2.911    -0.019    28.481     8.751
    32   6 C      2.912    -0.021    28.538     8.760
    33   6 C      2.905    -0.014    28.355     8.731
    34   1 H      0.924     0.048     2.350     2.397
    35   1 H      0.924     0.049     2.332     2.388
    36   8 O      0.856    -0.362    20.936     6.135
    37   6 C      2.944     0.005    27.915     8.665
    38   6 C      1.912     0.119    28.180     8.573
    39   6 C      1.913     0.116    28.232     8.581
    40   7 N      0.911    -0.237    26.197     7.403
    41   7 N      0.911    -0.234    26.120     7.392
    42   6 C      3.007    -0.003    28.084     8.693
    43   6 C      3.064     0.006    27.828     8.650
    44   6 C      3.931     0.013    20.290     6.401
    45   6 C      2.900    -0.026    28.655     8.777
    46   6 C      3.064     0.007    27.798     8.646
    47   6 C      3.007    -0.003    28.080     8.692
    48   6 C      2.901    -0.028    28.691     8.783
    49   6 C      3.929     0.013    20.295     6.402
    50   6 C      3.116    -0.015    28.210     8.700
    51   6 C      3.177     0.131    24.756     8.125
    52   6 C      2.965     0.010    27.789     8.647
    53   6 C      2.965     0.010    27.784     8.646
    54   6 C      2.967     0.011    27.775     8.645
    55   6 C      2.962     0.010    27.802     8.649
    56   6 C      2.913    -0.035    28.865     8.810
    57   6 C      2.914    -0.036    28.894     8.814
    58   6 C      2.958     0.014    27.707     8.634
    59   6 C      2.914    -0.036    28.887     8.813
    60   6 C      2.911    -0.035    28.873     8.811
    61   6 C      2.911    -0.035    28.859     8.809
    62   6 C      2.914    -0.036    28.897     8.815
    63   6 C      2.959     0.014    27.710     8.634
    64   6 C      2.914    -0.037    28.909     8.817
    65   6 C      2.912    -0.036    28.904     8.816
    66   6 C      2.911    -0.034    28.840     8.806
    67   6 C      2.914    -0.036    28.899     8.815
    68   6 C      2.959     0.013    27.729     8.637
    69   6 C      2.914    -0.037    28.914     8.818
    70   6 C      2.912    -0.037    28.911     8.817
    71   6 C      2.911    -0.035    28.879     8.812
    72   6 C      2.914    -0.034    28.845     8.807
    73   6 C      2.959     0.017    27.622     8.621
    74   6 C      2.914    -0.033    28.817     8.803
    75   6 C      2.913    -0.031    28.775     8.796
    76   6 C      3.800    -0.054    21.554     6.610
    77   6 C      3.745    -0.094    22.365     6.746
    78   6 C      3.800    -0.055    21.555     6.610
    79   6 C      3.745    -0.094    22.359     6.745
    80   6 C      3.800    -0.055    21.558     6.611
    81   6 C      3.745    -0.093    22.353     6.744
    82   6 C      3.800    -0.054    21.548     6.609
    83   6 C      3.746    -0.093    22.354     6.744
    84   6 C      3.004    -0.042    29.026     8.838
    85   6 C      3.071     0.117    25.359     8.257
    86   8 O      1.718    -0.191    17.195     5.599
    87   1 H      0.924     0.084     1.937     2.176
    88   1 H      0.925     0.056     2.241     2.341
    89   1 H      0.924     0.060     2.203     2.321
    90   1 H      0.925     0.056     2.252     2.347
    91   1 H      0.924     0.094     1.844     2.124
    92   1 H      0.925     0.057     2.232     2.336
    93   1 H      0.924     0.060     2.202     2.320
    94   1 H      0.924     0.052     2.295     2.369
    95   1 H      0.924     0.054     2.269     2.356
    96   1 H      0.924     0.031     2.567     2.506
    97   1 H      0.924     0.033     2.547     2.496
    98   1 H      0.924     0.034     2.525     2.485
    99   1 H      0.924     0.030     2.585     2.514
   100   1 H      0.924     0.035     2.518     2.481
   101   1 H      0.924     0.035     2.518     2.482
   102   1 H      0.924     0.032     2.564     2.504
   103   1 H      0.924     0.021     2.713     2.576
   104   1 H      0.924     0.037     2.489     2.467
   105   1 H      0.924     0.036     2.508     2.476
   106   1 H      0.924     0.031     2.576     2.510
   107   1 H      0.924     0.021     2.719     2.579
   108   1 H      0.925     0.028     2.609     2.526
   109   1 H      0.924     0.036     2.507     2.476
   110   1 H      0.924     0.034     2.524     2.484
   111   1 H      0.924     0.027     2.629     2.535
   112   1 H      0.923     0.037     2.485     2.465
   113   1 H      0.923     0.036     2.506     2.476
   114   1 H      0.923     0.035     2.523     2.484
   115   1 H      0.923     0.035     2.510     2.478
   116   1 H      0.923     0.036     2.506     2.476
   117   1 H      0.923     0.035     2.511     2.478
   118   1 H      0.923     0.037     2.483     2.464
   119   1 H      0.923     0.034     2.527     2.486
   120   1 H      0.923     0.037     2.494     2.470
   121   1 H      0.923     0.035     2.511     2.478
   122   1 H      0.923     0.037     2.488     2.467
   123   1 H      0.923     0.039     2.467     2.456
   124   1 H      0.923     0.035     2.515     2.480
   125   1 H      0.923     0.036     2.509     2.477
   126   1 H      0.923     0.034     2.528     2.486
   127   1 H      0.923     0.035     2.516     2.481
   128   1 H      0.923     0.036     2.501     2.473
   129   1 H      0.923     0.034     2.534     2.489
   130   1 H      0.923     0.036     2.501     2.473
   131   1 H      0.923     0.036     2.509     2.477
   132   1 H      0.925     0.046     2.368     2.407

 Mol. C6AA /au·bohr⁶  :     250592.355907
 Mol. C8AA /au·bohr⁸  :    6322677.307595
 Mol. α(0) /au        :        796.238822


Wiberg/Mayer (AO) data.
largest (>0.10) Wiberg bond orders for each atom
          total WBO             WBO to atom ...
     1  C   3.952        C    2 1.540    C   19 1.246    H   87 0.949
     2  C   3.953        C    1 1.540    C    3 1.143    C    6 1.007
     3  C   3.976        C   14 1.493    C    2 1.143    C    4 1.068
     4  C   3.978        C    7 1.402    C    5 1.301    C    3 1.068
     5  C   3.974        C   10 1.416    C    4 1.301    C    6 1.016
     6  C   3.922        O   13 1.780    C    5 1.016    C    2 1.007
     7  C   3.978        C    8 1.432    C    4 1.402    H   88 0.962
     8  C   3.979        C    9 1.432    C    7 1.432    H   12 0.970
     9  C   3.953        C    8 1.432    C   10 1.426    H   11 0.970
    10  C   3.982        C    9 1.426    C    5 1.416    H   89 0.966
    11  H   0.997        C    9 0.970
    12  H   0.997        C    8 0.970
    13  O   2.058        C    6 1.780
    14  C   3.955        C    3 1.493    C   15 1.096    C   16 1.092
    15  C   3.941        N   17 2.767    C   14 1.096
    16  C   3.942        N   18 2.774    C   14 1.092
    17  N   2.969        C   15 2.767
    18  N   2.982        C   16 2.774
    19  C   3.883        C   23 1.385    C    1 1.246    O   20 1.055
    20  O   2.418        C   21 1.143    C   19 1.055
    21  C   3.896        C   22 1.369    O   20 1.143    C   42 1.137
    22  C   3.957        C   23 1.385    C   21 1.369    C   44 0.977
    23  C   3.968        C   22 1.385    C   19 1.385    H   90 0.971
    24  C   3.948        C   25 1.526    C   85 1.255    H   91 0.946
    25  C   3.953        C   24 1.526    C   26 1.155    C   29 1.008
    26  C   3.973        C   37 1.476    C   25 1.155    C   27 1.068
    27  C   3.981        C   30 1.403    C   28 1.302    C   26 1.068
    28  C   3.974        C   33 1.419    C   27 1.302    C   29 1.014
    29  C   3.922        O   36 1.783    C   28 1.014    C   25 1.008
    30  C   3.977        C   31 1.430    C   27 1.403    H   92 0.962
    31  C   3.980        C   32 1.434    C   30 1.430    H   35 0.970
    32  C   3.953        C   31 1.434    C   33 1.423    H   34 0.970
    33  C   3.982        C   32 1.423    C   28 1.419    H   93 0.966
    34  H   0.997        C   32 0.970
    35  H   0.997        C   31 0.970
    36  O   2.051        C   29 1.783
    37  C   3.941        C   26 1.476    C   39 1.100    C   38 1.097
    38  C   3.942        N   40 2.766    C   37 1.097
    39  C   3.943        N   41 2.767    C   37 1.100
    40  N   2.967        C   38 2.766
    41  N   2.982        C   39 2.767
    42  C   3.953        C   45 1.342    C   43 1.284    C   21 1.137
    43  C   3.958        C   48 1.469    C   42 1.284    C   44 0.964
    44  C   3.983        C   22 0.977    C   43 0.964    C   53 0.959    C   52 0.951
    45  C   3.973        C   46 1.473    C   42 1.342    H   94 0.964
    46  C   3.958        C   45 1.473    C   47 1.280    C   49 0.968
    47  C   3.953        C   48 1.346    C   46 1.280    C   51 1.136
    48  C   3.969        C   43 1.469    C   47 1.346    H   95 0.964
    49  C   3.983        C   50 0.979    C   46 0.968    C   55 0.957    C   54 0.946
    50  C   3.960        C   84 1.389    C   51 1.363    C   49 0.979
    51  C   3.885        C   50 1.363    O   86 1.151    C   47 1.136
    52  C   3.980        C   61 1.410    C   65 1.407    C   44 0.951    C   63 0.106
    53  C   3.981        C   60 1.425    C   56 1.391    C   44 0.959    C   58 0.106
    54  C   3.978        C   71 1.423    C   75 1.394    C   49 0.946    C   73 0.106
    55  C   3.981        C   66 1.414    C   70 1.404    C   49 0.957    C   68 0.106
    56  C   3.989        C   57 1.465    C   53 1.391    H   96 0.968    C   59 0.109
    57  C   3.989        C   56 1.465    C   58 1.394    H   97 0.969    C   60 0.108
    58  C   3.985        C   59 1.423    C   57 1.394    C   76 1.012    C   53 0.106
    59  C   3.990        C   60 1.431    C   58 1.423    H   98 0.968    C   56 0.109
    60  C   3.989        C   59 1.431    C   53 1.425    H   99 0.967    C   57 0.108
    61  C   3.989        C   62 1.445    C   52 1.410    H  100 0.967    C   64 0.107
    62  C   3.989        C   61 1.445    C   63 1.410    H  101 0.969    C   65 0.109
    63  C   3.985        C   62 1.410    C   64 1.406    C   78 1.013    C   52 0.106
    64  C   3.990        C   65 1.451    C   63 1.406    H  102 0.969    C   61 0.107
    65  C   3.990        C   64 1.451    C   52 1.407    H  103 0.968    C   62 0.109
    66  C   3.989        C   67 1.442    C   55 1.414    H  104 0.967    C   69 0.108
    67  C   3.989        C   66 1.442    C   68 1.414    H  105 0.968    C   70 0.108
    68  C   3.985        C   67 1.414    C   69 1.403    C   82 1.012    C   55 0.106
    69  C   3.990        C   70 1.454    C   68 1.403    H  106 0.969    C   66 0.108
    70  C   3.990        C   69 1.454    C   55 1.404    H  107 0.968    C   67 0.108
    71  C   3.989        C   72 1.433    C   54 1.423    H  108 0.966    C   74 0.107
    72  C   3.989        C   71 1.433    C   73 1.421    H  109 0.968    C   75 0.109
    73  C   3.985        C   72 1.421    C   74 1.396    C   80 1.013    C   54 0.106
    74  C   3.989        C   75 1.463    C   73 1.396    H  110 0.969    C   71 0.107
    75  C   3.990        C   74 1.463    C   54 1.394    H  111 0.969    C   72 0.109
    76  C   3.996        C   58 1.012    C   77 1.004    H  113 0.976    H  112 0.968
    77  C   3.995        C   76 1.004    H  116 0.988    H  114 0.987    H  115 0.986
    78  C   3.996        C   63 1.013    C   79 1.002    H  117 0.975    H  118 0.972
    79  C   3.995        C   78 1.002    H  119 0.988    H  121 0.988    H  120 0.986
    80  C   3.996        C   73 1.013    C   81 1.002    H  122 0.974    H  123 0.972
    81  C   3.995        C   80 1.002    H  124 0.988    H  126 0.988    H  125 0.986
    82  C   3.996        C   68 1.012    C   83 1.002    H  128 0.975    H  127 0.972
    83  C   3.995        C   82 1.002    H  131 0.988    H  129 0.988    H  130 0.986
    84  C   3.964        C   50 1.389    C   85 1.381    H  132 0.968
    85  C   3.881        C   84 1.381    C   24 1.255    O   86 1.048
    86  O   2.415        C   51 1.151    C   85 1.048
    87  H   0.991        C    1 0.949
    88  H   0.996        C    7 0.962
    89  H   0.996        C   10 0.966
    90  H   0.997        C   23 0.971
    91  H   0.989        C   24 0.946
    92  H   0.996        C   30 0.962
    93  H   0.996        C   33 0.966
    94  H   0.996        C   45 0.964
    95  H   0.996        C   48 0.964
    96  H   0.999        C   56 0.968
    97  H   0.998        C   57 0.969
    98  H   0.998        C   59 0.968
    99  H   0.999        C   60 0.967
   100  H   0.998        C   61 0.967
   101  H   0.998        C   62 0.969
   102  H   0.998        C   64 0.969
   103  H   0.999        C   65 0.968
   104  H   0.998        C   66 0.967
   105  H   0.998        C   67 0.968
   106  H   0.999        C   69 0.969
   107  H   0.999        C   70 0.968
   108  H   0.999        C   71 0.966
   109  H   0.998        C   72 0.968
   110  H   0.998        C   74 0.969
   111  H   0.999        C   75 0.969
   112  H   0.998        C   76 0.968
   113  H   0.998        C   76 0.976
   114  H   0.999        C   77 0.987
   115  H   0.998        C   77 0.986
   116  H   0.999        C   77 0.988
   117  H   0.998        C   78 0.975
   118  H   0.998        C   78 0.972
   119  H   0.999        C   79 0.988
   120  H   0.998        C   79 0.986
   121  H   0.999        C   79 0.988
   122  H   0.998        C   80 0.974
   123  H   0.998        C   80 0.972
   124  H   0.999        C   81 0.988
   125  H   0.998        C   81 0.986
   126  H   0.999        C   81 0.988
   127  H   0.998        C   82 0.972
   128  H   0.998        C   82 0.975
   129  H   0.999        C   83 0.988
   130  H   0.998        C   83 0.986
   131  H   0.999        C   83 0.988
   132  H   0.997        C   84 0.968

molecular dipole:
                 x           y           z       tot (Debye)
 q only:       -1.309       1.357       0.737
   full:       -1.719       1.821       1.002       6.857
molecular quadrupole (traceless):
                xx          xy          yy          xz          yz          zz
 q only:      -33.525       8.367      18.362      50.325     -20.125      15.163
  q+dip:      -38.890      24.951      27.023      60.705     -27.723      11.867
   full:      -34.633      23.762      32.098      57.673     -27.236       2.535


           -------------------------------------------------
          | TOTAL ENERGY             -211.732743981864 Eh   |
          | GRADIENT NORM               0.110909005439 Eh/α |
          | HOMO-LUMO GAP               1.270409237717 eV   |
           -------------------------------------------------

------------------------------------------------------------------------
 * finished run on 2021/04/12 at 13:53:21.343     
------------------------------------------------------------------------
 total:
 * wall-time:     0 d,  0 h,  0 min,  1.064 sec
 *  cpu-time:     0 d,  0 h,  0 min,  1.055 sec
 * ratio c/w:     0.991 speedup
 SCF:
 * wall-time:     0 d,  0 h,  0 min,  0.789 sec
 *  cpu-time:     0 d,  0 h,  0 min,  0.787 sec
 * ratio c/w:     0.998 speedup

