      -----------------------------------------------------------      
     |                   =====================                   |     
     |                           x T B                           |     
     |                   =====================                   |     
     |                         S. Grimme                         |     
     |          Mulliken Center for Theoretical Chemistry        |     
     |                    University of Bonn                     |     
     |                Version 6.2 RC2 (SAW190805)                |     
      -----------------------------------------------------------      

   This program is distributed in the hope that it will be useful,
   but WITHOUT ANY WARRANTY; without even the implied warranty of
   MERCHANTABILITY or FITNESS FOR A PARTICULAR PURPOSE.
   
   FOR NON-COMMERCIAL, ACADEMIA USE ONLY.
   
   Cite this work as:
   * S. Grimme, C. Bannwarth, P. Shushkov, J. Chem. Theory Comput., 2017,
     13, 1989-2009. DOI: 10.1021/acs.jctc.7b00118
   * C. Bannwarth, S. Ehlert and S. Grimme., J. Chem. Theory Comput., 2019,
     15, 1652-1671. DOI: 10.1021/acs.jctc.8b01176
   * P. Pracht, E. Caldeweyher, S. Ehlert, S. Grimme, ChemRxiv, 2019, preprint.
     DOI: 10.26434/chemrxiv.8326202.v1
   
   for DFT-D4:
   * E. Caldeweyher, C. Bannwarth and S. Grimme, J. Chem. Phys., 2017,
     147, 034112. DOI: 10.1063/1.4993215
   * E. Caldeweyher, S. Ehlert, A. Hansen, H. Neugebauer, S. Spicher,
     C. Bannwarth and S. Grimme, J. Chem. Phys., 2019, 150, 154122.
     DOI: 10.1063/1.5090222
   
   for sTDA-xTB:
   * S. Grimme and C. Bannwarth, J. Chem. Phys., 2016, 145, 054103.
     DOI: 10.1063/1.4959605
   
   in the mass-spec context:
   * V. Asgeirsson, C. Bauer and S. Grimme, Chem. Sci., 2017, 8, 4879.
     DOI: 10.1039/c7sc00601b
   
   for metadynamics refer to:
   * S. Grimme, J. Chem. Theory Comput., 2019, 155, 2847-2862
     DOI: 10.1021/acs.jctc.9b00143
   
   with help from (in alphabetical order)
   C. Bannwarth, F. Bohle, G. Brandenburg, E. Caldeweyher, M. Checinski,
   S. Dohm, S. Ehlert, S. Ehrlich, F. März, H. Neugebauer, J. Pisarek,
   P. Pracht, P. Shushkov, and S. Spicher.
   
 * started run on 2021/04/12 at 13:53:21.947     

           -------------------------------------------------
          |                Calculation Setup                |
           -------------------------------------------------

          program call               : /ihome/ghutchison/geoffh/xtb/xtb IDST-4F.xyz -sp
          hostname                   : smp-n149
          coordinate file            : IDST-4F.xyz
          omp threads                :                     1
          number of atoms            :                   109
          number of electrons        :                   350
          charge                     :                     0
          spin                       :                   0.0
          first test random number   :      0.82435543093374


########################################################################
# WARNING! Please study the warnings concerning your input carefully
#  - XTBPATH is not set, using XTBHOME instead
#  - the use of '-sp' is discouraged, please use '--sp' next time
########################################################################

           ------------------------------------------------- 
          |                 G F N 2 - x T B                 |
          | Geometry, Frequencies, Noncovalent interactions |
          |            JCTC 2019 parametrisation            |
           ------------------------------------------------- 
             KAB for C  - Si     :                1.0500
             KAB for H  - Pd     :                0.9500
             k(s)              :                1.8500
             k(p)              :                2.2300
             k(d)              :                2.2300
             k(f)              :                2.0000
             kEN (H0ij)        :               -2.0000
             D4 a1             :                0.5200
             D4 a2             :                5.0000
             D4 s6             :                1.0000
             D4 s8             :                2.7000
             D4 s9             :                5.0000
             alphaj            :                2.0000

  Z AO/shell   Hii/eV     exponent
  1     Wed Apr 25 08:07:45 CEST 2018   EN: 2.200 GM2: 0.406  GM3: 0.0800  RAES: 1.40
     1s    -10.707211    1.230000
  6     Wed Apr 25 08:07:45 CEST 2018   EN: 2.550 GM2: 0.538  GM3: 0.1500  RAES: 3.00
     2s    -13.970922    2.096432
     2p    -10.063292    1.800000
  7     Wed Apr 25 08:07:45 CEST 2018   EN: 3.040 GM2: 0.461  GM3:-0.0640  RAES: 1.90
     2s    -16.686243    2.339881
     2p    -12.523956    2.014332
  8     Wed Apr 25 08:07:45 CEST 2018   EN: 3.440 GM2: 0.452  GM3:-0.0517  RAES: 1.80
     2s    -20.229985    2.439742
     2p    -15.503117    2.137023
  9     Mon Apr 23 13:58:50 CEST 2018   EN: 3.980 GM2: 0.532  GM3: 0.1426  RAES: 2.40
     2s    -23.458179    2.416361
     2p    -15.746583    2.308399
 16     Tue Apr 24 11:44:34 CEST 2018   EN: 2.580 GM2: 0.340  GM3:-0.0502  RAES: 3.10
     3s    -20.029654    1.981333
     3p    -11.377694    2.025643
     3d     -0.420282    1.702555

           ------------------------------------------------- 
          |        Self-Consistent Charge Iterations        |
           ------------------------------------------------- 

          ...................................................
          :                      SETUP                      :
          :.................................................:
          :  # basis functions                 346          :
          :  # atomic orbitals                 342          :
          :  # shells                          184          :
          :  # electrons                       350          :
          :  max. iterations                   250          :
          :  Hamiltonian                  GFN2-xTB          :
          :  restarted?                      false          :
          :  GBSA solvation                  false          :
          :  PC potential                    false          :
          :  electronic temp.          300.0000000     K    :
          :  accuracy                    1.0000000          :
          :  -> integral cutoff          0.2500000E+02      :
          :  -> integral neglect         0.1000000E-07      :
          :  -> SCF convergence          0.1000000E-05 Eh   :
          :  -> wf. convergence          0.1000000E-03 e    :
          :  Broyden damping             0.4000000          :
          ...................................................

 iter      E             dE          RMSdq      gap      omega  full diag
   1   -195.4591612 -0.195459E+03  0.481E+00    1.23       0.0  T
   2   -195.5359616 -0.768004E-01  0.303E+00    1.11       1.0  T
   3   -195.2553897  0.280572E+00  0.226E+00    0.61       1.0  T
   4   -195.6797816 -0.424392E+00  0.717E-01    0.95       1.0  T
   5   -195.7242044 -0.444228E-01  0.260E-01    0.77       1.0  T
   6   -195.7259946 -0.179022E-02  0.163E-01    0.89       1.0  T
   7   -195.7289239 -0.292937E-02  0.599E-02    0.84       1.0  T
   8   -195.7292328 -0.308804E-03  0.254E-02    0.85       1.0  T
   9   -195.7292540 -0.212773E-04  0.159E-02    0.85       1.0  T
  10   -195.7292683 -0.142599E-04  0.827E-03    0.85       1.2  T
  11   -195.7292732 -0.492376E-05  0.390E-03    0.85       2.5  T
  12   -195.7292738 -0.565090E-06  0.207E-03    0.85       4.6  T
  13   -195.7292739 -0.154251E-06  0.114E-03    0.85       8.4  T
  14   -195.7292740 -0.278311E-07  0.569E-04    0.85      16.8  T
  15   -195.7292740 -0.192130E-07  0.228E-04    0.85      42.0  T

   *** convergence criteria satisfied after 15 iterations ***

         #    Occupation            Energy/Eh            Energy/eV
      -------------------------------------------------------------
         1        2.0000           -0.8519992             -23.1841
       ...           ...                  ...                  ...
       169        2.0000           -0.4198199             -11.4239
       170        2.0000           -0.4161842             -11.3249
       171        2.0000           -0.4150833             -11.2950
       172        2.0000           -0.4138423             -11.2612
       173        2.0000           -0.4032323             -10.9725
       174        2.0000           -0.3907851             -10.6338
       175        2.0000           -0.3759077             -10.2290 (HOMO)
       176        0.0000           -0.3447815              -9.3820 (LUMO)
       177                         -0.3406715              -9.2701
       178                         -0.3310380              -9.0080
       179                         -0.3277844              -8.9195
       180                         -0.3008104              -8.1855
       ...                                ...                  ...
       342                          1.0649737              28.9794
      -------------------------------------------------------------
                  HL-Gap            0.0311262 Eh            0.8470 eV
             Fermi-level           -0.3603508 Eh           -9.8056 eV

 SCC (total)                   0 d,  0 h,  0 min,  0.666 sec
 SCC setup                      ...        0 min,  0.003 sec (  0.383%)
 Dispersion                     ...        0 min,  0.005 sec (  0.821%)
 integral evaluation            ...        0 min,  0.207 sec ( 31.027%)
 zeroth order Hamiltonian       ...        0 min,  0.001 sec (  0.200%)
 iterations                     ...        0 min,  0.277 sec ( 41.667%)
 molecular gradient             ...        0 min,  0.170 sec ( 25.538%)
 printout                       ...        0 min,  0.002 sec (  0.355%)

         :::::::::::::::::::::::::::::::::::::::::::::::::::::
         ::                     SUMMARY                     ::
         :::::::::::::::::::::::::::::::::::::::::::::::::::::
         :: total energy            -193.007294586469 Eh    ::
         :: gradient norm              0.105296376085 Eh/a0 ::
         :: HOMO-LUMO gap              0.846987528814 eV    ::
         ::.................................................::
         :: SCC energy              -195.729273978853 Eh    ::
         :: -> isotropic ES            0.128696076030 Eh    ::
         :: -> anisotropic ES          0.014887942439 Eh    ::
         :: -> anisotropic XC          0.113245671273 Eh    ::
         :: -> dispersion             -0.161648563855 Eh    ::
         :: repulsion energy           2.720871254648 Eh    ::
         :: add. restraining           0.000000000000 Eh    ::
         :::::::::::::::::::::::::::::::::::::::::::::::::::::

           -------------------------------------------------
          |                Property Printout                |
           -------------------------------------------------

    * Orbital Energies and Occupations

         #    Occupation            Energy/Eh            Energy/eV
      -------------------------------------------------------------
         1        2.0000           -0.8519992             -23.1841
       ...           ...                  ...                  ...
       163        2.0000           -0.4358679             -11.8606
       164        2.0000           -0.4320724             -11.7573
       165        2.0000           -0.4298938             -11.6980
       166        2.0000           -0.4280291             -11.6473
       167        2.0000           -0.4256113             -11.5815
       168        2.0000           -0.4231751             -11.5152
       169        2.0000           -0.4198199             -11.4239
       170        2.0000           -0.4161842             -11.3249
       171        2.0000           -0.4150833             -11.2950
       172        2.0000           -0.4138423             -11.2612
       173        2.0000           -0.4032323             -10.9725
       174        2.0000           -0.3907851             -10.6338
       175        2.0000           -0.3759077             -10.2290 (HOMO)
       176        0.0000           -0.3447815              -9.3820 (LUMO)
       177                         -0.3406715              -9.2701
       178                         -0.3310380              -9.0080
       179                         -0.3277844              -8.9195
       180                         -0.3008104              -8.1855
       181                         -0.2864587              -7.7949
       182                         -0.2769264              -7.5356
       183                         -0.2662201              -7.2442
       184                         -0.2553285              -6.9478
       185                         -0.2526717              -6.8755
       186                         -0.2521324              -6.8609
       ...                                ...                  ...
       342                          1.0649737              28.9794
      -------------------------------------------------------------
                  HL-Gap            0.0311262 Eh            0.8470 eV
             Fermi-level           -0.3603508 Eh           -9.8056 eV

     #   Z        covCN         q      C6AA      α(0)
     1   6 C      3.016     0.019    27.568     8.613
     2   6 C      3.039    -0.045    29.071     8.844
     3   6 C      3.181    -0.009    27.811     8.608
     4   6 C      3.924     0.014    20.272     6.399
     5   6 C      3.040     0.005    27.883     8.661
     6   6 C      3.019     0.005    27.900     8.664
     7   6 C      3.050     0.023    27.451     8.593
     8  16 S      2.296    -0.021   141.927    20.051
     9   6 C      2.902    -0.035    28.870     8.810
    10   6 C      3.049     0.007    27.808     8.649
    11   6 C      3.922     0.014    20.271     6.399
    12   6 C      3.185    -0.005    27.695     8.588
    13   6 C      3.051     0.029    27.316     8.572
    14   6 C      3.014     0.002    27.962     8.674
    15   6 C      2.902    -0.033    28.830     8.804
    16  16 S      2.226    -0.015   141.691    20.034
    17   6 C      2.978     0.024    27.463     8.596
    18   6 C      3.045    -0.035    28.825     8.806
    19   6 C      3.798    -0.050    21.465     6.597
    20   6 C      3.745    -0.096    22.413     6.753
    21   6 C      3.799    -0.048    21.445     6.594
    22   6 C      3.745    -0.099    22.470     6.762
    23   6 C      3.798    -0.049    21.449     6.594
    24   6 C      3.745    -0.101    22.501     6.766
    25   6 C      3.799    -0.048    21.439     6.593
    26   6 C      3.745    -0.100    22.477     6.763
    27   6 C      2.914    -0.008    28.229     8.712
    28   6 C      2.988    -0.035    28.857     8.812
    29   6 C      3.000     0.035    27.205     8.556
    30   6 C      3.014     0.006    27.867     8.659
    31   6 C      3.025    -0.019    28.453     8.750
    32   6 C      2.860     0.226    23.254     7.904
    33   6 C      2.907    -0.050    29.238     8.866
    34   6 C      2.775     0.163    24.474     8.103
    35   6 C      2.777     0.161    24.508     8.108
    36   6 C      2.906    -0.037    28.930     8.819
    37   8 O      0.856    -0.353    20.771     6.110
    38   6 C      2.944     0.011    27.774     8.644
    39   6 C      1.912     0.118    28.202     8.576
    40   6 C      1.912     0.122    28.105     8.562
    41   9 F      0.787    -0.180    11.033     3.924
    42   9 F      0.787    -0.181    11.043     3.925
    43   7 N      0.911    -0.226    25.952     7.368
    44   7 N      0.911    -0.237    26.190     7.402
    45   6 C      2.918    -0.012    28.315     8.726
    46   6 C      2.991    -0.033    28.804     8.804
    47   6 C      3.003     0.034    27.215     8.558
    48   6 C      3.016     0.007    27.845     8.656
    49   6 C      3.025    -0.019    28.450     8.749
    50   6 C      2.860     0.228    23.220     7.898
    51   6 C      2.906    -0.049    29.223     8.864
    52   6 C      2.776     0.163    24.465     8.101
    53   6 C      2.777     0.161    24.506     8.108
    54   6 C      2.906    -0.037    28.928     8.819
    55   8 O      0.856    -0.350    20.704     6.100
    56   6 C      2.944     0.013    27.726     8.636
    57   6 C      1.910     0.118    28.197     8.576
    58   6 C      1.911     0.121    28.132     8.566
    59   9 F      0.787    -0.180    11.026     3.922
    60   9 F      0.787    -0.181    11.037     3.924
    61   7 N      0.911    -0.225    25.910     7.362
    62   7 N      0.911    -0.229    26.023     7.378
    63   6 C      3.032     0.023    27.470     8.597
    64  16 S      2.356    -0.012   141.557    20.025
    65   6 C      2.966     0.028    27.364     8.580
    66   6 C      3.095    -0.046    29.021     8.829
    67   6 C      3.096     0.034    27.120     8.535
    68  16 S      2.030    -0.145   147.143    20.416
    69   6 C      3.791    -0.002    20.627     6.468
    70   6 C      3.840    -0.050    21.443     6.587
    71   6 C      3.746    -0.102    22.511     6.768
    72   1 H      0.925     0.060     2.201     2.320
    73   1 H      0.924     0.049     2.333     2.389
    74   1 H      0.924     0.046     2.369     2.407
    75   1 H      0.924     0.053     2.277     2.360
    76   1 H      0.923     0.042     2.423     2.434
    77   1 H      0.923     0.039     2.457     2.451
    78   1 H      0.923     0.032     2.554     2.499
    79   1 H      0.923     0.040     2.455     2.450
    80   1 H      0.923     0.034     2.532     2.488
    81   1 H      0.923     0.035     2.518     2.481
    82   1 H      0.923     0.041     2.440     2.443
    83   1 H      0.923     0.040     2.454     2.450
    84   1 H      0.923     0.041     2.433     2.439
    85   1 H      0.923     0.037     2.494     2.470
    86   1 H      0.923     0.039     2.461     2.453
    87   1 H      0.923     0.041     2.433     2.440
    88   1 H      0.923     0.051     2.312     2.378
    89   1 H      0.923     0.040     2.447     2.447
    90   1 H      0.923     0.030     2.591     2.517
    91   1 H      0.923     0.040     2.452     2.449
    92   1 H      0.923     0.033     2.546     2.495
    93   1 H      0.923     0.038     2.474     2.460
    94   1 H      0.923     0.041     2.429     2.437
    95   1 H      0.923     0.040     2.452     2.449
    96   1 H      0.923     0.083     1.951     2.184
    97   1 H      0.925     0.090     1.882     2.146
    98   1 H      0.924     0.094     1.842     2.122
    99   1 H      0.924     0.081     1.966     2.193
   100   1 H      0.925     0.090     1.881     2.145
   101   1 H      0.924     0.094     1.843     2.123
   102   1 H      0.925     0.054     2.269     2.356
   103   1 H      0.923     0.045     2.378     2.412
   104   1 H      0.923     0.052     2.301     2.372
   105   1 H      0.923     0.044     2.392     2.419
   106   1 H      0.923     0.044     2.397     2.421
   107   1 H      0.923     0.039     2.465     2.455
   108   1 H      0.923     0.045     2.382     2.414
   109   1 H      0.923     0.038     2.472     2.459

 Mol. C6AA /au·bohr⁶  :     192719.612647
 Mol. C8AA /au·bohr⁸  :    5244829.275151
 Mol. α(0) /au        :        692.965281


Wiberg/Mayer (AO) data.
largest (>0.10) Wiberg bond orders for each atom
          total WBO             WBO to atom ...
     1  C   3.923        C    2 1.433    C   63 1.203    S    8 1.110
     2  C   3.956        C    1 1.433    C    3 1.348    H   72 0.954
     3  C   3.956        C    7 1.405    C    2 1.348    C    4 0.983
     4  C   3.986        C    5 0.984    C    3 0.983    C   19 0.962    C   21 0.955
     5  C   3.964        C   15 1.473    C    6 1.281    C    4 0.984
     6  C   3.950        C    9 1.347    C    5 1.281    C    7 1.146
     7  C   3.904        C    3 1.405    S    8 1.162    C    6 1.146
     8  S   2.583        C    7 1.162    C    1 1.110
     9  C   3.973        C   10 1.466    C    6 1.347    H   73 0.961
    10  C   3.963        C    9 1.466    C   14 1.282    C   11 0.987
    11  C   3.986        C   10 0.987    C   12 0.986    C   23 0.957    C   25 0.955
    12  C   3.961        C   13 1.382    C   18 1.378    C   11 0.986
    13  C   3.927        C   12 1.382    S   16 1.177    C   14 1.149
    14  C   3.951        C   15 1.340    C   10 1.282    C   13 1.149
    15  C   3.973        C    5 1.473    C   14 1.340    H   74 0.962
    16  S   2.587        C   13 1.177    C   17 1.098
    17  C   3.927        C   18 1.404    C   27 1.247    S   16 1.098
    18  C   3.971        C   17 1.404    C   12 1.378    H   75 0.961
    19  C   3.993        C   20 1.021    H   77 0.974    H   76 0.970    C    4 0.962
    20  C   3.996        C   19 1.021    H   80 0.987    H   78 0.986    H   79 0.986
    21  C   3.992        C   22 1.020    H   81 0.977    H   82 0.974    C    4 0.955
    22  C   3.993        C   21 1.020    H   85 0.984    H   84 0.983    H   83 0.983
    23  C   3.992        C   24 1.021    H   86 0.975    H   87 0.970    C   11 0.957
    24  C   3.994        C   23 1.021    H   90 0.986    H   89 0.985    H   88 0.984
    25  C   3.992        C   26 1.020    H   92 0.977    H   91 0.974    C   11 0.955
    26  C   3.993        C   25 1.020    H   93 0.984    H   94 0.983    H   95 0.983
    27  C   3.942        C   28 1.540    C   17 1.247    H   96 0.942
    28  C   3.959        C   27 1.540    C   29 1.144    C   32 1.015
    29  C   3.973        C   38 1.484    C   28 1.144    C   30 1.071
    30  C   3.980        C   33 1.391    C   31 1.310    C   29 1.071
    31  C   3.973        C   36 1.407    C   30 1.310    C   32 1.012
    32  C   3.925        O   37 1.783    C   28 1.015    C   31 1.012
    33  C   3.972        C   34 1.399    C   30 1.391    H   97 0.956
    34  C   3.888        C   33 1.399    C   35 1.316    F   41 0.996
    35  C   3.881        C   36 1.394    C   34 1.316    F   42 0.994
    36  C   3.978        C   31 1.407    C   35 1.394    H   98 0.959
    37  O   2.057        C   32 1.783
    38  C   3.968        C   29 1.484    C   39 1.096    C   40 1.095
    39  C   3.942        N   43 2.770    C   38 1.096
    40  C   3.942        N   44 2.770    C   38 1.095
    41  F   1.139        C   34 0.996
    42  F   1.136        C   35 0.994
    43  N   2.970        C   39 2.770
    44  N   2.981        C   40 2.770
    45  C   3.939        C   46 1.544    C   65 1.240    H   99 0.945
    46  C   3.951        C   45 1.544    C   47 1.137    C   50 1.008
    47  C   3.971        C   56 1.491    C   46 1.137    C   48 1.070
    48  C   3.980        C   51 1.391    C   49 1.310    C   47 1.070
    49  C   3.973        C   54 1.407    C   48 1.310    C   50 1.008
    50  C   3.922        O   55 1.789    C   46 1.008    C   49 1.008
    51  C   3.971        C   52 1.398    C   48 1.391    H  100 0.956
    52  C   3.888        C   51 1.398    C   53 1.316    F   59 0.997
    53  C   3.866        C   54 1.393    C   52 1.316    F   60 0.995
    54  C   3.977        C   49 1.407    C   53 1.393    H  101 0.959
    55  O   2.062        C   50 1.789
    56  C   3.948        C   47 1.491    C   57 1.095    C   58 1.092
    57  C   3.942        N   61 2.773    C   56 1.095
    58  C   3.943        N   62 2.776    C   56 1.092
    59  F   1.140        C   52 0.997
    60  F   1.136        C   53 0.995
    61  N   2.972        C   57 2.773
    62  N   2.981        C   58 2.776
    63  C   3.927        C   67 1.351    C    1 1.203    S   64 1.147
    64  S   2.600        C   63 1.147    C   65 1.110
    65  C   3.930        C   66 1.409    C   45 1.240    S   64 1.110
    66  C   3.970        C   65 1.409    C   67 1.344    H  102 0.960
    67  C   3.939        C   63 1.351    C   66 1.344    S   68 1.063
    68  S   2.261        C   67 1.063    C   69 0.975
    69  C   3.968        C   70 1.009    S   68 0.975    H  103 0.974    H  104 0.973
    70  C   3.992        C   71 1.015    C   69 1.009    H  105 0.977    H  106 0.975
    71  C   3.992        C   70 1.015    H  109 0.987    H  107 0.987    H  108 0.985
    72  H   0.996        C    2 0.954
    73  H   0.996        C    9 0.961
    74  H   0.997        C   15 0.962
    75  H   0.997        C   18 0.961
    76  H   0.997        C   19 0.970
    77  H   0.998        C   19 0.974
    78  H   0.999        C   20 0.986
    79  H   0.998        C   20 0.986
    80  H   0.999        C   20 0.987
    81  H   0.998        C   21 0.977
    82  H   0.998        C   21 0.974
    83  H   0.998        C   22 0.983
    84  H   0.997        C   22 0.983
    85  H   0.999        C   22 0.984
    86  H   0.998        C   23 0.975
    87  H   0.997        C   23 0.970
    88  H   0.997        C   24 0.984
    89  H   0.998        C   24 0.985
    90  H   0.999        C   24 0.986
    91  H   0.998        C   25 0.974
    92  H   0.999        C   25 0.977
    93  H   0.999        C   26 0.984
    94  H   0.997        C   26 0.983
    95  H   0.998        C   26 0.983
    96  H   0.990        C   27 0.942
    97  H   0.991        C   33 0.956
    98  H   0.990        C   36 0.959
    99  H   0.991        C   45 0.945
   100  H   0.991        C   51 0.956
   101  H   0.990        C   54 0.959
   102  H   0.996        C   66 0.960
   103  H   0.997        C   69 0.974
   104  H   0.997        C   69 0.973
   105  H   0.998        C   70 0.977
   106  H   0.998        C   70 0.975
   107  H   0.998        C   71 0.987
   108  H   0.998        C   71 0.985
   109  H   0.999        C   71 0.987

molecular dipole:
                 x           y           z       tot (Debye)
 q only:       -1.383      -1.063      -1.282
   full:       -1.368      -1.408      -1.310       5.998
molecular quadrupole (traceless):
                xx          xy          yy          xz          yz          zz
 q only:       54.911      61.916    -111.755      16.947      -4.048      56.844
  q+dip:       41.717      77.066     -84.927      24.265      -7.010      43.210
   full:       37.201      74.258     -88.475      17.284      -0.906      51.274


           -------------------------------------------------
          | TOTAL ENERGY             -193.007294586469 Eh   |
          | GRADIENT NORM               0.105296376085 Eh/α |
          | HOMO-LUMO GAP               0.846987528814 eV   |
           -------------------------------------------------

------------------------------------------------------------------------
 * finished run on 2021/04/12 at 13:53:22.842     
------------------------------------------------------------------------
 total:
 * wall-time:     0 d,  0 h,  0 min,  0.895 sec
 *  cpu-time:     0 d,  0 h,  0 min,  0.886 sec
 * ratio c/w:     0.990 speedup
 SCF:
 * wall-time:     0 d,  0 h,  0 min,  0.667 sec
 *  cpu-time:     0 d,  0 h,  0 min,  0.665 sec
 * ratio c/w:     0.998 speedup

