      -----------------------------------------------------------      
     |                   =====================                   |     
     |                           x T B                           |     
     |                   =====================                   |     
     |                         S. Grimme                         |     
     |          Mulliken Center for Theoretical Chemistry        |     
     |                    University of Bonn                     |     
     |                Version 6.2 RC2 (SAW190805)                |     
      -----------------------------------------------------------      

   This program is distributed in the hope that it will be useful,
   but WITHOUT ANY WARRANTY; without even the implied warranty of
   MERCHANTABILITY or FITNESS FOR A PARTICULAR PURPOSE.
   
   FOR NON-COMMERCIAL, ACADEMIA USE ONLY.
   
   Cite this work as:
   * S. Grimme, C. Bannwarth, P. Shushkov, J. Chem. Theory Comput., 2017,
     13, 1989-2009. DOI: 10.1021/acs.jctc.7b00118
   * C. Bannwarth, S. Ehlert and S. Grimme., J. Chem. Theory Comput., 2019,
     15, 1652-1671. DOI: 10.1021/acs.jctc.8b01176
   * P. Pracht, E. Caldeweyher, S. Ehlert, S. Grimme, ChemRxiv, 2019, preprint.
     DOI: 10.26434/chemrxiv.8326202.v1
   
   for DFT-D4:
   * E. Caldeweyher, C. Bannwarth and S. Grimme, J. Chem. Phys., 2017,
     147, 034112. DOI: 10.1063/1.4993215
   * E. Caldeweyher, S. Ehlert, A. Hansen, H. Neugebauer, S. Spicher,
     C. Bannwarth and S. Grimme, J. Chem. Phys., 2019, 150, 154122.
     DOI: 10.1063/1.5090222
   
   for sTDA-xTB:
   * S. Grimme and C. Bannwarth, J. Chem. Phys., 2016, 145, 054103.
     DOI: 10.1063/1.4959605
   
   in the mass-spec context:
   * V. Asgeirsson, C. Bauer and S. Grimme, Chem. Sci., 2017, 8, 4879.
     DOI: 10.1039/c7sc00601b
   
   for metadynamics refer to:
   * S. Grimme, J. Chem. Theory Comput., 2019, 155, 2847-2862
     DOI: 10.1021/acs.jctc.9b00143
   
   with help from (in alphabetical order)
   C. Bannwarth, F. Bohle, G. Brandenburg, E. Caldeweyher, M. Checinski,
   S. Dohm, S. Ehlert, S. Ehrlich, F. März, H. Neugebauer, J. Pisarek,
   P. Pracht, P. Shushkov, and S. Spicher.
   
 * started run on 2021/04/12 at 13:53:28.107     

           -------------------------------------------------
          |                Calculation Setup                |
           -------------------------------------------------

          program call               : /ihome/ghutchison/geoffh/xtb/xtb ITCC.xyz -sp
          hostname                   : smp-n149
          coordinate file            : ITCC.xyz
          omp threads                :                     1
          number of atoms            :                   132
          number of electrons        :                   410
          charge                     :                     0
          spin                       :                   0.0
          first test random number   :      0.91774492338687


########################################################################
# WARNING! Please study the warnings concerning your input carefully
#  - XTBPATH is not set, using XTBHOME instead
#  - the use of '-sp' is discouraged, please use '--sp' next time
########################################################################

           ------------------------------------------------- 
          |                 G F N 2 - x T B                 |
          | Geometry, Frequencies, Noncovalent interactions |
          |            JCTC 2019 parametrisation            |
           ------------------------------------------------- 
             KAB for C  - Si     :                1.0500
             KAB for H  - Pd     :                0.9500
             k(s)              :                1.8500
             k(p)              :                2.2300
             k(d)              :                2.2300
             k(f)              :                2.0000
             kEN (H0ij)        :               -2.0000
             D4 a1             :                0.5200
             D4 a2             :                5.0000
             D4 s6             :                1.0000
             D4 s8             :                2.7000
             D4 s9             :                5.0000
             alphaj            :                2.0000

  Z AO/shell   Hii/eV     exponent
  1     Wed Apr 25 08:07:45 CEST 2018   EN: 2.200 GM2: 0.406  GM3: 0.0800  RAES: 1.40
     1s    -10.707211    1.230000
  6     Wed Apr 25 08:07:45 CEST 2018   EN: 2.550 GM2: 0.538  GM3: 0.1500  RAES: 3.00
     2s    -13.970922    2.096432
     2p    -10.063292    1.800000
  7     Wed Apr 25 08:07:45 CEST 2018   EN: 3.040 GM2: 0.461  GM3:-0.0640  RAES: 1.90
     2s    -16.686243    2.339881
     2p    -12.523956    2.014332
  8     Wed Apr 25 08:07:45 CEST 2018   EN: 3.440 GM2: 0.452  GM3:-0.0517  RAES: 1.80
     2s    -20.229985    2.439742
     2p    -15.503117    2.137023
 16     Tue Apr 24 11:44:34 CEST 2018   EN: 2.580 GM2: 0.340  GM3:-0.0502  RAES: 3.10
     3s    -20.029654    1.981333
     3p    -11.377694    2.025643
     3d     -0.420282    1.702555

           ------------------------------------------------- 
          |        Self-Consistent Charge Iterations        |
           ------------------------------------------------- 

          ...................................................
          :                      SETUP                      :
          :.................................................:
          :  # basis functions                 426          :
          :  # atomic orbitals                 420          :
          :  # shells                          224          :
          :  # electrons                       410          :
          :  max. iterations                   250          :
          :  Hamiltonian                  GFN2-xTB          :
          :  restarted?                      false          :
          :  GBSA solvation                  false          :
          :  PC potential                    false          :
          :  electronic temp.          300.0000000     K    :
          :  accuracy                    1.0000000          :
          :  -> integral cutoff          0.2500000E+02      :
          :  -> integral neglect         0.1000000E-07      :
          :  -> SCF convergence          0.1000000E-05 Eh   :
          :  -> wf. convergence          0.1000000E-03 e    :
          :  Broyden damping             0.4000000          :
          ...................................................

 iter      E             dE          RMSdq      gap      omega  full diag
   1   -224.3109452 -0.224311E+03  0.475E+00    1.34       0.0  T
   2   -224.3692064 -0.582612E-01  0.290E+00    1.34       1.0  T
   3   -223.9478405  0.421366E+00  0.222E+00    0.90       1.0  T
   4   -224.4955886 -0.547748E+00  0.561E-01    1.27       1.0  T
   5   -224.5221955 -0.266068E-01  0.221E-01    1.06       1.0  T
   6   -224.5256066 -0.341109E-02  0.117E-01    1.18       1.0  T
   7   -224.5270919 -0.148538E-02  0.466E-02    1.14       1.0  T
   8   -224.5272123 -0.120393E-03  0.245E-02    1.15       1.0  T
   9   -224.5272599 -0.475811E-04  0.988E-03    1.15       1.0  T
  10   -224.5272642 -0.427495E-05  0.502E-03    1.15       1.7  T
  11   -224.5272660 -0.183208E-05  0.233E-03    1.15       3.7  T
  12   -224.5272662 -0.200637E-06  0.126E-03    1.15       6.9  T
  13   -224.5272663 -0.912313E-07  0.680E-04    1.15      12.8  T
  14   -224.5272663 -0.195828E-07  0.324E-04    1.15      26.9  T

   *** convergence criteria satisfied after 14 iterations ***

         #    Occupation            Energy/Eh            Energy/eV
      -------------------------------------------------------------
         1        2.0000           -0.7597376             -20.6735
       ...           ...                  ...                  ...
       199        2.0000           -0.3983624             -10.8400
       200        2.0000           -0.3974335             -10.8147
       201        2.0000           -0.3957070             -10.7677
       202        2.0000           -0.3932385             -10.7006
       203        2.0000           -0.3911383             -10.6434
       204        2.0000           -0.3887299             -10.5779
       205        2.0000           -0.3758210             -10.2266 (HOMO)
       206                         -0.3336967              -9.0803 (LUMO)
       207                         -0.3303970              -8.9906
       208                         -0.3253779              -8.8540
       209                         -0.3212461              -8.7416
       210                         -0.2892013              -7.8696
       ...                                ...                  ...
       420                          1.0727545              29.1911
      -------------------------------------------------------------
                  HL-Gap            0.0421243 Eh            1.1463 eV
             Fermi-level           -0.3547734 Eh           -9.6539 eV

 SCC (total)                   0 d,  0 h,  0 min,  0.977 sec
 SCC setup                      ...        0 min,  0.004 sec (  0.376%)
 Dispersion                     ...        0 min,  0.008 sec (  0.770%)
 integral evaluation            ...        0 min,  0.309 sec ( 31.686%)
 zeroth order Hamiltonian       ...        0 min,  0.002 sec (  0.191%)
 iterations                     ...        0 min,  0.401 sec ( 41.059%)
 molecular gradient             ...        0 min,  0.249 sec ( 25.535%)
 printout                       ...        0 min,  0.004 sec (  0.377%)

         :::::::::::::::::::::::::::::::::::::::::::::::::::::
         ::                     SUMMARY                     ::
         :::::::::::::::::::::::::::::::::::::::::::::::::::::
         :: total energy            -221.040159285893 Eh    ::
         :: gradient norm              0.108192726351 Eh/a0 ::
         :: HOMO-LUMO gap              1.146259904848 eV    ::
         ::.................................................::
         :: SCC energy              -224.527266334361 Eh    ::
         :: -> isotropic ES            0.090730805070 Eh    ::
         :: -> anisotropic ES          0.019598018541 Eh    ::
         :: -> anisotropic XC          0.157232746732 Eh    ::
         :: -> dispersion             -0.215481894210 Eh    ::
         :: repulsion energy           3.482732200986 Eh    ::
         :: add. restraining           0.000000000000 Eh    ::
         :::::::::::::::::::::::::::::::::::::::::::::::::::::

           -------------------------------------------------
          |                Property Printout                |
           -------------------------------------------------

    * Orbital Energies and Occupations

         #    Occupation            Energy/Eh            Energy/eV
      -------------------------------------------------------------
         1        2.0000           -0.7597376             -20.6735
       ...           ...                  ...                  ...
       193        2.0000           -0.4091638             -11.1339
       194        2.0000           -0.4088255             -11.1247
       195        2.0000           -0.4085049             -11.1160
       196        2.0000           -0.4066682             -11.0660
       197        2.0000           -0.4032767             -10.9737
       198        2.0000           -0.4003959             -10.8953
       199        2.0000           -0.3983624             -10.8400
       200        2.0000           -0.3974335             -10.8147
       201        2.0000           -0.3957070             -10.7677
       202        2.0000           -0.3932385             -10.7006
       203        2.0000           -0.3911383             -10.6434
       204        2.0000           -0.3887299             -10.5779
       205        2.0000           -0.3758210             -10.2266 (HOMO)
       206                         -0.3336967              -9.0803 (LUMO)
       207                         -0.3303970              -8.9906
       208                         -0.3253779              -8.8540
       209                         -0.3212461              -8.7416
       210                         -0.2892013              -7.8696
       211                         -0.2719385              -7.3998
       212                         -0.2592250              -7.0539
       213                         -0.2523639              -6.8672
       214                         -0.2500856              -6.8052
       215                         -0.2464061              -6.7051
       216                         -0.2433312              -6.6214
       ...                                ...                  ...
       420                          1.0727545              29.1911
      -------------------------------------------------------------
                  HL-Gap            0.0421243 Eh            1.1463 eV
             Fermi-level           -0.3547734 Eh           -9.6539 eV

     #   Z        covCN         q      C6AA      α(0)
     1   6 C      2.856     0.224    23.287     7.910
     2   8 O      0.856    -0.375    21.187     6.171
     3   6 C      3.048    -0.015    28.340     8.731
     4   6 C      3.187    -0.007    27.711     8.589
     5   6 C      3.010     0.030    27.310     8.572
     6   6 C      2.944     0.007    27.867     8.658
     7   6 C      1.914     0.121    28.132     8.566
     8   7 N      0.911    -0.233    26.098     7.389
     9   6 C      1.910     0.118    28.207     8.577
    10   7 N      0.911    -0.234    26.132     7.393
    11   6 C      2.990    -0.039    28.969     8.829
    12   6 C      2.940    -0.013    28.332     8.730
    13   6 C      2.980     0.026    27.408     8.588
    14   6 C      3.018    -0.044    29.079     8.846
    15   6 C      3.154     0.017    27.338     8.550
    16   6 C      3.110     0.020    27.414     8.578
    17  16 S      2.246    -0.016   141.705    20.035
    18   6 C      3.153    -0.012    28.028     8.658
    19   6 C      3.929     0.016    20.252     6.395
    20   6 C      2.963     0.010    27.788     8.646
    21   6 C      2.912    -0.035    28.873     8.811
    22   6 C      2.914    -0.036    28.888     8.814
    23   6 C      2.959     0.014    27.704     8.633
    24   6 C      3.800    -0.054    21.553     6.610
    25   6 C      3.745    -0.093    22.351     6.744
    26   6 C      2.914    -0.036    28.902     8.816
    27   6 C      2.912    -0.033    28.827     8.804
    28   6 C      2.967     0.009    27.826     8.652
    29   6 C      2.911    -0.036    28.904     8.816
    30   6 C      2.914    -0.037    28.918     8.818
    31   6 C      2.959     0.014    27.707     8.634
    32   6 C      3.800    -0.054    21.547     6.609
    33   6 C      3.746    -0.093    22.350     6.744
    34   6 C      2.915    -0.035    28.871     8.811
    35   6 C      2.913    -0.034    28.844     8.807
    36   6 C      3.041     0.006    27.855     8.656
    37   6 C      3.020     0.004    27.915     8.667
    38   6 C      3.055     0.020    27.513     8.602
    39  16 S      2.164    -0.025   142.097    20.063
    40   6 C      2.902    -0.033    28.827     8.803
    41   6 C      3.044     0.006    27.855     8.656
    42   6 C      3.929     0.016    20.246     6.395
    43   6 C      2.972     0.007    27.849     8.656
    44   6 C      2.912    -0.036    28.893     8.814
    45   6 C      2.915    -0.036    28.907     8.816
    46   6 C      2.958     0.017    27.640     8.623
    47   6 C      3.800    -0.052    21.502     6.602
    48   6 C      3.745    -0.094    22.372     6.747
    49   6 C      2.915    -0.034    28.844     8.807
    50   6 C      2.912    -0.035    28.859     8.809
    51   6 C      2.962     0.009    27.807     8.649
    52   6 C      2.912    -0.036    28.890     8.814
    53   6 C      2.915    -0.036    28.905     8.816
    54   6 C      2.959     0.013    27.726     8.637
    55   6 C      3.800    -0.054    21.547     6.609
    56   6 C      3.746    -0.093    22.351     6.744
    57   6 C      2.913    -0.037    28.914     8.818
    58   6 C      2.913    -0.033    28.826     8.804
    59   6 C      3.175    -0.010    27.864     8.620
    60   6 C      3.053     0.018    27.552     8.608
    61   6 C      3.019     0.005    27.898     8.664
    62   6 C      2.902    -0.033    28.816     8.802
    63  16 S      2.176    -0.024   142.063    20.061
    64   6 C      3.143     0.017    27.391     8.564
    65   6 C      3.128     0.023    27.307     8.556
    66  16 S      2.224    -0.026   142.144    20.066
    67   6 C      2.982     0.026    27.410     8.588
    68   6 C      3.030    -0.039    28.946     8.825
    69   6 C      2.919    -0.011    28.285     8.721
    70   6 C      2.999    -0.035    28.847     8.810
    71   6 C      3.005     0.035    27.200     8.555
    72   6 C      2.944     0.010    27.797     8.647
    73   6 C      1.913     0.122    28.103     8.561
    74   7 N      0.911    -0.235    26.157     7.397
    75   6 C      1.910     0.119    28.166     8.571
    76   7 N      0.911    -0.235    26.145     7.395
    77   6 C      3.193    -0.005    27.620     8.570
    78   6 C      3.043    -0.016    28.380     8.738
    79   6 C      2.857     0.225    23.273     7.907
    80   8 O      0.856    -0.357    20.837     6.120
    81  16 S      2.223     0.069   138.262    19.790
    82   6 C      2.937    -0.020    28.514     8.758
    83   6 C      3.044    -0.041    28.965     8.827
    84  16 S      2.225     0.073   138.114    19.780
    85   6 C      2.937    -0.020    28.503     8.756
    86   6 C      3.043    -0.040    28.946     8.824
    87   1 H      0.924     0.071     2.076     2.253
    88   1 H      0.925     0.105     1.736     2.061
    89   1 H      0.924     0.026     2.641     2.541
    90   1 H      0.924     0.033     2.543     2.494
    91   1 H      0.923     0.037     2.489     2.467
    92   1 H      0.923     0.036     2.503     2.474
    93   1 H      0.923     0.035     2.523     2.484
    94   1 H      0.923     0.036     2.501     2.473
    95   1 H      0.923     0.034     2.528     2.486
    96   1 H      0.924     0.033     2.544     2.494
    97   1 H      0.924     0.031     2.575     2.509
    98   1 H      0.924     0.024     2.675     2.558
    99   1 H      0.924     0.031     2.578     2.511
   100   1 H      0.923     0.034     2.526     2.486
   101   1 H      0.923     0.038     2.474     2.460
   102   1 H      0.923     0.032     2.558     2.501
   103   1 H      0.923     0.036     2.500     2.473
   104   1 H      0.923     0.037     2.494     2.470
   105   1 H      0.924     0.037     2.493     2.469
   106   1 H      0.924     0.036     2.509     2.477
   107   1 H      0.924     0.047     2.353     2.399
   108   1 H      0.924     0.029     2.597     2.520
   109   1 H      0.924     0.036     2.499     2.472
   110   1 H      0.923     0.036     2.504     2.475
   111   1 H      0.923     0.038     2.479     2.462
   112   1 H      0.923     0.032     2.563     2.504
   113   1 H      0.923     0.036     2.503     2.474
   114   1 H      0.923     0.042     2.421     2.433
   115   1 H      0.924     0.034     2.530     2.488
   116   1 H      0.924     0.025     2.666     2.553
   117   1 H      0.924     0.025     2.665     2.553
   118   1 H      0.924     0.031     2.567     2.505
   119   1 H      0.923     0.036     2.509     2.477
   120   1 H      0.923     0.036     2.504     2.475
   121   1 H      0.923     0.034     2.525     2.485
   122   1 H      0.923     0.036     2.503     2.474
   123   1 H      0.923     0.034     2.526     2.486
   124   1 H      0.924     0.033     2.545     2.495
   125   1 H      0.924     0.033     2.539     2.492
   126   1 H      0.924     0.046     2.371     2.408
   127   1 H      0.925     0.061     2.193     2.316
   128   1 H      0.924     0.082     1.962     2.191
   129   1 H      0.925     0.063     2.164     2.300
   130   1 H      0.925     0.067     2.117     2.275
   131   1 H      0.925     0.064     2.149     2.292
   132   1 H      0.925     0.066     2.136     2.285

 Mol. C6AA /au·bohr⁶  :     310872.044081
 Mol. C8AA /au·bohr⁸  :    8733361.250281
 Mol. α(0) /au        :        895.654712


Wiberg/Mayer (AO) data.
largest (>0.10) Wiberg bond orders for each atom
          total WBO             WBO to atom ...
     1  C   3.929        O    2 1.740    C    3 1.055    C   11 1.020
     2  O   2.060        C    1 1.740
     3  C   3.931        C    4 1.408    S   81 1.200    C    1 1.055
     4  C   3.970        C    3 1.408    C   83 1.260    C    5 1.089
     5  C   3.973        C    6 1.488    C   11 1.123    C    4 1.089
     6  C   3.954        C    5 1.488    C    9 1.097    C    7 1.092
     7  C   3.941        N    8 2.774    C    6 1.092
     8  N   2.972        C    7 2.774
     9  C   3.941        N   10 2.760    C    6 1.097
    10  N   2.964        C    9 2.760
    11  C   3.946        C   12 1.538    C    5 1.123    C    1 1.020
    12  C   3.946        C   11 1.538    C   13 1.264    H   87 0.943
    13  C   3.928        C   14 1.410    C   12 1.264    S   17 1.073
    14  C   3.949        C   13 1.410    C   15 1.367    H   88 0.936
    15  C   3.930        C   14 1.367    C   16 1.285    S   39 1.091
    16  C   3.936        C   18 1.288    C   15 1.285    S   17 1.155
    17  S   2.570        C   16 1.155    C   13 1.073
    18  C   3.960        C   38 1.433    C   16 1.288    C   19 0.970
    19  C   3.984        C   18 0.970    C   36 0.967    C   20 0.954    C   28 0.951
    20  C   3.981        C   21 1.416    C   27 1.400    C   19 0.954    C   23 0.106
    21  C   3.989        C   22 1.442    C   20 1.416    H   89 0.966    C   26 0.107
    22  C   3.990        C   21 1.442    C   23 1.414    H   90 0.969    C   27 0.109
    23  C   3.985        C   22 1.414    C   26 1.404    C   24 1.013    C   20 0.106
    24  C   3.996        C   23 1.013    C   25 1.002    H   92 0.974    H   91 0.972
    25  C   3.995        C   24 1.002    H   95 0.988    H   93 0.988    H   94 0.986
    26  C   3.989        C   27 1.454    C   23 1.404    H   96 0.969    C   21 0.107
    27  C   3.989        C   26 1.454    C   20 1.400    H   97 0.967    C   22 0.109
    28  C   3.980        C   29 1.414    C   35 1.401    C   19 0.951    C   31 0.106
    29  C   3.990        C   30 1.442    C   28 1.414    H   98 0.968    C   34 0.108
    30  C   3.989        C   29 1.442    C   31 1.413    H   99 0.969    C   35 0.108
    31  C   3.984        C   30 1.413    C   34 1.404    C   32 1.013    C   28 0.106
    32  C   3.996        C   31 1.013    C   33 1.002    H  100 0.976    H  101 0.971
    33  C   3.995        C   32 1.002    H  102 0.989    H  104 0.987    H  103 0.986
    34  C   3.988        C   35 1.453    C   31 1.404    H  105 0.968    C   29 0.108
    35  C   3.988        C   34 1.453    C   28 1.401    H  106 0.966    C   30 0.108
    36  C   3.964        C   62 1.464    C   37 1.289    C   19 0.967
    37  C   3.955        C   40 1.347    C   36 1.289    C   38 1.138
    38  C   3.905        C   18 1.433    C   37 1.138    S   39 1.134
    39  S   2.533        C   38 1.134    C   15 1.091
    40  C   3.970        C   41 1.470    C   37 1.347    H  107 0.962
    41  C   3.964        C   40 1.470    C   61 1.284    C   42 0.968
    42  C   3.984        C   59 0.970    C   41 0.968    C   51 0.965    C   43 0.938
    43  C   3.977        C   50 1.410    C   44 1.402    C   42 0.938    C   46 0.106
    44  C   3.987        C   45 1.450    C   43 1.402    H  108 0.966    C   49 0.106
    45  C   3.988        C   44 1.450    C   46 1.405    H  109 0.966    C   50 0.108
    46  C   3.983        C   49 1.409    C   45 1.405    C   47 1.013    C   43 0.106
    47  C   3.996        C   46 1.013    C   48 1.008    H  110 0.976    H  111 0.962
    48  C   3.995        C   47 1.008    H  112 0.989    H  113 0.986    H  114 0.985
    49  C   3.989        C   50 1.446    C   46 1.409    H  115 0.968    C   44 0.106
    50  C   3.990        C   49 1.446    C   43 1.410    H  116 0.968    C   45 0.108
    51  C   3.982        C   52 1.413    C   58 1.401    C   42 0.965    C   54 0.106
    52  C   3.989        C   53 1.444    C   51 1.413    H  117 0.966    C   57 0.107
    53  C   3.990        C   52 1.444    C   54 1.412    H  118 0.969    C   58 0.109
    54  C   3.985        C   53 1.412    C   57 1.406    C   55 1.012    C   51 0.106
    55  C   3.996        C   54 1.012    C   56 1.002    H  119 0.975    H  120 0.971
    56  C   3.995        C   55 1.002    H  121 0.988    H  123 0.988    H  122 0.986
    57  C   3.989        C   58 1.451    C   54 1.406    H  124 0.969    C   52 0.107
    58  C   3.989        C   57 1.451    C   51 1.401    H  125 0.967    C   53 0.109
    59  C   3.959        C   60 1.435    C   65 1.287    C   42 0.970
    60  C   3.906        C   59 1.435    C   61 1.137    S   63 1.128
    61  C   3.954        C   62 1.351    C   41 1.284    C   60 1.137
    62  C   3.970        C   36 1.464    C   61 1.351    H  126 0.963
    63  S   2.528        C   60 1.128    C   64 1.097
    64  C   3.931        C   68 1.340    C   65 1.306    S   63 1.097
    65  C   3.940        C   64 1.306    C   59 1.287    S   66 1.136
    66  S   2.573        C   65 1.136    C   67 1.092
    67  C   3.930        C   68 1.438    C   69 1.221    S   66 1.092
    68  C   3.966        C   67 1.438    C   64 1.340    H  127 0.961
    69  C   3.949        C   70 1.582    C   67 1.221    H  128 0.944
    70  C   3.948        C   69 1.582    C   71 1.121    C   79 0.988
    71  C   3.975        C   72 1.491    C   70 1.121    C   77 1.085
    72  C   3.974        C   71 1.491    C   73 1.094    C   75 1.093
    73  C   3.941        N   74 2.770    C   72 1.094
    74  N   2.971        C   73 2.770
    75  C   3.942        N   76 2.774    C   72 1.093
    76  N   2.973        C   75 2.774
    77  C   3.972        C   78 1.403    C   86 1.266    C   71 1.085
    78  C   3.927        C   77 1.403    S   84 1.199    C   79 1.049
    79  C   3.928        O   80 1.774    C   78 1.049    C   70 0.988
    80  O   2.071        C   79 1.774
    81  S   2.688        C   82 1.203    C    3 1.200
    82  C   3.933        C   83 1.612    S   81 1.203    H  129 0.968
    83  C   3.980        C   82 1.612    C    4 1.260    H  130 0.957
    84  S   2.694        C   85 1.208    C   78 1.199
    85  C   3.934        C   86 1.607    S   84 1.208    H  131 0.968
    86  C   3.980        C   85 1.607    C   77 1.266    H  132 0.958
    87  H   0.993        C   12 0.943
    88  H   0.988        C   14 0.936
    89  H   0.999        C   21 0.966
    90  H   0.998        C   22 0.969
    91  H   0.998        C   24 0.972
    92  H   0.998        C   24 0.974
    93  H   0.999        C   25 0.988
    94  H   0.998        C   25 0.986
    95  H   0.999        C   25 0.988
    96  H   0.998        C   26 0.969
    97  H   0.999        C   27 0.967
    98  H   0.999        C   29 0.968
    99  H   0.999        C   30 0.969
   100  H   0.998        C   32 0.976
   101  H   0.998        C   32 0.971
   102  H   0.999        C   33 0.989
   103  H   0.998        C   33 0.986
   104  H   0.999        C   33 0.987
   105  H   0.998        C   34 0.968
   106  H   0.998        C   35 0.966
   107  H   0.996        C   40 0.962
   108  H   0.999        C   44 0.966
   109  H   0.998        C   45 0.966
   110  H   0.998        C   47 0.976
   111  H   0.998        C   47 0.962
   112  H   0.999        C   48 0.989
   113  H   0.998        C   48 0.986
   114  H   0.998        C   48 0.985
   115  H   0.998        C   49 0.968
   116  H   0.999        C   50 0.968
   117  H   0.999        C   52 0.966
   118  H   0.998        C   53 0.969
   119  H   0.998        C   55 0.975
   120  H   0.998        C   55 0.971
   121  H   0.999        C   56 0.988
   122  H   0.998        C   56 0.986
   123  H   0.999        C   56 0.988
   124  H   0.998        C   57 0.969
   125  H   0.999        C   58 0.967
   126  H   0.997        C   62 0.963
   127  H   0.996        C   68 0.961
   128  H   0.990        C   69 0.944
   129  H   0.995        C   82 0.968
   130  H   0.995        C   83 0.957
   131  H   0.995        C   85 0.968
   132  H   0.995        C   86 0.958

molecular dipole:
                 x           y           z       tot (Debye)
 q only:       -0.441      -1.381      -0.216
   full:       -0.573      -1.596      -0.359       4.405
molecular quadrupole (traceless):
                xx          xy          yy          xz          yz          zz
 q only:      -33.934      24.741      26.065       0.938      11.454       7.869
  q+dip:      -35.666      19.345      29.791      -6.944      23.056       5.874
   full:      -33.342      16.075      23.516      -1.016      24.592       9.826


           -------------------------------------------------
          | TOTAL ENERGY             -221.040159285893 Eh   |
          | GRADIENT NORM               0.108192726351 Eh/α |
          | HOMO-LUMO GAP               1.146259904848 eV   |
           -------------------------------------------------

------------------------------------------------------------------------
 * finished run on 2021/04/12 at 13:53:29.420     
------------------------------------------------------------------------
 total:
 * wall-time:     0 d,  0 h,  0 min,  1.313 sec
 *  cpu-time:     0 d,  0 h,  0 min,  1.301 sec
 * ratio c/w:     0.991 speedup
 SCF:
 * wall-time:     0 d,  0 h,  0 min,  0.978 sec
 *  cpu-time:     0 d,  0 h,  0 min,  0.975 sec
 * ratio c/w:     0.998 speedup

