      -----------------------------------------------------------      
     |                   =====================                   |     
     |                           x T B                           |     
     |                   =====================                   |     
     |                         S. Grimme                         |     
     |          Mulliken Center for Theoretical Chemistry        |     
     |                    University of Bonn                     |     
     |                Version 6.2 RC2 (SAW190805)                |     
      -----------------------------------------------------------      

   This program is distributed in the hope that it will be useful,
   but WITHOUT ANY WARRANTY; without even the implied warranty of
   MERCHANTABILITY or FITNESS FOR A PARTICULAR PURPOSE.
   
   FOR NON-COMMERCIAL, ACADEMIA USE ONLY.
   
   Cite this work as:
   * S. Grimme, C. Bannwarth, P. Shushkov, J. Chem. Theory Comput., 2017,
     13, 1989-2009. DOI: 10.1021/acs.jctc.7b00118
   * C. Bannwarth, S. Ehlert and S. Grimme., J. Chem. Theory Comput., 2019,
     15, 1652-1671. DOI: 10.1021/acs.jctc.8b01176
   * P. Pracht, E. Caldeweyher, S. Ehlert, S. Grimme, ChemRxiv, 2019, preprint.
     DOI: 10.26434/chemrxiv.8326202.v1
   
   for DFT-D4:
   * E. Caldeweyher, C. Bannwarth and S. Grimme, J. Chem. Phys., 2017,
     147, 034112. DOI: 10.1063/1.4993215
   * E. Caldeweyher, S. Ehlert, A. Hansen, H. Neugebauer, S. Spicher,
     C. Bannwarth and S. Grimme, J. Chem. Phys., 2019, 150, 154122.
     DOI: 10.1063/1.5090222
   
   for sTDA-xTB:
   * S. Grimme and C. Bannwarth, J. Chem. Phys., 2016, 145, 054103.
     DOI: 10.1063/1.4959605
   
   in the mass-spec context:
   * V. Asgeirsson, C. Bauer and S. Grimme, Chem. Sci., 2017, 8, 4879.
     DOI: 10.1039/c7sc00601b
   
   for metadynamics refer to:
   * S. Grimme, J. Chem. Theory Comput., 2019, 155, 2847-2862
     DOI: 10.1021/acs.jctc.9b00143
   
   with help from (in alphabetical order)
   C. Bannwarth, F. Bohle, G. Brandenburg, E. Caldeweyher, M. Checinski,
   S. Dohm, S. Ehlert, S. Ehrlich, F. März, H. Neugebauer, J. Pisarek,
   P. Pracht, P. Shushkov, and S. Spicher.
   
 * started run on 2020/11/20 at 13:45:33.765     

           -------------------------------------------------
          |                Calculation Setup                |
           -------------------------------------------------

          program call               : /ihome/ghutchison/geoffh/xtb/xtb N3.xyz -sp
          hostname                   : smp-n106
          coordinate file            : N3.xyz
          omp threads                :                     1
          number of atoms            :                   121
          number of electrons        :                   392
          charge                     :                     0
          spin                       :                   0.0
          first test random number   :      0.19670246900977


########################################################################
# WARNING! Please study the warnings concerning your input carefully
#  - XTBPATH is not set, using XTBHOME instead
#  - the use of '-sp' is discouraged, please use '--sp' next time
########################################################################

           ------------------------------------------------- 
          |                 G F N 2 - x T B                 |
          | Geometry, Frequencies, Noncovalent interactions |
          |            JCTC 2019 parametrisation            |
           ------------------------------------------------- 
             KAB for C  - Si     :                1.0500
             KAB for H  - Pd     :                0.9500
             k(s)              :                1.8500
             k(p)              :                2.2300
             k(d)              :                2.2300
             k(f)              :                2.0000
             kEN (H0ij)        :               -2.0000
             D4 a1             :                0.5200
             D4 a2             :                5.0000
             D4 s6             :                1.0000
             D4 s8             :                2.7000
             D4 s9             :                5.0000
             alphaj            :                2.0000

  Z AO/shell   Hii/eV     exponent
  1     Wed Apr 25 08:07:45 CEST 2018   EN: 2.200 GM2: 0.406  GM3: 0.0800  RAES: 1.40
     1s    -10.707211    1.230000
  6     Wed Apr 25 08:07:45 CEST 2018   EN: 2.550 GM2: 0.538  GM3: 0.1500  RAES: 3.00
     2s    -13.970922    2.096432
     2p    -10.063292    1.800000
  7     Wed Apr 25 08:07:45 CEST 2018   EN: 3.040 GM2: 0.461  GM3:-0.0640  RAES: 1.90
     2s    -16.686243    2.339881
     2p    -12.523956    2.014332
  8     Wed Apr 25 08:07:45 CEST 2018   EN: 3.440 GM2: 0.452  GM3:-0.0517  RAES: 1.80
     2s    -20.229985    2.439742
     2p    -15.503117    2.137023
  9     Mon Apr 23 13:58:50 CEST 2018   EN: 3.980 GM2: 0.532  GM3: 0.1426  RAES: 2.40
     2s    -23.458179    2.416361
     2p    -15.746583    2.308399
 16     Tue Apr 24 11:44:34 CEST 2018   EN: 2.580 GM2: 0.340  GM3:-0.0502  RAES: 3.10
     3s    -20.029654    1.981333
     3p    -11.377694    2.025643
     3d     -0.420282    1.702555

           ------------------------------------------------- 
          |        Self-Consistent Charge Iterations        |
           ------------------------------------------------- 

          ...................................................
          :                      SETUP                      :
          :.................................................:
          :  # basis functions                 388          :
          :  # atomic orbitals                 383          :
          :  # shells                          205          :
          :  # electrons                       392          :
          :  max. iterations                   250          :
          :  Hamiltonian                  GFN2-xTB          :
          :  restarted?                      false          :
          :  GBSA solvation                  false          :
          :  PC potential                    false          :
          :  electronic temp.          300.0000000     K    :
          :  accuracy                    1.0000000          :
          :  -> integral cutoff          0.2500000E+02      :
          :  -> integral neglect         0.1000000E-07      :
          :  -> SCF convergence          0.1000000E-05 Eh   :
          :  -> wf. convergence          0.1000000E-03 e    :
          :  Broyden damping             0.4000000          :
          ...................................................

 iter      E             dE          RMSdq      gap      omega  full diag
   1   -218.9597307 -0.218960E+03  0.485E+00    1.37       0.0  T
   2   -219.1065962 -0.146866E+00  0.312E+00    1.18       1.0  T
   3   -218.9433073  0.163289E+00  0.210E+00    0.67       1.0  T
   4   -219.3069449 -0.363638E+00  0.800E-01    0.99       1.0  T
   5   -219.3678605 -0.609156E-01  0.281E-01    0.75       1.0  T
   6   -219.3742157 -0.635526E-02  0.152E-01    0.85       1.0  T
   7   -219.3760926 -0.187681E-02  0.792E-02    0.83       1.0  T
   8   -219.3765943 -0.501791E-03  0.281E-02    0.84       1.0  T
   9   -219.3766418 -0.474947E-04  0.149E-02    0.84       1.0  T
  10   -219.3766575 -0.157045E-04  0.735E-03    0.84       1.2  T
  11   -219.3766597 -0.213039E-05  0.399E-03    0.84       2.3  T
  12   -219.3766607 -0.107328E-05  0.185E-03    0.84       4.9  T
  13   -219.3766609 -0.145472E-06  0.108E-03    0.84       8.4  T
  14   -219.3766609 -0.250186E-07  0.653E-04    0.84      13.9  T
  15   -219.3766609 -0.209527E-07  0.299E-04    0.84      30.4  T

   *** convergence criteria satisfied after 15 iterations ***

         #    Occupation            Energy/Eh            Energy/eV
      -------------------------------------------------------------
         1        2.0000           -0.8502390             -23.1362
       ...           ...                  ...                  ...
       190        2.0000           -0.4138787             -11.2622
       191        2.0000           -0.4048592             -11.0168
       192        2.0000           -0.4018956             -10.9361
       193        2.0000           -0.3979286             -10.8282
       194        2.0000           -0.3890260             -10.5859
       195        2.0000           -0.3823261             -10.4036
       196        2.0000           -0.3784921             -10.2993 (HOMO)
       197        0.0000           -0.3476729              -9.4607 (LUMO)
       198                         -0.3402271              -9.2581
       199                         -0.3290996              -8.9553
       200                         -0.3121224              -8.4933
       201                         -0.3034961              -8.2585
       ...                                ...                  ...
       383                          1.0661347              29.0110
      -------------------------------------------------------------
                  HL-Gap            0.0308193 Eh            0.8386 eV
             Fermi-level           -0.3630744 Eh           -9.8798 eV

 SCC (total)                   0 d,  0 h,  0 min,  1.009 sec
 SCC setup                      ...        0 min,  0.004 sec (  0.353%)
 Dispersion                     ...        0 min,  0.009 sec (  0.845%)
 integral evaluation            ...        0 min,  0.292 sec ( 28.982%)
 zeroth order Hamiltonian       ...        0 min,  0.002 sec (  0.188%)
 iterations                     ...        0 min,  0.453 sec ( 44.929%)
 molecular gradient             ...        0 min,  0.245 sec ( 24.337%)
 printout                       ...        0 min,  0.004 sec (  0.358%)

         :::::::::::::::::::::::::::::::::::::::::::::::::::::
         ::                     SUMMARY                     ::
         :::::::::::::::::::::::::::::::::::::::::::::::::::::
         :: total energy            -216.445779005723 Eh    ::
         :: gradient norm              0.118742558383 Eh/a0 ::
         :: HOMO-LUMO gap              0.838634940568 eV    ::
         ::.................................................::
         :: SCC energy              -219.376660940378 Eh    ::
         :: -> isotropic ES            0.137367552618 Eh    ::
         :: -> anisotropic ES          0.017715706592 Eh    ::
         :: -> anisotropic XC          0.124432817519 Eh    ::
         :: -> dispersion             -0.187124252051 Eh    ::
         :: repulsion energy           2.929739476091 Eh    ::
         :: add. restraining           0.000000000000 Eh    ::
         :::::::::::::::::::::::::::::::::::::::::::::::::::::

           -------------------------------------------------
          |                Property Printout                |
           -------------------------------------------------

    * Orbital Energies and Occupations

         #    Occupation            Energy/Eh            Energy/eV
      -------------------------------------------------------------
         1        2.0000           -0.8502390             -23.1362
       ...           ...                  ...                  ...
       184        2.0000           -0.4299638             -11.6999
       185        2.0000           -0.4289865             -11.6733
       186        2.0000           -0.4254516             -11.5771
       187        2.0000           -0.4242739             -11.5451
       188        2.0000           -0.4228081             -11.5052
       189        2.0000           -0.4157243             -11.3124
       190        2.0000           -0.4138787             -11.2622
       191        2.0000           -0.4048592             -11.0168
       192        2.0000           -0.4018956             -10.9361
       193        2.0000           -0.3979286             -10.8282
       194        2.0000           -0.3890260             -10.5859
       195        2.0000           -0.3823261             -10.4036
       196        2.0000           -0.3784921             -10.2993 (HOMO)
       197        0.0000           -0.3476729              -9.4607 (LUMO)
       198                         -0.3402271              -9.2581
       199                         -0.3290996              -8.9553
       200                         -0.3121224              -8.4933
       201                         -0.3034961              -8.2585
       202                         -0.2863820              -7.7929
       203                         -0.2859046              -7.7799
       204                         -0.2679099              -7.2902
       205                         -0.2640976              -7.1865
       206                         -0.2542044              -6.9173
       207                         -0.2521668              -6.8618
       ...                                ...                  ...
       383                          1.0661347              29.0110
      -------------------------------------------------------------
                  HL-Gap            0.0308193 Eh            0.8386 eV
             Fermi-level           -0.3630744 Eh           -9.8798 eV

     #   Z        covCN         q      C6AA      α(0)
     1   6 C      2.861     0.226    23.267     7.906
     2   8 O      0.862    -0.361    20.918     6.132
     3   6 C      3.028    -0.020    28.484     8.754
     4   6 C      2.906    -0.039    28.958     8.824
     5   6 C      2.778     0.160    24.531     8.112
     6   9 F      0.787    -0.183    11.063     3.929
     7   6 C      2.776     0.162    24.489     8.105
     8   9 F      0.788    -0.181    11.042     3.925
     9   6 C      2.908    -0.051    29.256     8.869
    10   6 C      3.014     0.005    27.901     8.665
    11   6 C      3.003     0.029    27.339     8.577
    12   6 C      2.943     0.007    27.871     8.659
    13   6 C      1.915     0.118    28.194     8.575
    14   7 N      0.911    -0.236    26.168     7.399
    15   6 C      1.915     0.118    28.196     8.575
    16   7 N      0.911    -0.227    25.972     7.371
    17   6 C      2.987    -0.040    28.991     8.832
    18   6 C      2.907    -0.015    28.388     8.736
    19   6 C      2.977     0.015    27.670     8.629
    20  16 S      2.175     0.013   140.543    19.953
    21   6 C      3.079     0.000    27.934     8.665
    22   6 C      3.144     0.008    27.588     8.594
    23   6 C      3.063     0.006    27.814     8.648
    24   6 C      3.799    -0.053    21.523     6.605
    25   6 C      3.746    -0.098    22.445     6.758
    26  16 S      2.139    -0.017   141.742    20.038
    27   6 C      3.071     0.009    27.745     8.637
    28   6 C      3.195     0.028    26.869     8.451
    29   7 N      2.785    -0.048    22.162     6.992
    30   6 C      3.737    -0.009    20.816     6.511
    31   6 C      3.799    -0.064    21.723     6.636
    32   6 C      3.039     0.033    27.225     8.558
    33   6 C      3.062    -0.032    28.734     8.790
    34   6 C      3.319     0.072    24.393     7.866
    35   7 N      1.842    -0.258    27.558     7.780
    36  16 S      2.651     0.289   129.833    19.178
    37   7 N      1.845    -0.252    27.426     7.761
    38   6 C      3.298     0.071    24.763     7.971
    39   6 C      3.061    -0.027    28.616     8.772
    40   6 C      3.043     0.025    27.414     8.588
    41   7 N      2.780    -0.054    22.282     7.011
    42   6 C      3.734     0.002    20.630     6.482
    43   6 C      3.800    -0.070    21.849     6.655
    44   6 C      3.101     0.056    26.626     8.456
    45   6 C      3.188    -0.028    28.205     8.664
    46  16 S      2.218    -0.041   142.768    20.110
    47   6 C      3.006     0.018    27.599     8.618
    48   6 C      3.075     0.009    27.741     8.635
    49  16 S      1.914     0.078   137.914    19.766
    50   6 C      2.000    -0.011    31.333     9.040
    51   6 C      2.973     0.010    27.780     8.646
    52   6 C      3.804    -0.047    21.409     6.587
    53   6 C      3.746    -0.099    22.461     6.760
    54   6 C      2.887    -0.028    28.697     8.783
    55   6 C      3.018    -0.029    28.701     8.788
    56   6 C      3.044     0.033    27.232     8.559
    57   6 C      2.944     0.022    27.525     8.605
    58   6 C      1.911     0.119    28.171     8.572
    59   7 N      0.911    -0.215    25.699     7.332
    60   6 C      1.910     0.121    28.121     8.564
    61   7 N      0.911    -0.217    25.724     7.336
    62   6 C      3.026    -0.007    28.156     8.704
    63   6 C      2.907    -0.047    29.161     8.855
    64   6 C      2.775     0.157    24.597     8.123
    65   9 F      0.787    -0.185    11.079     3.932
    66   6 C      2.777     0.159    24.554     8.116
    67   9 F      0.787    -0.185    11.078     3.932
    68   6 C      2.906    -0.044    29.084     8.843
    69   6 C      3.047    -0.007    28.156     8.703
    70   6 C      2.958     0.155    24.643     8.142
    71   8 O      1.694    -0.260    18.312     5.778
    72   6 C      3.847    -0.017    20.850     6.495
    73   6 C      3.747    -0.105    22.568     6.776
    74   6 C      3.845    -0.013    20.783     6.485
    75   6 C      3.747    -0.100    22.478     6.763
    76   6 C      3.798    -0.054    21.551     6.610
    77   6 C      3.745    -0.098    22.449     6.759
    78   6 C      3.798    -0.055    21.556     6.611
    79   6 C      3.745    -0.099    22.464     6.761
    80   1 H      0.924     0.090     1.876     2.142
    81   1 H      0.925     0.089     1.884     2.146
    82   1 H      0.925     0.076     2.023     2.224
    83   1 H      0.923     0.050     2.318     2.381
    84   1 H      0.923     0.055     2.253     2.348
    85   1 H      0.923     0.045     2.381     2.413
    86   1 H      0.923     0.056     2.244     2.343
    87   1 H      0.923     0.042     2.416     2.431
    88   1 H      0.923     0.069     2.099     2.266
    89   1 H      0.924     0.058     2.224     2.332
    90   1 H      0.923     0.042     2.421     2.433
    91   1 H      0.923     0.041     2.435     2.440
    92   1 H      0.924     0.056     2.251     2.346
    93   1 H      0.923     0.054     2.266     2.354
    94   1 H      0.924     0.049     2.336     2.390
    95   1 H      0.922     0.043     2.412     2.429
    96   1 H      0.922     0.050     2.322     2.383
    97   1 H      0.923     0.046     2.368     2.406
    98   1 H      0.923     0.046     2.368     2.407
    99   1 H      0.923     0.043     2.413     2.429
   100   1 H      0.923     0.036     2.508     2.477
   101   1 H      0.924     0.067     2.115     2.274
   102   1 H      0.925     0.089     1.889     2.149
   103   1 H      0.924     0.086     1.919     2.166
   104   1 H      0.923     0.042     2.426     2.436
   105   1 H      0.923     0.036     2.497     2.471
   106   1 H      0.923     0.031     2.566     2.505
   107   1 H      0.923     0.043     2.408     2.427
   108   1 H      0.922     0.032     2.559     2.502
   109   1 H      0.923     0.031     2.571     2.508
   110   1 H      0.924     0.029     2.608     2.525
   111   1 H      0.923     0.040     2.446     2.446
   112   1 H      0.923     0.029     2.594     2.519
   113   1 H      0.922     0.029     2.606     2.525
   114   1 H      0.923     0.034     2.534     2.490
   115   1 H      0.923     0.036     2.507     2.476
   116   1 H      0.923     0.037     2.487     2.466
   117   1 H      0.923     0.027     2.626     2.534
   118   1 H      0.922     0.031     2.567     2.506
   119   1 H      0.923     0.034     2.537     2.491
   120   1 H      0.923     0.036     2.496     2.471
   121   1 H      0.923     0.038     2.480     2.463

 Mol. C6AA /au·bohr⁶  :     239714.096524
 Mol. C8AA /au·bohr⁸  :    6525867.786527
 Mol. α(0) /au        :        769.550061


Wiberg/Mayer (AO) data.
largest (>0.10) Wiberg bond orders for each atom
          total WBO             WBO to atom ...
     1  C   3.923        O    2 1.740    C   17 1.057    C    3 1.013
     2  O   2.075        C    1 1.740
     3  C   3.974        C    4 1.408    C   10 1.314    C    1 1.013
     4  C   3.977        C    3 1.408    C    5 1.392    H   80 0.960
     5  C   3.865        C    4 1.392    C    7 1.318    F    6 0.993
     6  F   1.134        C    5 0.993
     7  C   3.887        C    9 1.398    C    5 1.318    F    8 0.995
     8  F   1.138        C    7 0.995
     9  C   3.971        C    7 1.398    C   10 1.391    H   81 0.955
    10  C   3.980        C    9 1.391    C    3 1.314    C   11 1.072
    11  C   3.969        C   12 1.482    C   17 1.150    C   10 1.072
    12  C   3.925        C   11 1.482    C   13 1.097    C   15 1.095
    13  C   3.941        N   14 2.755    C   12 1.097
    14  N   2.968        C   13 2.755
    15  C   3.941        N   16 2.769    C   12 1.095
    16  N   2.969        C   15 2.769
    17  C   3.950        C   18 1.479    C   11 1.150    C    1 1.057
    18  C   3.938        C   17 1.479    C   19 1.320    H   82 0.927
    19  C   3.925        C   23 1.329    C   18 1.320    S   20 1.070
    20  S   2.635        C   21 1.155    C   19 1.070
    21  C   3.937        C   22 1.295    C   28 1.254    S   20 1.155
    22  C   3.929        C   23 1.360    C   21 1.295    S   26 1.078
    23  C   3.952        C   22 1.360    C   19 1.329    C   24 1.018
    24  C   3.992        C   23 1.018    C   25 0.992    H   83 0.963    H   84 0.963
    25  C   3.988        C   24 0.992    H   87 0.987    H   85 0.987    H   86 0.983
    26  S   2.499        C   27 1.112    C   22 1.078
    27  C   3.917        C   28 1.313    C   33 1.266    S   26 1.112
    28  C   3.934        C   27 1.313    C   21 1.254    N   29 1.141
    29  N   3.533        C   32 1.166    C   28 1.141    C   30 0.973
    30  C   3.957        C   31 0.997    N   29 0.973    H   88 0.963    H   89 0.954
    31  C   3.989        C   30 0.997    C   74 0.992    H   91 0.971    H   90 0.967
    32  C   3.924        C   33 1.283    C   40 1.212    N   29 1.166
    33  C   3.962        C   32 1.283    C   27 1.266    C   34 1.164
    34  C   3.970        N   35 1.455    C   33 1.164    C   38 1.149    S   36 0.100
    35  N   3.071        C   34 1.455    S   36 1.358    N   37 0.149
    36  S   3.049        N   37 1.367    N   35 1.358    C   38 0.103    C   34 0.100
    37  N   3.073        C   38 1.453    S   36 1.367    N   35 0.149
    38  C   3.974        N   37 1.453    C   39 1.163    C   34 1.149    S   36 0.103
    39  C   3.947        C   40 1.330    C   45 1.201    C   38 1.163
    40  C   3.939        C   39 1.330    C   32 1.212    N   41 1.129
    41  N   3.527        C   44 1.185    C   40 1.129    C   42 0.970
    42  C   3.960        C   43 0.999    N   41 0.970    H   92 0.962    H   93 0.962
    43  C   3.989        C   42 0.999    C   72 0.993    H   95 0.970    H   94 0.963
    44  C   3.910        C   45 1.361    N   41 1.185    S   46 1.126
    45  C   3.967        C   44 1.361    C   39 1.201    C   48 1.180
    46  S   2.572        C   44 1.126    C   47 1.094
    47  C   3.923        C   48 1.476    C   51 1.104    S   46 1.094
    48  C   3.945        C   47 1.476    C   45 1.180    S   49 1.064
    49  S   2.297        C   48 1.064    O   71 0.944
    50  C   3.943        C   54 1.873    C   51 1.763
    51  C   3.978        C   50 1.763    C   47 1.104    C   52 0.977
    52  C   3.992        C   53 1.021    C   51 0.977    H   97 0.961    H   96 0.958
    53  C   3.994        C   52 1.021    H  100 0.986    H   98 0.986    H   99 0.985
    54  C   3.981        C   50 1.873    C   55 1.042    H  101 0.930
    55  C   3.961        C   70 1.472    C   56 1.143    C   54 1.042
    56  C   3.978        C   57 1.504    C   55 1.143    C   62 1.055
    57  C   3.950        C   56 1.504    C   58 1.090    C   60 1.089
    58  C   3.943        N   59 2.779    C   57 1.090
    59  N   2.973        C   58 2.779
    60  C   3.943        N   61 2.782    C   57 1.089
    61  N   2.979        C   60 2.782
    62  C   3.982        C   63 1.432    C   69 1.287    C   56 1.055
    63  C   3.972        C   62 1.432    C   64 1.360    H  102 0.956
    64  C   3.887        C   63 1.360    C   66 1.349    F   65 0.991
    65  F   1.131        C   64 0.991
    66  C   3.872        C   68 1.362    C   64 1.349    F   67 0.991
    67  F   1.132        C   66 0.991
    68  C   3.967        C   69 1.424    C   66 1.362    H  103 0.961
    69  C   3.977        C   68 1.424    C   62 1.287    C   70 1.042
    70  C   3.916        C   55 1.472    O   71 1.153    C   69 1.042
    71  O   2.305        C   70 1.153    S   49 0.944
    72  C   3.992        C   73 1.011    C   78 0.994    C   43 0.993    H  104 0.955
    73  C   3.995        C   72 1.011    H  105 0.986    H  107 0.983    H  106 0.982
    74  C   3.993        C   75 1.011    C   76 0.994    C   31 0.992    H  108 0.967
    75  C   3.996        C   74 1.011    H  109 0.986    H  111 0.984    H  110 0.980
    76  C   3.996        C   77 1.020    C   74 0.994    H  113 0.977    H  112 0.976
    77  C   3.996        C   76 1.020    H  114 0.987    H  115 0.986    H  116 0.986
    78  C   3.996        C   79 1.020    C   72 0.994    H  118 0.976    H  117 0.975
    79  C   3.996        C   78 1.020    H  119 0.987    H  120 0.986    H  121 0.985
    80  H   0.991        C    4 0.960
    81  H   0.991        C    9 0.955
    82  H   0.993        C   18 0.927
    83  H   0.997        C   24 0.963
    84  H   0.994        C   24 0.963
    85  H   0.998        C   25 0.987
    86  H   0.995        C   25 0.983
    87  H   0.998        C   25 0.987
    88  H   0.995        C   30 0.963
    89  H   0.994        C   30 0.954
    90  H   0.997        C   31 0.967
    91  H   0.998        C   31 0.971
    92  H   0.996        C   42 0.962
    93  H   0.995        C   42 0.962
    94  H   0.998        C   43 0.963
    95  H   0.997        C   43 0.970
    96  H   0.996        C   52 0.958
    97  H   0.998        C   52 0.961
    98  H   0.998        C   53 0.986
    99  H   0.998        C   53 0.985
   100  H   0.999        C   53 0.986
   101  H   0.989        C   54 0.930
   102  H   0.991        C   63 0.956
   103  H   0.992        C   68 0.961
   104  H   0.998        C   72 0.955
   105  H   0.999        C   73 0.986
   106  H   0.999        C   73 0.982
   107  H   0.998        C   73 0.983
   108  H   0.999        C   74 0.967
   109  H   0.999        C   75 0.986
   110  H   0.999        C   75 0.980
   111  H   0.998        C   75 0.984
   112  H   0.999        C   76 0.976
   113  H   0.999        C   76 0.977
   114  H   0.999        C   77 0.987
   115  H   0.998        C   77 0.986
   116  H   0.999        C   77 0.986
   117  H   0.999        C   78 0.975
   118  H   0.998        C   78 0.976
   119  H   0.999        C   79 0.987
   120  H   0.998        C   79 0.986
   121  H   0.999        C   79 0.985

molecular dipole:
                 x           y           z       tot (Debye)
 q only:        2.166       1.994       1.040
   full:        1.602       2.596       1.078       8.223
molecular quadrupole (traceless):
                xx          xy          yy          xz          yz          zz
 q only:       -0.697     139.468      -0.536      80.910     -72.060       1.234
  q+dip:      -34.491     147.924      16.652      94.476     -73.871      17.838
   full:      -42.047     148.752      12.776      99.315     -76.673      29.271


           -------------------------------------------------
          | TOTAL ENERGY             -216.445779005723 Eh   |
          | GRADIENT NORM               0.118742558383 Eh/α |
          | HOMO-LUMO GAP               0.838634940568 eV   |
           -------------------------------------------------

------------------------------------------------------------------------
 * finished run on 2020/11/20 at 13:45:35.088     
------------------------------------------------------------------------
 total:
 * wall-time:     0 d,  0 h,  0 min,  1.323 sec
 *  cpu-time:     0 d,  0 h,  0 min,  1.321 sec
 * ratio c/w:     0.999 speedup
 SCF:
 * wall-time:     0 d,  0 h,  0 min,  1.010 sec
 *  cpu-time:     0 d,  0 h,  0 min,  1.009 sec
 * ratio c/w:     1.000 speedup

