      -----------------------------------------------------------      
     |                   =====================                   |     
     |                           x T B                           |     
     |                   =====================                   |     
     |                         S. Grimme                         |     
     |          Mulliken Center for Theoretical Chemistry        |     
     |                    University of Bonn                     |     
     |                Version 6.2 RC2 (SAW190805)                |     
      -----------------------------------------------------------      

   This program is distributed in the hope that it will be useful,
   but WITHOUT ANY WARRANTY; without even the implied warranty of
   MERCHANTABILITY or FITNESS FOR A PARTICULAR PURPOSE.
   
   FOR NON-COMMERCIAL, ACADEMIA USE ONLY.
   
   Cite this work as:
   * S. Grimme, C. Bannwarth, P. Shushkov, J. Chem. Theory Comput., 2017,
     13, 1989-2009. DOI: 10.1021/acs.jctc.7b00118
   * C. Bannwarth, S. Ehlert and S. Grimme., J. Chem. Theory Comput., 2019,
     15, 1652-1671. DOI: 10.1021/acs.jctc.8b01176
   * P. Pracht, E. Caldeweyher, S. Ehlert, S. Grimme, ChemRxiv, 2019, preprint.
     DOI: 10.26434/chemrxiv.8326202.v1
   
   for DFT-D4:
   * E. Caldeweyher, C. Bannwarth and S. Grimme, J. Chem. Phys., 2017,
     147, 034112. DOI: 10.1063/1.4993215
   * E. Caldeweyher, S. Ehlert, A. Hansen, H. Neugebauer, S. Spicher,
     C. Bannwarth and S. Grimme, J. Chem. Phys., 2019, 150, 154122.
     DOI: 10.1063/1.5090222
   
   for sTDA-xTB:
   * S. Grimme and C. Bannwarth, J. Chem. Phys., 2016, 145, 054103.
     DOI: 10.1063/1.4959605
   
   in the mass-spec context:
   * V. Asgeirsson, C. Bauer and S. Grimme, Chem. Sci., 2017, 8, 4879.
     DOI: 10.1039/c7sc00601b
   
   for metadynamics refer to:
   * S. Grimme, J. Chem. Theory Comput., 2019, 155, 2847-2862
     DOI: 10.1021/acs.jctc.9b00143
   
   with help from (in alphabetical order)
   C. Bannwarth, F. Bohle, G. Brandenburg, E. Caldeweyher, M. Checinski,
   S. Dohm, S. Ehlert, S. Ehrlich, F. März, H. Neugebauer, J. Pisarek,
   P. Pracht, P. Shushkov, and S. Spicher.
   
 * started run on 2021/04/12 at 13:52:52.647     

           -------------------------------------------------
          |                Calculation Setup                |
           -------------------------------------------------

          program call               : /ihome/ghutchison/geoffh/xtb/xtb N3.xyz -sp
          hostname                   : smp-n149
          coordinate file            : N3.xyz
          omp threads                :                     1
          number of atoms            :                    97
          number of electrons        :                   344
          charge                     :                     0
          spin                       :                   0.0
          first test random number   :      0.44844178860893


########################################################################
# WARNING! Please study the warnings concerning your input carefully
#  - XTBPATH is not set, using XTBHOME instead
#  - the use of '-sp' is discouraged, please use '--sp' next time
########################################################################

           ------------------------------------------------- 
          |                 G F N 2 - x T B                 |
          | Geometry, Frequencies, Noncovalent interactions |
          |            JCTC 2019 parametrisation            |
           ------------------------------------------------- 
             KAB for C  - Si     :                1.0500
             KAB for H  - Pd     :                0.9500
             k(s)              :                1.8500
             k(p)              :                2.2300
             k(d)              :                2.2300
             k(f)              :                2.0000
             kEN (H0ij)        :               -2.0000
             D4 a1             :                0.5200
             D4 a2             :                5.0000
             D4 s6             :                1.0000
             D4 s8             :                2.7000
             D4 s9             :                5.0000
             alphaj            :                2.0000

  Z AO/shell   Hii/eV     exponent
  1     Wed Apr 25 08:07:45 CEST 2018   EN: 2.200 GM2: 0.406  GM3: 0.0800  RAES: 1.40
     1s    -10.707211    1.230000
  6     Wed Apr 25 08:07:45 CEST 2018   EN: 2.550 GM2: 0.538  GM3: 0.1500  RAES: 3.00
     2s    -13.970922    2.096432
     2p    -10.063292    1.800000
  7     Wed Apr 25 08:07:45 CEST 2018   EN: 3.040 GM2: 0.461  GM3:-0.0640  RAES: 1.90
     2s    -16.686243    2.339881
     2p    -12.523956    2.014332
  8     Wed Apr 25 08:07:45 CEST 2018   EN: 3.440 GM2: 0.452  GM3:-0.0517  RAES: 1.80
     2s    -20.229985    2.439742
     2p    -15.503117    2.137023
  9     Mon Apr 23 13:58:50 CEST 2018   EN: 3.980 GM2: 0.532  GM3: 0.1426  RAES: 2.40
     2s    -23.458179    2.416361
     2p    -15.746583    2.308399
 16     Tue Apr 24 11:44:34 CEST 2018   EN: 2.580 GM2: 0.340  GM3:-0.0502  RAES: 3.10
     3s    -20.029654    1.981333
     3p    -11.377694    2.025643
     3d     -0.420282    1.702555

           ------------------------------------------------- 
          |        Self-Consistent Charge Iterations        |
           ------------------------------------------------- 

          ...................................................
          :                      SETUP                      :
          :.................................................:
          :  # basis functions                 340          :
          :  # atomic orbitals                 335          :
          :  # shells                          173          :
          :  # electrons                       344          :
          :  max. iterations                   250          :
          :  Hamiltonian                  GFN2-xTB          :
          :  restarted?                      false          :
          :  GBSA solvation                  false          :
          :  PC potential                    false          :
          :  electronic temp.          300.0000000     K    :
          :  accuracy                    1.0000000          :
          :  -> integral cutoff          0.2500000E+02      :
          :  -> integral neglect         0.1000000E-07      :
          :  -> SCF convergence          0.1000000E-05 Eh   :
          :  -> wf. convergence          0.1000000E-03 e    :
          :  Broyden damping             0.4000000          :
          ...................................................

 iter      E             dE          RMSdq      gap      omega  full diag
   1   -193.3544944 -0.193354E+03  0.494E+00    1.36       0.0  T
   2   -193.4887169 -0.134223E+00  0.327E+00    1.07       1.0  T
   3   -193.4457647  0.429522E-01  0.213E+00    1.01       1.0  T
   4   -193.6837215 -0.237957E+00  0.831E-01    1.22       1.0  T
   5   -193.7413431 -0.576216E-01  0.232E-01    0.98       1.0  T
   6   -193.7446227 -0.327957E-02  0.127E-01    1.10       1.0  T
   7   -193.7455887 -0.965998E-03  0.537E-02    1.06       1.0  T
   8   -193.7457739 -0.185240E-03  0.207E-02    1.07       1.0  T
   9   -193.7457889 -0.149785E-04  0.109E-02    1.07       1.0  T
  10   -193.7457962 -0.735909E-05  0.494E-03    1.07       2.1  T
  11   -193.7457972 -0.950133E-06  0.231E-03    1.07       4.4  T
  12   -193.7457974 -0.239513E-06  0.119E-03    1.07       8.5  T
  13   -193.7457975 -0.636903E-07  0.615E-04    1.07      16.5  T
  14   -193.7457975 -0.159424E-07  0.291E-04    1.07      34.9  T

   *** convergence criteria satisfied after 14 iterations ***

         #    Occupation            Energy/Eh            Energy/eV
      -------------------------------------------------------------
         1        2.0000           -0.8543274             -23.2474
       ...           ...                  ...                  ...
       166        2.0000           -0.4193716             -11.4117
       167        2.0000           -0.4170774             -11.3493
       168        2.0000           -0.4138118             -11.2604
       169        2.0000           -0.4040095             -10.9937
       170        2.0000           -0.3980460             -10.8314
       171        2.0000           -0.3910499             -10.6410
       172        2.0000           -0.3855313             -10.4908 (HOMO)
       173                         -0.3462978              -9.4232 (LUMO)
       174                         -0.3431829              -9.3385
       175                         -0.3340541              -9.0901
       176                         -0.3302783              -8.9873
       177                         -0.3139928              -8.5442
       ...                                ...                  ...
       335                          1.0619291              28.8966
      -------------------------------------------------------------
                  HL-Gap            0.0392335 Eh            1.0676 eV
             Fermi-level           -0.3659307 Eh           -9.9575 eV

 SCC (total)                   0 d,  0 h,  0 min,  0.641 sec
 SCC setup                      ...        0 min,  0.002 sec (  0.366%)
 Dispersion                     ...        0 min,  0.005 sec (  0.763%)
 integral evaluation            ...        0 min,  0.206 sec ( 32.067%)
 zeroth order Hamiltonian       ...        0 min,  0.001 sec (  0.201%)
 iterations                     ...        0 min,  0.253 sec ( 39.497%)
 molecular gradient             ...        0 min,  0.171 sec ( 26.715%)
 printout                       ...        0 min,  0.002 sec (  0.381%)

         :::::::::::::::::::::::::::::::::::::::::::::::::::::
         ::                     SUMMARY                     ::
         :::::::::::::::::::::::::::::::::::::::::::::::::::::
         :: total energy            -191.181590733413 Eh    ::
         :: gradient norm              0.108450090556 Eh/a0 ::
         :: HOMO-LUMO gap              1.067598338481 eV    ::
         ::.................................................::
         :: SCC energy              -193.745797512238 Eh    ::
         :: -> isotropic ES            0.144585847392 Eh    ::
         :: -> anisotropic ES          0.010184001279 Eh    ::
         :: -> anisotropic XC          0.104797359654 Eh    ::
         :: -> dispersion             -0.157391080139 Eh    ::
         :: repulsion energy           2.565338929826 Eh    ::
         :: add. restraining           0.000000000000 Eh    ::
         :::::::::::::::::::::::::::::::::::::::::::::::::::::

           -------------------------------------------------
          |                Property Printout                |
           -------------------------------------------------

    * Orbital Energies and Occupations

         #    Occupation            Energy/Eh            Energy/eV
      -------------------------------------------------------------
         1        2.0000           -0.8543274             -23.2474
       ...           ...                  ...                  ...
       160        2.0000           -0.4334618             -11.7951
       161        2.0000           -0.4315637             -11.7434
       162        2.0000           -0.4300555             -11.7024
       163        2.0000           -0.4287754             -11.6676
       164        2.0000           -0.4270122             -11.6196
       165        2.0000           -0.4247360             -11.5577
       166        2.0000           -0.4193716             -11.4117
       167        2.0000           -0.4170774             -11.3493
       168        2.0000           -0.4138118             -11.2604
       169        2.0000           -0.4040095             -10.9937
       170        2.0000           -0.3980460             -10.8314
       171        2.0000           -0.3910499             -10.6410
       172        2.0000           -0.3855313             -10.4908 (HOMO)
       173                         -0.3462978              -9.4232 (LUMO)
       174                         -0.3431829              -9.3385
       175                         -0.3340541              -9.0901
       176                         -0.3302783              -8.9873
       177                         -0.3139928              -8.5442
       178                         -0.2917116              -7.9379
       179                         -0.2873871              -7.8202
       180                         -0.2730770              -7.4308
       181                         -0.2667601              -7.2589
       182                         -0.2560549              -6.9676
       183                         -0.2550043              -6.9390
       ...                                ...                  ...
       335                          1.0619291              28.8966
      -------------------------------------------------------------
                  HL-Gap            0.0392335 Eh            1.0676 eV
             Fermi-level           -0.3659307 Eh           -9.9575 eV

     #   Z        covCN         q      C6AA      α(0)
     1   6 C      2.857     0.226    23.254     7.904
     2   8 O      0.856    -0.367    21.032     6.149
     3   6 C      3.024    -0.020    28.491     8.756
     4   6 C      2.906    -0.038    28.947     8.822
     5   6 C      2.776     0.160    24.520     8.110
     6   9 F      0.787    -0.182    11.050     3.927
     7   6 C      2.775     0.162    24.480     8.104
     8   9 F      0.787    -0.181    11.036     3.924
     9   6 C      2.908    -0.051    29.259     8.870
    10   6 C      3.012     0.004    27.909     8.666
    11   6 C      3.002     0.029    27.344     8.578
    12   6 C      2.944     0.009    27.810     8.649
    13   6 C      1.914     0.118    28.197     8.576
    14   7 N      0.911    -0.230    26.042     7.381
    15   6 C      1.915     0.119    28.179     8.573
    16   7 N      0.911    -0.223    25.883     7.358
    17   6 C      2.984    -0.038    28.928     8.823
    18   6 C      2.972    -0.006    28.178     8.707
    19   6 C      2.977     0.023    27.480     8.599
    20  16 S      2.275    -0.037   142.583    20.097
    21   6 C      3.080     0.011    27.682     8.626
    22   6 C      3.167     0.006    27.542     8.575
    23   6 C      3.054     0.020    27.502     8.601
    24   6 C      3.799    -0.059    21.638     6.623
    25   6 C      3.746    -0.093    22.351     6.744
    26  16 S      2.150    -0.014   141.612    20.029
    27   6 C      3.067     0.008    27.763     8.640
    28   6 C      3.194     0.027    26.902     8.457
    29   7 N      2.786    -0.043    22.061     6.976
    30   6 C      3.737    -0.002    20.694     6.492
    31   6 C      3.746    -0.112    22.713     6.798
    32   6 C      3.037     0.028    27.333     8.575
    33   6 C      3.058    -0.030    28.695     8.785
    34   6 C      3.308     0.072    24.570     7.918
    35   7 N      1.843    -0.255    27.487     7.770
    36  16 S      2.653     0.293   129.669    19.165
    37   7 N      1.843    -0.255    27.484     7.770
    38   6 C      3.310     0.072    24.553     7.912
    39   6 C      3.054    -0.029    28.672     8.782
    40   6 C      3.035     0.028    27.340     8.576
    41   7 N      2.783    -0.053    22.268     7.009
    42   6 C      3.736     0.003    20.620     6.480
    43   6 C      3.746    -0.114    22.754     6.804
    44   6 C      3.183     0.027    26.958     8.474
    45   6 C      3.070     0.007    27.790     8.644
    46  16 S      2.151    -0.007   141.365    20.011
    47   6 C      3.164     0.008    27.508     8.572
    48   6 C      3.080     0.009    27.731     8.633
    49  16 S      2.250    -0.042   142.778    20.111
    50   6 C      2.981     0.022    27.502     8.602
    51   6 C      3.060     0.020    27.495     8.599
    52   6 C      3.799    -0.043    21.339     6.577
    53   6 C      3.746    -0.102    22.522     6.770
    54   6 C      2.947    -0.005    28.150     8.702
    55   6 C      2.985    -0.037    28.902     8.819
    56   6 C      3.001     0.029    27.330     8.576
    57   6 C      2.944     0.012    27.751     8.640
    58   6 C      1.913     0.119    28.175     8.572
    59   7 N      0.911    -0.221    25.819     7.349
    60   6 C      1.913     0.117    28.212     8.578
    61   7 N      0.911    -0.225    25.920     7.363
    62   6 C      3.012     0.006    27.879     8.661
    63   6 C      2.907    -0.050    29.250     8.868
    64   6 C      2.775     0.163    24.461     8.100
    65   9 F      0.788    -0.179    11.017     3.921
    66   6 C      2.777     0.161    24.502     8.107
    67   9 F      0.787    -0.180    11.034     3.924
    68   6 C      2.906    -0.038    28.938     8.821
    69   6 C      3.026    -0.020    28.484     8.754
    70   6 C      2.856     0.228    23.224     7.899
    71   8 O      0.856    -0.356    20.827     6.119
    72   1 H      0.924     0.092     1.863     2.135
    73   1 H      0.925     0.090     1.878     2.143
    74   1 H      0.924     0.070     2.088     2.260
    75   1 H      0.923     0.097     1.817     2.108
    76   1 H      0.923     0.054     2.268     2.355
    77   1 H      0.923     0.032     2.556     2.500
    78   1 H      0.923     0.046     2.375     2.410
    79   1 H      0.923     0.039     2.466     2.456
    80   1 H      0.923     0.057     2.238     2.340
    81   1 H      0.924     0.067     2.115     2.274
    82   1 H      0.923     0.045     2.381     2.413
    83   1 H      0.923     0.060     2.196     2.318
    84   1 H      0.923     0.057     2.234     2.337
    85   1 H      0.923     0.052     2.301     2.372
    86   1 H      0.924     0.064     2.158     2.298
    87   1 H      0.924     0.064     2.149     2.292
    88   1 H      0.923     0.056     2.247     2.344
    89   1 H      0.923     0.048     2.344     2.395
    90   1 H      0.924     0.044     2.397     2.421
    91   1 H      0.922     0.050     2.319     2.382
    92   1 H      0.923     0.042     2.428     2.437
    93   1 H      0.923     0.045     2.382     2.414
    94   1 H      0.924     0.067     2.115     2.274
    95   1 H      0.924     0.068     2.109     2.271
    96   1 H      0.925     0.091     1.868     2.138
    97   1 H      0.924     0.093     1.852     2.128

 Mol. C6AA /au·bohr⁶  :     181813.203275
 Mol. C8AA /au·bohr⁸  :    5126533.644854
 Mol. α(0) /au        :        675.657609


Wiberg/Mayer (AO) data.
largest (>0.10) Wiberg bond orders for each atom
          total WBO             WBO to atom ...
     1  C   3.926        O    2 1.749    C   17 1.046    C    3 1.010
     2  O   2.049        C    1 1.749
     3  C   3.976        C    4 1.408    C   10 1.314    C    1 1.010
     4  C   3.976        C    3 1.408    C    5 1.392    H   72 0.959
     5  C   3.864        C    4 1.392    C    7 1.317    F    6 0.994
     6  F   1.135        C    5 0.994
     7  C   3.888        C    9 1.399    C    5 1.317    F    8 0.996
     8  F   1.139        C    7 0.996
     9  C   3.972        C    7 1.399    C   10 1.388    H   73 0.954
    10  C   3.980        C    9 1.388    C    3 1.314    C   11 1.076
    11  C   3.971        C   12 1.491    C   17 1.141    C   10 1.076
    12  C   3.927        C   11 1.491    C   13 1.093    C   15 1.093
    13  C   3.942        N   14 2.763    C   12 1.093
    14  N   2.966        C   13 2.763
    15  C   3.942        N   16 2.772    C   12 1.093
    16  N   2.972        C   15 2.772
    17  C   3.953        C   18 1.500    C   11 1.141    C    1 1.046
    18  C   3.945        C   17 1.500    C   19 1.288    H   74 0.939
    19  C   3.920        C   23 1.366    C   18 1.288    S   20 1.056
    20  S   2.554        C   21 1.145    C   19 1.056
    21  C   3.927        C   22 1.312    C   28 1.250    S   20 1.145
    22  C   3.927        C   23 1.324    C   21 1.312    S   26 1.083
    23  C   3.947        C   19 1.366    C   22 1.324    C   24 1.023
    24  C   3.987        C   23 1.023    C   25 1.000    H   76 0.970    H   75 0.925
    25  C   3.992        C   24 1.000    H   79 0.987    H   78 0.985    H   77 0.985
    26  S   2.504        C   27 1.112    C   22 1.083
    27  C   3.919        C   28 1.311    C   33 1.273    S   26 1.112
    28  C   3.936        C   27 1.311    C   21 1.250    N   29 1.149
    29  N   3.543        C   32 1.170    C   28 1.149    C   30 0.974
    30  C   3.961        C   31 1.013    N   29 0.974    H   80 0.964    H   81 0.957
    31  C   3.988        C   30 1.013    H   84 0.982    H   82 0.977    H   83 0.977
    32  C   3.926        C   33 1.279    C   40 1.215    N   29 1.170
    33  C   3.950        C   32 1.279    C   27 1.273    C   34 1.159
    34  C   3.972        N   35 1.457    C   33 1.159    C   38 1.151    S   36 0.102
    35  N   3.072        C   34 1.457    S   36 1.360    N   37 0.147
    36  S   3.043        N   37 1.360    N   35 1.360    C   38 0.102    C   34 0.102
    37  N   3.072        C   38 1.458    S   36 1.360    N   35 0.147
    38  C   3.972        N   37 1.458    C   39 1.158    C   34 1.151    S   36 0.102
    39  C   3.950        C   40 1.293    C   45 1.261    C   38 1.158
    40  C   3.928        C   39 1.293    C   32 1.215    N   41 1.157
    41  N   3.519        C   40 1.157    C   44 1.141    C   42 0.970
    42  C   3.962        C   43 1.015    N   41 0.970    H   85 0.966    H   86 0.960
    43  C   3.987        C   42 1.015    H   88 0.981    H   89 0.975    H   87 0.972
    44  C   3.935        C   45 1.322    C   48 1.246    N   41 1.141
    45  C   3.921        C   44 1.322    C   39 1.261    S   46 1.115
    46  S   2.522        C   45 1.115    C   47 1.090
    47  C   3.927        C   48 1.328    C   51 1.301    S   46 1.090
    48  C   3.931        C   47 1.328    C   44 1.246    S   49 1.132
    49  S   2.546        C   48 1.132    C   50 1.062
    50  C   3.921        C   51 1.409    C   54 1.236    S   49 1.062
    51  C   3.952        C   50 1.409    C   47 1.301    C   52 1.016
    52  C   3.992        C   51 1.016    C   53 0.999    H   90 0.974    H   91 0.954
    53  C   3.987        C   52 0.999    H   92 0.985    H   93 0.982    H   94 0.980
    54  C   3.946        C   55 1.545    C   50 1.236    H   95 0.943
    55  C   3.956        C   54 1.545    C   56 1.133    C   70 1.025
    56  C   3.972        C   57 1.499    C   55 1.133    C   62 1.077
    57  C   3.932        C   56 1.499    C   60 1.091    C   58 1.091
    58  C   3.942        N   59 2.775    C   57 1.091
    59  N   2.974        C   58 2.775
    60  C   3.943        N   61 2.771    C   57 1.091
    61  N   2.970        C   60 2.771
    62  C   3.981        C   63 1.386    C   69 1.313    C   56 1.077
    63  C   3.971        C   64 1.401    C   62 1.386    H   96 0.954
    64  C   3.888        C   63 1.401    C   66 1.314    F   65 0.998
    65  F   1.141        C   64 0.998
    66  C   3.865        C   68 1.395    C   64 1.314    F   67 0.995
    67  F   1.137        C   66 0.995
    68  C   3.977        C   69 1.405    C   66 1.395    H   97 0.959
    69  C   3.976        C   68 1.405    C   62 1.313    C   70 1.012
    70  C   3.926        O   71 1.773    C   55 1.025    C   69 1.012
    71  O   2.063        C   70 1.773
    72  H   0.991        C    4 0.959
    73  H   0.991        C    9 0.954
    74  H   0.993        C   18 0.939
    75  H   0.988        C   24 0.925
    76  H   0.997        C   24 0.970
    77  H   0.999        C   25 0.985
    78  H   0.997        C   25 0.985
    79  H   0.998        C   25 0.987
    80  H   0.994        C   30 0.964
    81  H   0.995        C   30 0.957
    82  H   0.998        C   31 0.977
    83  H   0.996        C   31 0.977
    84  H   0.996        C   31 0.982
    85  H   0.995        C   42 0.966
    86  H   0.995        C   42 0.960
    87  H   0.996        C   43 0.972
    88  H   0.996        C   43 0.981
    89  H   0.997        C   43 0.975
    90  H   0.998        C   52 0.974
    91  H   0.996        C   52 0.954
    92  H   0.997        C   53 0.985
    93  H   0.998        C   53 0.982
    94  H   0.995        C   53 0.980
    95  H   0.992        C   54 0.943
    96  H   0.991        C   63 0.954
    97  H   0.991        C   68 0.959

molecular dipole:
                 x           y           z       tot (Debye)
 q only:       -0.513       1.232       0.664
   full:       -0.074       1.519       0.895       4.486
molecular quadrupole (traceless):
                xx          xy          yy          xz          yz          zz
 q only:       66.933     -32.330       2.628      59.173      76.226     -69.561
  q+dip:       65.061     -27.817     -18.456      66.681      72.136     -46.605
   full:       74.647     -28.937     -23.394      72.289      73.699     -51.253


           -------------------------------------------------
          | TOTAL ENERGY             -191.181590733413 Eh   |
          | GRADIENT NORM               0.108450090556 Eh/α |
          | HOMO-LUMO GAP               1.067598338481 eV   |
           -------------------------------------------------

------------------------------------------------------------------------
 * finished run on 2021/04/12 at 13:52:53.509     
------------------------------------------------------------------------
 total:
 * wall-time:     0 d,  0 h,  0 min,  0.862 sec
 *  cpu-time:     0 d,  0 h,  0 min,  0.855 sec
 * ratio c/w:     0.992 speedup
 SCF:
 * wall-time:     0 d,  0 h,  0 min,  0.642 sec
 *  cpu-time:     0 d,  0 h,  0 min,  0.639 sec
 * ratio c/w:     0.995 speedup

