      -----------------------------------------------------------      
     |                   =====================                   |     
     |                           x T B                           |     
     |                   =====================                   |     
     |                         S. Grimme                         |     
     |          Mulliken Center for Theoretical Chemistry        |     
     |                    University of Bonn                     |     
     |                Version 6.2 RC2 (SAW190805)                |     
      -----------------------------------------------------------      

   This program is distributed in the hope that it will be useful,
   but WITHOUT ANY WARRANTY; without even the implied warranty of
   MERCHANTABILITY or FITNESS FOR A PARTICULAR PURPOSE.
   
   FOR NON-COMMERCIAL, ACADEMIA USE ONLY.
   
   Cite this work as:
   * S. Grimme, C. Bannwarth, P. Shushkov, J. Chem. Theory Comput., 2017,
     13, 1989-2009. DOI: 10.1021/acs.jctc.7b00118
   * C. Bannwarth, S. Ehlert and S. Grimme., J. Chem. Theory Comput., 2019,
     15, 1652-1671. DOI: 10.1021/acs.jctc.8b01176
   * P. Pracht, E. Caldeweyher, S. Ehlert, S. Grimme, ChemRxiv, 2019, preprint.
     DOI: 10.26434/chemrxiv.8326202.v1
   
   for DFT-D4:
   * E. Caldeweyher, C. Bannwarth and S. Grimme, J. Chem. Phys., 2017,
     147, 034112. DOI: 10.1063/1.4993215
   * E. Caldeweyher, S. Ehlert, A. Hansen, H. Neugebauer, S. Spicher,
     C. Bannwarth and S. Grimme, J. Chem. Phys., 2019, 150, 154122.
     DOI: 10.1063/1.5090222
   
   for sTDA-xTB:
   * S. Grimme and C. Bannwarth, J. Chem. Phys., 2016, 145, 054103.
     DOI: 10.1063/1.4959605
   
   in the mass-spec context:
   * V. Asgeirsson, C. Bauer and S. Grimme, Chem. Sci., 2017, 8, 4879.
     DOI: 10.1039/c7sc00601b
   
   for metadynamics refer to:
   * S. Grimme, J. Chem. Theory Comput., 2019, 155, 2847-2862
     DOI: 10.1021/acs.jctc.9b00143
   
   with help from (in alphabetical order)
   C. Bannwarth, F. Bohle, G. Brandenburg, E. Caldeweyher, M. Checinski,
   S. Dohm, S. Ehlert, S. Ehrlich, F. März, H. Neugebauer, J. Pisarek,
   P. Pracht, P. Shushkov, and S. Spicher.
   
 * started run on 2021/04/15 at 14:19:42.034     

           -------------------------------------------------
          |                Calculation Setup                |
           -------------------------------------------------

          program call               : /ihome/ghutchison/geoffh/xtb/xtb NIBT.xyz -sp
          hostname                   : smp-n27
          coordinate file            : NIBT.xyz
          omp threads                :                     1
          number of atoms            :                   186
          number of electrons        :                   554
          charge                     :                     0
          spin                       :                   0.0
          first test random number   :      0.39278347063185


########################################################################
# WARNING! Please study the warnings concerning your input carefully
#  - XTBPATH is not set, using XTBHOME instead
#  - the use of '-sp' is discouraged, please use '--sp' next time
########################################################################

           ------------------------------------------------- 
          |                 G F N 2 - x T B                 |
          | Geometry, Frequencies, Noncovalent interactions |
          |            JCTC 2019 parametrisation            |
           ------------------------------------------------- 
             KAB for C  - Si     :                1.0500
             KAB for H  - Pd     :                0.9500
             k(s)              :                1.8500
             k(p)              :                2.2300
             k(d)              :                2.2300
             k(f)              :                2.0000
             kEN (H0ij)        :               -2.0000
             D4 a1             :                0.5200
             D4 a2             :                5.0000
             D4 s6             :                1.0000
             D4 s8             :                2.7000
             D4 s9             :                5.0000
             alphaj            :                2.0000

  Z AO/shell   Hii/eV     exponent
  1     Wed Apr 25 08:07:45 CEST 2018   EN: 2.200 GM2: 0.406  GM3: 0.0800  RAES: 1.40
     1s    -10.707211    1.230000
  6     Wed Apr 25 08:07:45 CEST 2018   EN: 2.550 GM2: 0.538  GM3: 0.1500  RAES: 3.00
     2s    -13.970922    2.096432
     2p    -10.063292    1.800000
  7     Wed Apr 25 08:07:45 CEST 2018   EN: 3.040 GM2: 0.461  GM3:-0.0640  RAES: 1.90
     2s    -16.686243    2.339881
     2p    -12.523956    2.014332
  8     Wed Apr 25 08:07:45 CEST 2018   EN: 3.440 GM2: 0.452  GM3:-0.0517  RAES: 1.80
     2s    -20.229985    2.439742
     2p    -15.503117    2.137023
 16     Tue Apr 24 11:44:34 CEST 2018   EN: 2.580 GM2: 0.340  GM3:-0.0502  RAES: 3.10
     3s    -20.029654    1.981333
     3p    -11.377694    2.025643
     3d     -0.420282    1.702555

           ------------------------------------------------- 
          |        Self-Consistent Charge Iterations        |
           ------------------------------------------------- 

          ...................................................
          :                      SETUP                      :
          :.................................................:
          :  # basis functions                 552          :
          :  # atomic orbitals                 548          :
          :  # shells                          304          :
          :  # electrons                       554          :
          :  max. iterations                   250          :
          :  Hamiltonian                  GFN2-xTB          :
          :  restarted?                      false          :
          :  GBSA solvation                  false          :
          :  PC potential                    false          :
          :  electronic temp.          300.0000000     K    :
          :  accuracy                    1.0000000          :
          :  -> integral cutoff          0.2500000E+02      :
          :  -> integral neglect         0.1000000E-07      :
          :  -> SCF convergence          0.1000000E-05 Eh   :
          :  -> wf. convergence          0.1000000E-03 e    :
          :  Broyden damping             0.4000000          :
          ...................................................

 iter      E             dE          RMSdq      gap      omega  full diag
   1   -305.7145192 -0.305715E+03  0.419E+00    1.25       0.0  T
   2   -306.0289796 -0.314460E+00  0.242E+00    0.98       1.0  T
   3   -306.0004144  0.285652E-01  0.119E+00    1.17       1.0  T
   4   -306.0838051 -0.833907E-01  0.295E-01    0.98       1.0  T
   5   -306.0930004 -0.919528E-02  0.143E-01    1.05       1.0  T
   6   -306.0956501 -0.264978E-02  0.709E-02    1.01       1.0  T
   7   -306.0962686 -0.618503E-03  0.296E-02    1.03       1.0  T
   8   -306.0963353 -0.666362E-04  0.147E-02    1.03       1.0  T
   9   -306.0963564 -0.211589E-04  0.610E-03    1.03       1.2  T
  10   -306.0963607 -0.428747E-05  0.268E-03    1.03       2.7  T
  11   -306.0963612 -0.495984E-06  0.142E-03    1.03       5.2  T
  12   -306.0963615 -0.254609E-06  0.675E-04    1.03      10.9  T
  13   -306.0963615 -0.406886E-07  0.316E-04    1.03      23.2  T

   *** convergence criteria satisfied after 13 iterations ***

         #    Occupation            Energy/Eh            Energy/eV
      -------------------------------------------------------------
         1        2.0000           -0.7690493             -20.9269
       ...           ...                  ...                  ...
       271        2.0000           -0.3959685             -10.7749
       272        2.0000           -0.3949869             -10.7481
       273        2.0000           -0.3939207             -10.7191
       274        2.0000           -0.3903820             -10.6228
       275        2.0000           -0.3890489             -10.5866
       276        2.0000           -0.3818409             -10.3904
       277        2.0000           -0.3657591              -9.9528 (HOMO)
       278                         -0.3279443              -8.9238 (LUMO)
       279                         -0.3243670              -8.8265
       280                         -0.3235767              -8.8050
       281                         -0.3221843              -8.7671
       282                         -0.3011607              -8.1950
       ...                                ...                  ...
       548                          0.7167582              19.5040
      -------------------------------------------------------------
                  HL-Gap            0.0378148 Eh            1.0290 eV
             Fermi-level           -0.3468683 Eh           -9.4388 eV

 SCC (total)                   0 d,  0 h,  0 min,  1.969 sec
 SCC setup                      ...        0 min,  0.007 sec (  0.336%)
 Dispersion                     ...        0 min,  0.016 sec (  0.824%)
 integral evaluation            ...        0 min,  0.498 sec ( 25.274%)
 zeroth order Hamiltonian       ...        0 min,  0.003 sec (  0.129%)
 iterations                     ...        0 min,  1.011 sec ( 51.324%)
 molecular gradient             ...        0 min,  0.428 sec ( 21.735%)
 printout                       ...        0 min,  0.007 sec (  0.374%)

         :::::::::::::::::::::::::::::::::::::::::::::::::::::
         ::                     SUMMARY                     ::
         :::::::::::::::::::::::::::::::::::::::::::::::::::::
         :: total energy            -301.646021859283 Eh    ::
         :: gradient norm              0.105699555424 Eh/a0 ::
         :: HOMO-LUMO gap              1.028992224505 eV    ::
         ::.................................................::
         :: SCC energy              -306.096361503490 Eh    ::
         :: -> isotropic ES            0.211214272398 Eh    ::
         :: -> anisotropic ES          0.026191703210 Eh    ::
         :: -> anisotropic XC          0.145853624351 Eh    ::
         :: -> dispersion             -0.275210720312 Eh    ::
         :: repulsion energy           4.448383259278 Eh    ::
         :: add. restraining           0.000000000000 Eh    ::
         :::::::::::::::::::::::::::::::::::::::::::::::::::::

           -------------------------------------------------
          |                Property Printout                |
           -------------------------------------------------

    * Orbital Energies and Occupations

         #    Occupation            Energy/Eh            Energy/eV
      -------------------------------------------------------------
         1        2.0000           -0.7690493             -20.9269
       ...           ...                  ...                  ...
       265        2.0000           -0.4051381             -11.0244
       266        2.0000           -0.4047451             -11.0137
       267        2.0000           -0.4027530             -10.9595
       268        2.0000           -0.4015271             -10.9261
       269        2.0000           -0.3988065             -10.8521
       270        2.0000           -0.3975040             -10.8166
       271        2.0000           -0.3959685             -10.7749
       272        2.0000           -0.3949869             -10.7481
       273        2.0000           -0.3939207             -10.7191
       274        2.0000           -0.3903820             -10.6228
       275        2.0000           -0.3890489             -10.5866
       276        2.0000           -0.3818409             -10.3904
       277        2.0000           -0.3657591              -9.9528 (HOMO)
       278                         -0.3279443              -8.9238 (LUMO)
       279                         -0.3243670              -8.8265
       280                         -0.3235767              -8.8050
       281                         -0.3221843              -8.7671
       282                         -0.3011607              -8.1950
       283                         -0.2942886              -8.0080
       284                         -0.2859496              -7.7811
       285                         -0.2659011              -7.2355
       286                         -0.2589646              -7.0468
       287                         -0.2581050              -7.0234
       288                         -0.2513915              -6.8407
       ...                                ...                  ...
       548                          0.7167582              19.5040
      -------------------------------------------------------------
                  HL-Gap            0.0378148 Eh            1.0290 eV
             Fermi-level           -0.3468683 Eh           -9.4388 eV

     #   Z        covCN         q      C6AA      α(0)
     1   6 C      3.024     0.002    27.954     8.673
     2   6 C      3.035     0.003    27.917     8.666
     3   6 C      2.902    -0.035    28.869     8.810
     4   6 C      3.013     0.003    27.947     8.672
     5   6 C      3.054     0.005    27.856     8.656
     6   6 C      2.902    -0.037    28.914     8.817
     7   6 C      3.048     0.016    27.610     8.618
     8   6 C      3.176    -0.012    27.891     8.624
     9   6 C      3.932     0.014    20.284     6.400
    10  16 S      2.235    -0.001   141.093    19.992
    11   6 C      2.978     0.015    27.662     8.627
    12   6 C      3.049    -0.047    29.109     8.849
    13   6 C      3.043     0.013    27.694     8.631
    14   6 C      3.193    -0.009    27.723     8.586
    15   6 C      3.932     0.012    20.311     6.405
    16  16 S      2.232     0.006   140.795    19.971
    17   6 C      2.981     0.017    27.628     8.622
    18   6 C      3.048    -0.047    29.128     8.852
    19   6 C      2.969     0.004    27.920     8.667
    20   6 C      2.966     0.011    27.767     8.643
    21   6 C      2.966     0.010    27.781     8.645
    22   6 C      2.964     0.010    27.793     8.647
    23   6 C      2.967     0.012    27.743     8.640
    24   6 C      2.967     0.006    27.878     8.661
    25   6 C      3.319     0.073    24.360     7.858
    26   6 C      3.331     0.075    24.101     7.788
    27   6 C      2.951     0.003    27.946     8.671
    28   6 C      2.913    -0.031    28.772     8.796
    29   6 C      2.911    -0.039    28.971     8.826
    30   6 C      3.326     0.073    24.236     7.823
    31   6 C      3.323     0.081    24.128     7.813
    32   6 C      2.951     0.007    27.857     8.657
    33   6 C      2.917    -0.032    28.788     8.799
    34   6 C      2.913    -0.040    29.000     8.830
    35   7 N      1.845    -0.254    27.463     7.767
    36  16 S      2.659     0.323   128.563    19.084
    37   7 N      1.843    -0.266    27.757     7.808
    38   7 N      1.845    -0.255    27.495     7.771
    39  16 S      2.663     0.334   128.181    19.055
    40   7 N      1.843    -0.244    27.221     7.732
    41   6 C      2.893    -0.009    28.241     8.713
    42   6 C      2.991    -0.019    28.475     8.753
    43   6 C      2.898    -0.007    28.198     8.707
    44   6 C      2.987    -0.022    28.542     8.764
    45   6 C      2.994     0.023    27.477     8.599
    46   6 C      3.078     0.005    27.817     8.647
    47   6 C      2.993    -0.010    28.267     8.721
    48   6 C      2.861     0.226    23.252     7.904
    49   6 C      3.000     0.012    27.741     8.640
    50   6 C      3.070     0.004    27.859     8.655
    51   6 C      2.996    -0.011    28.286     8.724
    52   6 C      2.854     0.232    23.153     7.887
    53   6 C      2.908    -0.021    28.539     8.760
    54   6 C      2.911    -0.012    28.303     8.724
    55   6 C      2.967    -0.024    28.597     8.772
    56   6 C      2.984     0.010    27.780     8.646
    57   6 C      2.965    -0.017    28.427     8.745
    58   6 C      2.911    -0.012    28.321     8.726
    59   6 C      2.905    -0.012    28.320     8.726
    60   6 C      2.761     0.270    22.441     7.758
    61   7 N      2.732    -0.107    23.332     7.174
    62   6 C      2.759     0.271    22.422     7.754
    63   6 C      3.748    -0.000    20.651     6.481
    64   6 C      3.846    -0.009    20.700     6.472
    65   6 C      3.747    -0.098    22.444     6.757
    66   6 C      3.749    -0.106    22.589     6.779
    67   6 C      2.906    -0.013    28.332     8.728
    68   6 C      2.910    -0.012    28.320     8.726
    69   6 C      2.966    -0.018    28.449     8.749
    70   6 C      2.984     0.010    27.792     8.648
    71   6 C      2.966    -0.024    28.609     8.773
    72   6 C      2.911    -0.011    28.302     8.723
    73   6 C      2.907    -0.029    28.720     8.787
    74   6 C      2.759     0.270    22.437     7.757
    75   7 N      2.731    -0.108    23.371     7.180
    76   6 C      2.760     0.269    22.451     7.759
    77   6 C      3.749     0.002    20.614     6.476
    78   6 C      3.847    -0.008    20.695     6.471
    79   6 C      3.748    -0.099    22.456     6.759
    80   6 C      3.750    -0.106    22.587     6.778
    81   6 C      2.911    -0.036    28.902     8.815
    82   6 C      2.914    -0.038    28.945     8.822
    83   6 C      2.958     0.011    27.759     8.642
    84   6 C      2.914    -0.037    28.922     8.819
    85   6 C      2.913    -0.035    28.876     8.812
    86   6 C      2.913    -0.034    28.844     8.807
    87   6 C      2.916    -0.039    28.968     8.826
    88   6 C      2.958     0.011    27.763     8.642
    89   6 C      2.914    -0.037    28.925     8.819
    90   6 C      2.913    -0.038    28.934     8.821
    91   6 C      2.911    -0.037    28.910     8.817
    92   6 C      2.914    -0.037    28.928     8.820
    93   6 C      2.959     0.012    27.751     8.641
    94   6 C      2.914    -0.037    28.920     8.818
    95   6 C      2.913    -0.035    28.872     8.811
    96   6 C      2.911    -0.037    28.915     8.817
    97   6 C      2.915    -0.038    28.939     8.821
    98   6 C      2.958     0.012    27.754     8.641
    99   6 C      2.914    -0.037    28.910     8.817
   100   6 C      2.913    -0.034    28.846     8.807
   101   8 O      0.858    -0.398    21.650     6.238
   102   8 O      0.858    -0.396    21.609     6.232
   103   8 O      0.856    -0.346    20.627     6.089
   104   8 O      0.856    -0.342    20.553     6.078
   105   8 O      0.858    -0.398    21.632     6.236
   106   8 O      0.858    -0.396    21.607     6.232
   107   6 C      3.800    -0.054    21.545     6.609
   108   6 C      3.800    -0.054    21.541     6.608
   109   6 C      3.745    -0.094    22.372     6.747
   110   6 C      3.745    -0.094    22.363     6.746
   111   6 C      3.800    -0.054    21.545     6.609
   112   6 C      3.745    -0.093    22.355     6.744
   113   6 C      3.800    -0.054    21.543     6.608
   114   6 C      3.745    -0.094    22.359     6.745
   115   1 H      0.924     0.042     2.416     2.431
   116   1 H      0.924     0.043     2.410     2.428
   117   1 H      0.925     0.040     2.450     2.448
   118   1 H      0.925     0.040     2.449     2.447
   119   1 H      0.924     0.048     2.346     2.395
   120   1 H      0.924     0.046     2.375     2.410
   121   1 H      0.924     0.042     2.420     2.433
   122   1 H      0.925     0.043     2.409     2.427
   123   1 H      0.924     0.073     2.056     2.242
   124   1 H      0.924     0.052     2.301     2.372
   125   1 H      0.924     0.042     2.426     2.436
   126   1 H      0.924     0.069     2.096     2.264
   127   1 H      0.924     0.074     2.044     2.236
   128   1 H      0.924     0.064     2.152     2.294
   129   1 H      0.924     0.062     2.172     2.305
   130   1 H      0.924     0.076     2.026     2.226
   131   1 H      0.923     0.044     2.394     2.420
   132   1 H      0.923     0.046     2.376     2.411
   133   1 H      0.923     0.022     2.697     2.568
   134   1 H      0.923     0.035     2.511     2.478
   135   1 H      0.923     0.039     2.458     2.452
   136   1 H      0.923     0.040     2.448     2.447
   137   1 H      0.923     0.037     2.489     2.467
   138   1 H      0.924     0.063     2.167     2.302
   139   1 H      0.924     0.073     2.055     2.242
   140   1 H      0.924     0.070     2.091     2.261
   141   1 H      0.924     0.044     2.392     2.418
   142   1 H      0.924     0.062     2.178     2.308
   143   1 H      0.924     0.072     2.059     2.244
   144   1 H      0.923     0.046     2.377     2.411
   145   1 H      0.923     0.046     2.367     2.406
   146   1 H      0.923     0.026     2.649     2.545
   147   1 H      0.923     0.035     2.522     2.484
   148   1 H      0.923     0.037     2.487     2.466
   149   1 H      0.923     0.041     2.436     2.441
   150   1 H      0.923     0.037     2.496     2.471
   151   1 H      0.924     0.028     2.611     2.527
   152   1 H      0.924     0.029     2.595     2.519
   153   1 H      0.924     0.031     2.565     2.505
   154   1 H      0.925     0.030     2.592     2.518
   155   1 H      0.924     0.031     2.579     2.511
   156   1 H      0.924     0.029     2.605     2.524
   157   1 H      0.924     0.033     2.544     2.494
   158   1 H      0.925     0.027     2.624     2.533
   159   1 H      0.924     0.028     2.620     2.531
   160   1 H      0.924     0.030     2.591     2.517
   161   1 H      0.924     0.031     2.574     2.509
   162   1 H      0.924     0.029     2.595     2.519
   163   1 H      0.924     0.029     2.601     2.522
   164   1 H      0.924     0.029     2.595     2.519
   165   1 H      0.924     0.031     2.565     2.505
   166   1 H      0.924     0.029     2.594     2.519
   167   1 H      0.923     0.036     2.501     2.473
   168   1 H      0.922     0.040     2.456     2.451
   169   1 H      0.923     0.035     2.517     2.481
   170   1 H      0.922     0.038     2.478     2.462
   171   1 H      0.923     0.034     2.530     2.488
   172   1 H      0.923     0.034     2.536     2.490
   173   1 H      0.923     0.034     2.532     2.488
   174   1 H      0.923     0.034     2.530     2.488
   175   1 H      0.923     0.034     2.529     2.487
   176   1 H      0.923     0.035     2.522     2.484
   177   1 H      0.923     0.034     2.529     2.487
   178   1 H      0.923     0.035     2.511     2.478
   179   1 H      0.923     0.034     2.535     2.490
   180   1 H      0.923     0.035     2.517     2.481
   181   1 H      0.923     0.035     2.517     2.481
   182   1 H      0.922     0.037     2.490     2.468
   183   1 H      0.923     0.034     2.526     2.486
   184   1 H      0.923     0.035     2.516     2.480
   185   1 H      0.923     0.035     2.522     2.483
   186   1 H      0.923     0.034     2.535     2.490

 Mol. C6AA /au·bohr⁶  :     519319.641758
 Mol. C8AA /au·bohr⁸  :   13630133.290139
 Mol. α(0) /au        :       1144.832107


Wiberg/Mayer (AO) data.
largest (>0.10) Wiberg bond orders for each atom
          total WBO             WBO to atom ...
     1  C   3.954        C    6 1.349    C    2 1.295    C    7 1.132
     2  C   3.967        C    3 1.459    C    1 1.295    C    9 0.964
     3  C   3.975        C    2 1.459    C    4 1.353    H  115 0.964
     4  C   3.954        C    3 1.353    C    5 1.286    C   13 1.132
     5  C   3.966        C    6 1.468    C    4 1.286    C   15 0.969
     6  C   3.977        C    5 1.468    C    1 1.349    H  116 0.962
     7  C   3.918        C    8 1.418    S   10 1.175    C    1 1.132
     8  C   3.955        C    7 1.418    C   12 1.335    C    9 0.963
     9  C   3.985        C    2 0.964    C    8 0.963    C   21 0.960    C   20 0.957
    10  S   2.608        C    7 1.175    C   11 1.126
    11  C   3.923        C   12 1.470    C   19 1.135    S   10 1.126
    12  C   3.953        C   11 1.470    C    8 1.335    H  117 0.962
    13  C   3.910        C   14 1.404    S   16 1.176    C    4 1.132
    14  C   3.958        C   13 1.404    C   18 1.355    C   15 0.968
    15  C   3.986        C    5 0.969    C   14 0.968    C   22 0.967    C   23 0.943
    16  S   2.610        C   13 1.176    C   17 1.126
    17  C   3.925        C   18 1.442    C   24 1.165    S   16 1.126
    18  C   3.945        C   17 1.442    C   14 1.355    H  118 0.958
    19  C   3.950        C   29 1.449    C   25 1.168    C   11 1.135
    20  C   3.982        C   90 1.408    C   86 1.405    C    9 0.957    C   88 0.105
    21  C   3.982        C   81 1.421    C   85 1.392    C    9 0.960    C   83 0.106
    22  C   3.983        C   91 1.414    C   95 1.400    C   15 0.967    C   93 0.106
    23  C   3.981        C   96 1.423    C  100 1.394    C   15 0.943    C   98 0.106
    24  C   3.950        C   34 1.415    C   30 1.174    C   17 1.165
    25  C   3.970        N   35 1.424    C   19 1.168    C   26 1.160
    26  C   3.970        N   37 1.417    C   27 1.173    C   25 1.160
    27  C   3.943        C   28 1.452    C   26 1.173    C   41 1.131
    28  C   3.968        C   27 1.452    C   29 1.351    H  119 0.967
    29  C   3.974        C   19 1.449    C   28 1.351    H  120 0.967
    30  C   3.970        N   38 1.426    C   24 1.174    C   31 1.154
    31  C   3.968        N   40 1.425    C   32 1.180    C   30 1.154
    32  C   3.936        C   33 1.425    C   31 1.180    C   43 1.146
    33  C   3.967        C   32 1.425    C   34 1.380    H  121 0.967
    34  C   3.972        C   24 1.415    C   33 1.380    H  122 0.963
    35  N   3.089        C   25 1.424    S   36 1.401    N   37 0.163
    36  S   3.134        N   35 1.401    N   37 1.397
    37  N   3.075        C   26 1.417    S   36 1.397    N   35 0.163
    38  N   3.092        C   30 1.426    S   39 1.394    N   40 0.161
    39  S   3.127        N   40 1.402    N   38 1.394
    40  N   3.084        C   31 1.425    S   39 1.402    N   38 0.161
    41  C   3.947        C   42 1.660    C   27 1.131    H  123 0.949
    42  C   3.942        C   41 1.660    C   45 1.097    C   48 0.989
    43  C   3.951        C   44 1.654    C   32 1.146    H  124 0.952
    44  C   3.937        C   43 1.654    C   49 1.090    C   52 1.000
    45  C   3.979        C   53 1.452    C   46 1.211    C   42 1.097
    46  C   3.981        C   56 1.280    C   47 1.252    C   45 1.211
    47  C   3.978        C   59 1.474    C   46 1.252    C   48 1.000
    48  C   3.919        O  103 1.816    C   47 1.000    C   42 0.989
    49  C   3.978        C   73 1.458    C   50 1.213    C   44 1.090
    50  C   3.977        C   70 1.279    C   51 1.254    C   49 1.213
    51  C   3.979        C   67 1.476    C   50 1.254    C   52 0.995
    52  C   3.919        O  104 1.815    C   44 1.000    C   51 0.995
    53  C   3.986        C   45 1.452    C   54 1.365    H  125 0.968
    54  C   3.973        C   55 1.451    C   53 1.365    H  126 0.965
    55  C   3.955        C   54 1.451    C   56 1.244    C   60 1.036
    56  C   3.990        C   46 1.280    C   57 1.251    C   55 1.244
    57  C   3.987        C   58 1.465    C   56 1.251    C   62 1.018
    58  C   3.971        C   57 1.465    C   59 1.354    H  127 0.964
    59  C   3.985        C   47 1.474    C   58 1.354    H  128 0.966
    60  C   3.944        O  101 1.709    N   61 1.105    C   55 1.036
    61  N   3.560        C   62 1.124    C   60 1.105    C   63 0.967    O  102 0.144    O  101 0.137
    62  C   3.946        O  102 1.709    N   61 1.124    C   57 1.018
    63  C   3.951        C   64 0.982    N   61 0.967    H  129 0.967    H  130 0.964
    64  C   3.992        C   65 1.011    C   66 1.007    C   63 0.982    H  131 0.967
    65  C   3.996        C   64 1.011    H  133 0.987    H  134 0.986    H  132 0.986
    66  C   3.995        C   64 1.007    H  137 0.986    H  135 0.986    H  136 0.985
    67  C   3.985        C   51 1.476    C   68 1.355    H  138 0.967
    68  C   3.971        C   69 1.462    C   67 1.355    H  139 0.964
    69  C   3.987        C   68 1.462    C   70 1.252    C   76 1.021
    70  C   3.990        C   50 1.279    C   69 1.252    C   71 1.242
    71  C   3.953        C   72 1.456    C   70 1.242    C   74 1.032
    72  C   3.972        C   71 1.456    C   73 1.361    H  140 0.965
    73  C   3.973        C   49 1.458    C   72 1.361    H  141 0.967
    74  C   3.943        O  105 1.709    N   75 1.107    C   71 1.032
    75  N   3.559        C   76 1.121    C   74 1.107    C   77 0.966    O  106 0.143    O  105 0.139
    76  C   3.946        O  106 1.711    N   75 1.121    C   69 1.021
    77  C   3.952        C   78 0.984    H  142 0.966    N   75 0.966    H  143 0.965
    78  C   3.992        C   79 1.011    C   80 1.006    C   77 0.984    H  144 0.966
    79  C   3.996        C   78 1.011    H  146 0.987    H  147 0.986    H  145 0.985
    80  C   3.995        C   78 1.006    H  148 0.986    H  150 0.986    H  149 0.986
    81  C   3.990        C   82 1.435    C   21 1.421    H  151 0.966    C   84 0.107
    82  C   3.989        C   81 1.435    C   83 1.420    H  152 0.968    C   85 0.108
    83  C   3.985        C   82 1.420    C   84 1.396    C  108 1.012    C   21 0.106
    84  C   3.989        C   85 1.463    C   83 1.396    H  153 0.967    C   81 0.107
    85  C   3.989        C   84 1.463    C   21 1.392    H  154 0.968    C   82 0.108
    86  C   3.989        C   87 1.449    C   20 1.405    H  155 0.967    C   89 0.109
    87  C   3.989        C   86 1.449    C   88 1.408    H  156 0.968    C   90 0.108
    88  C   3.985        C   89 1.408    C   87 1.408    C  107 1.012    C   20 0.105
    89  C   3.990        C   90 1.448    C   88 1.408    H  157 0.967    C   86 0.109
    90  C   3.989        C   89 1.448    C   20 1.408    H  158 0.968    C   87 0.108
    91  C   3.989        C   92 1.443    C   22 1.414    H  159 0.968    C   94 0.108
    92  C   3.989        C   91 1.443    C   93 1.413    H  160 0.969    C   95 0.108
    93  C   3.985        C   92 1.413    C   94 1.404    C  111 1.012    C   22 0.106
    94  C   3.989        C   95 1.453    C   93 1.404    H  161 0.969    C   91 0.108
    95  C   3.989        C   94 1.453    C   22 1.400    H  162 0.967    C   92 0.108
    96  C   3.989        C   97 1.433    C   23 1.423    H  163 0.966    C   99 0.108
    97  C   3.989        C   96 1.433    C   98 1.423    H  164 0.968    C  100 0.108
    98  C   3.984        C   97 1.423    C   99 1.395    C  113 1.012    C   23 0.106
    99  C   3.989        C  100 1.463    C   98 1.395    H  165 0.968    C   96 0.108
   100  C   3.989        C   99 1.463    C   23 1.394    H  166 0.968    C   97 0.108
   101  O   2.023        C   60 1.709    N   61 0.137
   102  O   2.031        C   62 1.709    N   61 0.144
   103  O   2.077        C   48 1.816
   104  O   2.087        C   52 1.815
   105  O   2.027        C   74 1.709    N   75 0.139
   106  O   2.028        C   76 1.711    N   75 0.143
   107  C   3.996        C  109 1.015    C   88 1.012    H  167 0.973    H  168 0.959
   108  C   3.996        C   83 1.012    C  110 1.010    H  169 0.976    H  170 0.962
   109  C   3.996        C  107 1.015    H  171 0.988    H  172 0.987    H  173 0.985
   110  C   3.996        C  108 1.010    H  174 0.988    H  175 0.987    H  176 0.985
   111  C   3.996        C   93 1.012    C  112 1.002    H  177 0.974    H  178 0.973
   112  C   3.995        C  111 1.002    H  179 0.988    H  181 0.988    H  180 0.986
   113  C   3.996        C   98 1.012    C  114 1.007    H  183 0.976    H  182 0.965
   114  C   3.996        C  113 1.007    H  186 0.988    H  185 0.986    H  184 0.986
   115  H   0.997        C    3 0.964
   116  H   0.997        C    6 0.962
   117  H   0.998        C   12 0.962
   118  H   0.998        C   18 0.958
   119  H   0.996        C   28 0.967
   120  H   0.996        C   29 0.967
   121  H   0.996        C   33 0.967
   122  H   0.996        C   34 0.963
   123  H   0.991        C   41 0.949
   124  H   0.995        C   43 0.952
   125  H   0.997        C   53 0.968
   126  H   0.994        C   54 0.965
   127  H   0.993        C   58 0.964
   128  H   0.995        C   59 0.966
   129  H   0.995        C   63 0.967
   130  H   0.994        C   63 0.964
   131  H   0.998        C   64 0.967
   132  H   0.998        C   65 0.986
   133  H   0.999        C   65 0.987
   134  H   0.999        C   65 0.986
   135  H   0.998        C   66 0.986
   136  H   0.998        C   66 0.985
   137  H   0.999        C   66 0.986
   138  H   0.995        C   67 0.967
   139  H   0.994        C   68 0.964
   140  H   0.994        C   72 0.965
   141  H   0.997        C   73 0.967
   142  H   0.996        C   77 0.966
   143  H   0.994        C   77 0.965
   144  H   0.998        C   78 0.966
   145  H   0.998        C   79 0.985
   146  H   0.999        C   79 0.987
   147  H   0.999        C   79 0.986
   148  H   0.999        C   80 0.986
   149  H   0.998        C   80 0.986
   150  H   0.999        C   80 0.986
   151  H   0.999        C   81 0.966
   152  H   0.999        C   82 0.968
   153  H   0.998        C   84 0.967
   154  H   0.999        C   85 0.968
   155  H   0.999        C   86 0.967
   156  H   0.999        C   87 0.968
   157  H   0.998        C   89 0.967
   158  H   0.999        C   90 0.968
   159  H   0.999        C   91 0.968
   160  H   0.999        C   92 0.969
   161  H   0.999        C   94 0.969
   162  H   0.999        C   95 0.967
   163  H   0.999        C   96 0.966
   164  H   0.999        C   97 0.968
   165  H   0.998        C   99 0.968
   166  H   0.999        C  100 0.968
   167  H   0.998        C  107 0.973
   168  H   0.998        C  107 0.959
   169  H   0.998        C  108 0.976
   170  H   0.998        C  108 0.962
   171  H   0.999        C  109 0.988
   172  H   0.998        C  109 0.987
   173  H   0.999        C  109 0.985
   174  H   0.999        C  110 0.988
   175  H   0.998        C  110 0.987
   176  H   0.999        C  110 0.985
   177  H   0.998        C  111 0.974
   178  H   0.998        C  111 0.973
   179  H   0.999        C  112 0.988
   180  H   0.998        C  112 0.986
   181  H   0.999        C  112 0.988
   182  H   0.998        C  113 0.965
   183  H   0.998        C  113 0.976
   184  H   0.999        C  114 0.986
   185  H   0.998        C  114 0.986
   186  H   0.999        C  114 0.988

molecular dipole:
                 x           y           z       tot (Debye)
 q only:       -1.891      -0.513      -0.278
   full:       -2.031      -0.483      -0.298       5.360
molecular quadrupole (traceless):
                xx          xy          yy          xz          yz          zz
 q only:       50.745       1.619      59.410     -34.198      92.296    -110.156
  q+dip:       49.010      -2.605      52.078     -33.868     112.247    -101.088
   full:       58.535       1.224      47.033     -31.824     110.506    -105.568


           -------------------------------------------------
          | TOTAL ENERGY             -301.646021859283 Eh   |
          | GRADIENT NORM               0.105699555424 Eh/α |
          | HOMO-LUMO GAP               1.028992224505 eV   |
           -------------------------------------------------

------------------------------------------------------------------------
 * finished run on 2021/04/15 at 14:19:44.700     
------------------------------------------------------------------------
 total:
 * wall-time:     0 d,  0 h,  0 min,  2.666 sec
 *  cpu-time:     0 d,  0 h,  0 min,  2.444 sec
 * ratio c/w:     0.917 speedup
 SCF:
 * wall-time:     0 d,  0 h,  0 min,  1.971 sec
 *  cpu-time:     0 d,  0 h,  0 min,  1.917 sec
 * ratio c/w:     0.973 speedup

