      -----------------------------------------------------------      
     |                   =====================                   |     
     |                           x T B                           |     
     |                   =====================                   |     
     |                         S. Grimme                         |     
     |          Mulliken Center for Theoretical Chemistry        |     
     |                    University of Bonn                     |     
     |                Version 6.2 RC2 (SAW190805)                |     
      -----------------------------------------------------------      

   This program is distributed in the hope that it will be useful,
   but WITHOUT ANY WARRANTY; without even the implied warranty of
   MERCHANTABILITY or FITNESS FOR A PARTICULAR PURPOSE.
   
   FOR NON-COMMERCIAL, ACADEMIA USE ONLY.
   
   Cite this work as:
   * S. Grimme, C. Bannwarth, P. Shushkov, J. Chem. Theory Comput., 2017,
     13, 1989-2009. DOI: 10.1021/acs.jctc.7b00118
   * C. Bannwarth, S. Ehlert and S. Grimme., J. Chem. Theory Comput., 2019,
     15, 1652-1671. DOI: 10.1021/acs.jctc.8b01176
   * P. Pracht, E. Caldeweyher, S. Ehlert, S. Grimme, ChemRxiv, 2019, preprint.
     DOI: 10.26434/chemrxiv.8326202.v1
   
   for DFT-D4:
   * E. Caldeweyher, C. Bannwarth and S. Grimme, J. Chem. Phys., 2017,
     147, 034112. DOI: 10.1063/1.4993215
   * E. Caldeweyher, S. Ehlert, A. Hansen, H. Neugebauer, S. Spicher,
     C. Bannwarth and S. Grimme, J. Chem. Phys., 2019, 150, 154122.
     DOI: 10.1063/1.5090222
   
   for sTDA-xTB:
   * S. Grimme and C. Bannwarth, J. Chem. Phys., 2016, 145, 054103.
     DOI: 10.1063/1.4959605
   
   in the mass-spec context:
   * V. Asgeirsson, C. Bauer and S. Grimme, Chem. Sci., 2017, 8, 4879.
     DOI: 10.1039/c7sc00601b
   
   for metadynamics refer to:
   * S. Grimme, J. Chem. Theory Comput., 2019, 155, 2847-2862
     DOI: 10.1021/acs.jctc.9b00143
   
   with help from (in alphabetical order)
   C. Bannwarth, F. Bohle, G. Brandenburg, E. Caldeweyher, M. Checinski,
   S. Dohm, S. Ehlert, S. Ehrlich, F. März, H. Neugebauer, J. Pisarek,
   P. Pracht, P. Shushkov, and S. Spicher.
   
 * started run on 2020/11/20 at 13:45:42.091     

           -------------------------------------------------
          |                Calculation Setup                |
           -------------------------------------------------

          program call               : /ihome/ghutchison/geoffh/xtb/xtb NIDT.xyz -sp
          hostname                   : smp-n106
          coordinate file            : NIDT.xyz
          omp threads                :                     1
          number of atoms            :                   170
          number of electrons        :                   498
          charge                     :                     0
          spin                       :                   0.0
          first test random number   :      0.44252585229217


########################################################################
# WARNING! Please study the warnings concerning your input carefully
#  - XTBPATH is not set, using XTBHOME instead
#  - the use of '-sp' is discouraged, please use '--sp' next time
########################################################################

           ------------------------------------------------- 
          |                 G F N 2 - x T B                 |
          | Geometry, Frequencies, Noncovalent interactions |
          |            JCTC 2019 parametrisation            |
           ------------------------------------------------- 
             KAB for C  - Si     :                1.0500
             KAB for H  - Pd     :                0.9500
             k(s)              :                1.8500
             k(p)              :                2.2300
             k(d)              :                2.2300
             k(f)              :                2.0000
             kEN (H0ij)        :               -2.0000
             D4 a1             :                0.5200
             D4 a2             :                5.0000
             D4 s6             :                1.0000
             D4 s8             :                2.7000
             D4 s9             :                5.0000
             alphaj            :                2.0000

  Z AO/shell   Hii/eV     exponent
  1     Wed Apr 25 08:07:45 CEST 2018   EN: 2.200 GM2: 0.406  GM3: 0.0800  RAES: 1.40
     1s    -10.707211    1.230000
  6     Wed Apr 25 08:07:45 CEST 2018   EN: 2.550 GM2: 0.538  GM3: 0.1500  RAES: 3.00
     2s    -13.970922    2.096432
     2p    -10.063292    1.800000
  7     Wed Apr 25 08:07:45 CEST 2018   EN: 3.040 GM2: 0.461  GM3:-0.0640  RAES: 1.90
     2s    -16.686243    2.339881
     2p    -12.523956    2.014332
  8     Wed Apr 25 08:07:45 CEST 2018   EN: 3.440 GM2: 0.452  GM3:-0.0517  RAES: 1.80
     2s    -20.229985    2.439742
     2p    -15.503117    2.137023
 16     Tue Apr 24 11:44:34 CEST 2018   EN: 2.580 GM2: 0.340  GM3:-0.0502  RAES: 3.10
     3s    -20.029654    1.981333
     3p    -11.377694    2.025643
     3d     -0.420282    1.702555

           ------------------------------------------------- 
          |        Self-Consistent Charge Iterations        |
           ------------------------------------------------- 

          ...................................................
          :                      SETUP                      :
          :.................................................:
          :  # basis functions                 500          :
          :  # atomic orbitals                 496          :
          :  # shells                          276          :
          :  # electrons                       498          :
          :  max. iterations                   250          :
          :  Hamiltonian                  GFN2-xTB          :
          :  restarted?                      false          :
          :  GBSA solvation                  false          :
          :  PC potential                    false          :
          :  electronic temp.          300.0000000     K    :
          :  accuracy                    1.0000000          :
          :  -> integral cutoff          0.2500000E+02      :
          :  -> integral neglect         0.1000000E-07      :
          :  -> SCF convergence          0.1000000E-05 Eh   :
          :  -> wf. convergence          0.1000000E-03 e    :
          :  Broyden damping             0.4000000          :
          ...................................................

 iter      E             dE          RMSdq      gap      omega  full diag
   1   -274.4102250 -0.274410E+03  0.427E+00    1.23       0.0  T
   2   -274.6612529 -0.251028E+00  0.238E+00    1.12       1.0  T
   3   -274.5967796  0.644733E-01  0.122E+00    1.08       1.0  T
   4   -274.6494664 -0.526868E-01  0.553E-01    0.99       1.0  T
   5   -274.7009210 -0.514546E-01  0.196E-01    0.96       1.0  T
   6   -274.7053863 -0.446530E-02  0.947E-02    0.98       1.0  T
   7   -274.7064320 -0.104566E-02  0.381E-02    0.99       1.0  T
   8   -274.7065659 -0.133964E-03  0.151E-02    0.98       1.0  T
   9   -274.7065782 -0.122369E-04  0.816E-03    0.99       1.0  T
  10   -274.7065852 -0.707277E-05  0.375E-03    0.99       2.0  T
  11   -274.7065865 -0.132168E-05  0.163E-03    0.99       4.7  T
  12   -274.7065869 -0.341028E-06  0.727E-04    0.98      10.5  T
  13   -274.7065869 -0.342000E-07  0.415E-04    0.99      18.5  T

   *** convergence criteria satisfied after 13 iterations ***

         #    Occupation            Energy/Eh            Energy/eV
      -------------------------------------------------------------
         1        2.0000           -0.7479019             -20.3514
       ...           ...                  ...                  ...
       243        2.0000           -0.3928572             -10.6902
       244        2.0000           -0.3913463             -10.6491
       245        2.0000           -0.3880319             -10.5589
       246        2.0000           -0.3848879             -10.4733
       247        2.0000           -0.3794702             -10.3259
       248        2.0000           -0.3747885             -10.1985
       249        2.0000           -0.3640097              -9.9052 (HOMO)
       250                         -0.3278108              -8.9202 (LUMO)
       251                         -0.3235740              -8.8049
       252                         -0.3188780              -8.6771
       253                         -0.3140496              -8.5457
       254                         -0.3090226              -8.4089
       ...                                ...                  ...
       496                          0.7128422              19.3974
      -------------------------------------------------------------
                  HL-Gap            0.0361989 Eh            0.9850 eV
             Fermi-level           -0.3459158 Eh           -9.4128 eV

 SCC (total)                   0 d,  0 h,  0 min,  1.660 sec
 SCC setup                      ...        0 min,  0.006 sec (  0.367%)
 Dispersion                     ...        0 min,  0.016 sec (  0.962%)
 integral evaluation            ...        0 min,  0.489 sec ( 29.427%)
 zeroth order Hamiltonian       ...        0 min,  0.003 sec (  0.172%)
 iterations                     ...        0 min,  0.727 sec ( 43.770%)
 molecular gradient             ...        0 min,  0.414 sec ( 24.925%)
 printout                       ...        0 min,  0.006 sec (  0.373%)

         :::::::::::::::::::::::::::::::::::::::::::::::::::::
         ::                     SUMMARY                     ::
         :::::::::::::::::::::::::::::::::::::::::::::::::::::
         :: total energy            -270.678769506026 Eh    ::
         :: gradient norm              0.088168770923 Eh/a0 ::
         :: HOMO-LUMO gap              0.985021432932 eV    ::
         ::.................................................::
         :: SCC energy              -274.706586921358 Eh    ::
         :: -> isotropic ES            0.178496931886 Eh    ::
         :: -> anisotropic ES          0.019873324055 Eh    ::
         :: -> anisotropic XC          0.120135556184 Eh    ::
         :: -> dispersion             -0.260869414247 Eh    ::
         :: repulsion energy           4.024143557114 Eh    ::
         :: add. restraining           0.000000000000 Eh    ::
         :::::::::::::::::::::::::::::::::::::::::::::::::::::

           -------------------------------------------------
          |                Property Printout                |
           -------------------------------------------------

    * Orbital Energies and Occupations

         #    Occupation            Energy/Eh            Energy/eV
      -------------------------------------------------------------
         1        2.0000           -0.7479019             -20.3514
       ...           ...                  ...                  ...
       237        2.0000           -0.4050796             -11.0228
       238        2.0000           -0.4035828             -10.9820
       239        2.0000           -0.4017764             -10.9329
       240        2.0000           -0.3988471             -10.8532
       241        2.0000           -0.3984710             -10.8429
       242        2.0000           -0.3981703             -10.8348
       243        2.0000           -0.3928572             -10.6902
       244        2.0000           -0.3913463             -10.6491
       245        2.0000           -0.3880319             -10.5589
       246        2.0000           -0.3848879             -10.4733
       247        2.0000           -0.3794702             -10.3259
       248        2.0000           -0.3747885             -10.1985
       249        2.0000           -0.3640097              -9.9052 (HOMO)
       250                         -0.3278108              -8.9202 (LUMO)
       251                         -0.3235740              -8.8049
       252                         -0.3188780              -8.6771
       253                         -0.3140496              -8.5457
       254                         -0.3090226              -8.4089
       255                         -0.2725339              -7.4160
       256                         -0.2661597              -7.2426
       257                         -0.2618073              -7.1241
       258                         -0.2576532              -7.0111
       259                         -0.2523774              -6.8675
       260                         -0.2502401              -6.8094
       ...                                ...                  ...
       496                          0.7128422              19.3974
      -------------------------------------------------------------
                  HL-Gap            0.0361989 Eh            0.9850 eV
             Fermi-level           -0.3459158 Eh           -9.4128 eV

     #   Z        covCN         q      C6AA      α(0)
     1   6 C      3.036     0.000    27.983     8.677
     2   6 C      3.025    -0.002    28.059     8.689
     3   6 C      2.902    -0.036    28.905     8.815
     4   6 C      3.019     0.001    27.974     8.676
     5   6 C      3.045     0.005    27.872     8.659
     6   6 C      2.903    -0.034    28.843     8.806
     7   6 C      2.999     0.012    27.737     8.639
     8   6 C      3.123     0.007    27.687     8.617
     9   6 C      3.945     0.020    20.176     6.383
    10  16 S      2.045    -0.129   146.451    20.368
    11   6 C      3.100     0.019    27.465     8.588
    12   6 C      2.977     0.019    27.587     8.616
    13   6 C      3.054     0.018    27.550     8.608
    14   6 C      3.161    -0.012    27.974     8.646
    15   6 C      3.930     0.015    20.265     6.398
    16  16 S      2.168    -0.052   143.189    20.140
    17   6 C      3.132     0.015    27.467     8.580
    18   6 C      3.121     0.008    27.653     8.612
    19   6 C      2.963     0.009    27.822     8.652
    20   6 C      3.025     0.021    27.504     8.602
    21   6 C      2.962     0.009    27.822     8.652
    22   6 C      2.966     0.010    27.795     8.648
    23   6 C      2.906    -0.012    28.309     8.724
    24   6 C      2.997    -0.026    28.642     8.779
    25   6 C      2.906    -0.014    28.367     8.733
    26   6 C      2.995    -0.032    28.793     8.802
    27   6 C      2.992     0.014    27.692     8.632
    28   6 C      3.079     0.004    27.854     8.652
    29   6 C      2.996    -0.012    28.295     8.726
    30   6 C      2.861     0.226    23.256     7.905
    31   6 C      3.004     0.011    27.749     8.641
    32   6 C      3.083     0.002    27.892     8.658
    33   6 C      3.001    -0.012    28.304     8.727
    34   6 C      2.866     0.225    23.273     7.908
    35   6 C      2.909    -0.027    28.669     8.780
    36   6 C      2.912    -0.010    28.271     8.719
    37   6 C      2.968    -0.023    28.587     8.770
    38   6 C      2.986     0.010    27.786     8.647
    39   6 C      2.967    -0.016    28.415     8.744
    40   6 C      2.912    -0.012    28.311     8.725
    41   6 C      2.906    -0.012    28.309     8.724
    42   6 C      2.763     0.270    22.446     7.759
    43   7 N      2.732    -0.107    23.339     7.175
    44   6 C      2.759     0.271    22.422     7.754
    45   6 C      3.749     0.001    20.618     6.476
    46   6 C      3.846    -0.008    20.689     6.470
    47   6 C      3.747    -0.099    22.457     6.759
    48   6 C      3.749    -0.106    22.591     6.779
    49   6 C      2.906    -0.012    28.322     8.726
    50   6 C      2.912    -0.013    28.331     8.728
    51   6 C      2.968    -0.017    28.436     8.747
    52   6 C      2.986     0.009    27.800     8.649
    53   6 C      2.967    -0.025    28.634     8.777
    54   6 C      2.912    -0.011    28.298     8.723
    55   6 C      2.907    -0.030    28.743     8.791
    56   6 C      2.760     0.271    22.425     7.755
    57   7 N      2.733    -0.108    23.361     7.178
    58   6 C      2.762     0.270    22.439     7.757
    59   6 C      3.750     0.001    20.623     6.477
    60   6 C      3.846    -0.009    20.697     6.471
    61   6 C      3.748    -0.098    22.439     6.757
    62   6 C      3.750    -0.106    22.587     6.778
    63   6 C      2.907    -0.053    29.312     8.878
    64   6 C      2.898    -0.047    29.158     8.854
    65   6 C      2.943     0.013    27.722     8.635
    66   6 C      2.894    -0.034    28.845     8.806
    67   6 C      2.891    -0.033    28.829     8.803
    68   6 C      2.912    -0.034    28.858     8.809
    69   6 C      2.913    -0.038    28.940     8.821
    70   6 C      2.959     0.013    27.729     8.637
    71   6 C      2.914    -0.036    28.886     8.813
    72   6 C      2.913    -0.035    28.870     8.811
    73   6 C      2.912    -0.035    28.881     8.812
    74   6 C      2.914    -0.036    28.904     8.816
    75   6 C      2.958     0.014    27.692     8.631
    76   6 C      2.914    -0.036    28.893     8.814
    77   6 C      2.912    -0.034    28.840     8.806
    78   6 C      2.911    -0.037    28.916     8.818
    79   6 C      2.915    -0.040    28.996     8.830
    80   6 C      2.956     0.012    27.756     8.641
    81   6 C      2.913    -0.037    28.923     8.819
    82   6 C      2.912    -0.034    28.848     8.807
    83   8 O      0.858    -0.400    21.686     6.244
    84   8 O      0.858    -0.392    21.516     6.219
    85   8 O      0.856    -0.346    20.622     6.088
    86   8 O      0.860    -0.349    20.689     6.098
    87   8 O      0.858    -0.398    21.649     6.238
    88   8 O      0.858    -0.397    21.623     6.235
    89   6 C      3.800    -0.054    21.548     6.609
    90   6 C      3.804    -0.054    21.536     6.607
    91   6 C      3.745    -0.094    22.362     6.746
    92   6 C      3.745    -0.093    22.342     6.743
    93   6 C      3.800    -0.054    21.537     6.608
    94   6 C      3.745    -0.094    22.360     6.745
    95   6 C      3.800    -0.054    21.541     6.608
    96   6 C      3.745    -0.096    22.407     6.752
    97   6 C      3.116    -0.048    29.022     8.824
    98   6 C      2.973     0.021    27.524     8.606
    99  16 S      2.260    -0.018   141.795    20.042
   100   6 C      3.033    -0.049    29.186     8.861
   101   6 C      2.976     0.020    27.564     8.612
   102  16 S      2.195     0.036   139.584    19.885
   103   1 H      0.924     0.040     2.443     2.444
   104   1 H      0.924     0.048     2.344     2.394
   105   1 H      0.924     0.076     2.022     2.223
   106   1 H      0.924     0.055     2.260     2.351
   107   1 H      0.925     0.051     2.312     2.378
   108   1 H      0.924     0.072     2.065     2.247
   109   1 H      0.924     0.075     2.032     2.229
   110   1 H      0.924     0.065     2.141     2.288
   111   1 H      0.924     0.065     2.145     2.291
   112   1 H      0.924     0.072     2.067     2.248
   113   1 H      0.923     0.044     2.399     2.422
   114   1 H      0.923     0.046     2.369     2.407
   115   1 H      0.923     0.025     2.660     2.550
   116   1 H      0.923     0.035     2.515     2.480
   117   1 H      0.923     0.038     2.481     2.463
   118   1 H      0.923     0.041     2.433     2.439
   119   1 H      0.923     0.038     2.480     2.463
   120   1 H      0.924     0.063     2.164     2.301
   121   1 H      0.924     0.073     2.052     2.240
   122   1 H      0.924     0.069     2.094     2.263
   123   1 H      0.924     0.043     2.404     2.425
   124   1 H      0.924     0.063     2.168     2.303
   125   1 H      0.924     0.073     2.053     2.241
   126   1 H      0.923     0.044     2.402     2.424
   127   1 H      0.923     0.047     2.364     2.404
   128   1 H      0.923     0.023     2.695     2.567
   129   1 H      0.923     0.035     2.515     2.480
   130   1 H      0.923     0.039     2.468     2.457
   131   1 H      0.923     0.040     2.445     2.445
   132   1 H      0.923     0.037     2.494     2.470
   133   1 H      0.924     0.048     2.347     2.396
   134   1 H      0.924     0.043     2.405     2.425
   135   1 H      0.924     0.038     2.476     2.461
   136   1 H      0.924     0.046     2.371     2.408
   137   1 H      0.924     0.029     2.598     2.521
   138   1 H      0.924     0.031     2.568     2.506
   139   1 H      0.924     0.033     2.549     2.497
   140   1 H      0.924     0.029     2.602     2.523
   141   1 H      0.924     0.024     2.668     2.554
   142   1 H      0.924     0.030     2.590     2.517
   143   1 H      0.924     0.037     2.485     2.465
   144   1 H      0.924     0.029     2.602     2.523
   145   1 H      0.924     0.025     2.659     2.550
   146   1 H      0.924     0.026     2.642     2.542
   147   1 H      0.924     0.041     2.435     2.440
   148   1 H      0.924     0.040     2.450     2.448
   149   1 H      0.923     0.038     2.471     2.458
   150   1 H      0.923     0.035     2.521     2.483
   151   1 H      0.923     0.036     2.505     2.475
   152   1 H      0.922     0.041     2.432     2.439
   153   1 H      0.923     0.035     2.514     2.480
   154   1 H      0.923     0.035     2.511     2.478
   155   1 H      0.923     0.033     2.542     2.493
   156   1 H      0.923     0.033     2.549     2.497
   157   1 H      0.923     0.038     2.480     2.463
   158   1 H      0.923     0.036     2.506     2.475
   159   1 H      0.923     0.032     2.558     2.501
   160   1 H      0.923     0.039     2.456     2.451
   161   1 H      0.923     0.024     2.668     2.554
   162   1 H      0.923     0.032     2.553     2.499
   163   1 H      0.923     0.052     2.294     2.369
   164   1 H      0.922     0.040     2.454     2.450
   165   1 H      0.923     0.039     2.462     2.454
   166   1 H      0.923     0.036     2.509     2.477
   167   1 H      0.923     0.033     2.547     2.496
   168   1 H      0.923     0.036     2.501     2.473
   169   1 H      0.925     0.053     2.288     2.365
   170   1 H      0.924     0.049     2.338     2.391

 Mol. C6AA /au·bohr⁶  :     426594.566651
 Mol. C8AA /au·bohr⁸  :   11277852.993559
 Mol. α(0) /au        :       1038.915256


Wiberg/Mayer (AO) data.
largest (>0.10) Wiberg bond orders for each atom
          total WBO             WBO to atom ...
     1  C   3.958        C    6 1.366    C    2 1.296    C    7 1.097
     2  C   3.977        C    3 1.467    C    1 1.296    C    9 0.968
     3  C   3.971        C    2 1.467    C    4 1.343    H  103 0.964
     4  C   3.965        C    3 1.343    C    5 1.297    C   13 1.136
     5  C   3.966        C    6 1.452    C    4 1.297    C   15 0.971
     6  C   3.971        C    5 1.452    C    1 1.366    H  104 0.962
     7  C   3.922        C    8 1.556    C    1 1.097    S   10 1.027
     8  C   3.950        C    7 1.556    C   64 1.177    C    9 0.918
     9  C   3.979        C   19 0.990    C    2 0.968    C   20 0.920    C    8 0.918
    10  S   2.351        C    7 1.027    C   11 1.017
    11  C   3.947        C   12 1.444    C   97 1.278    S   10 1.017
    12  C   3.932        C   11 1.444    S   99 1.152    C   63 1.089
    13  C   3.905        C   14 1.447    C    4 1.136    S   16 1.119
    14  C   3.960        C   13 1.447    C   18 1.279    C   15 0.972
    15  C   3.984        C   14 0.972    C    5 0.971    C   21 0.959    C   22 0.940
    16  S   2.511        C   13 1.119    C   17 1.089
    17  C   3.930        C  100 1.360    C   18 1.298    S   16 1.089
    18  C   3.945        C   17 1.298    C   14 1.279    S  102 1.154
    19  C   3.983        C   68 1.411    C   72 1.398    C    9 0.990    C   70 0.106
    20  C   3.951        C   63 1.719    C   67 1.060    C    9 0.920
    21  C   3.981        C   73 1.418    C   77 1.398    C   15 0.959    C   75 0.106
    22  C   3.979        C   82 1.411    C   78 1.405    C   15 0.940    C   80 0.105
    23  C   3.949        C   24 1.668    C   98 1.133    H  105 0.950
    24  C   3.973        C   23 1.668    C   27 1.087    C   30 0.994
    25  C   3.948        C   26 1.572    C  101 1.245    H  106 0.950
    26  C   3.947        C   25 1.572    C   31 1.103    C   34 1.029
    27  C   3.979        C   35 1.459    C   28 1.215    C   24 1.087
    28  C   3.983        C   38 1.278    C   29 1.251    C   27 1.215
    29  C   3.980        C   41 1.473    C   28 1.251    C   30 1.004
    30  C   3.919        O   85 1.812    C   29 1.004    C   24 0.994
    31  C   3.978        C   55 1.453    C   32 1.206    C   26 1.103
    32  C   3.972        C   52 1.284    C   33 1.254    C   31 1.206
    33  C   3.978        C   49 1.474    C   32 1.254    C   34 1.001
    34  C   3.922        O   86 1.775    C   26 1.029    C   33 1.001
    35  C   3.987        C   27 1.459    C   36 1.362    H  107 0.963
    36  C   3.971        C   37 1.454    C   35 1.362    H  108 0.962
    37  C   3.956        C   36 1.454    C   38 1.243    C   42 1.035
    38  C   3.990        C   28 1.278    C   39 1.253    C   37 1.243
    39  C   3.987        C   40 1.462    C   38 1.253    C   44 1.020
    40  C   3.971        C   39 1.462    C   41 1.356    H  109 0.964
    41  C   3.985        C   29 1.473    C   40 1.356    H  110 0.966
    42  C   3.944        O   83 1.701    N   43 1.113    C   37 1.035
    43  N   3.561        C   44 1.117    C   42 1.113    C   45 0.967    O   84 0.143    O   83 0.138
    44  C   3.946        O   84 1.715    N   43 1.117    C   39 1.020
    45  C   3.951        C   46 0.983    N   43 0.967    H  112 0.965    H  111 0.965
    46  C   3.992        C   47 1.011    C   48 1.006    C   45 0.983    H  113 0.967
    47  C   3.996        C   46 1.011    H  115 0.986    H  116 0.986    H  114 0.985
    48  C   3.995        C   46 1.006    H  117 0.986    H  119 0.986    H  118 0.985
    49  C   3.985        C   33 1.474    C   50 1.356    H  120 0.967
    50  C   3.971        C   51 1.462    C   49 1.356    H  121 0.964
    51  C   3.987        C   50 1.462    C   52 1.252    C   58 1.022
    52  C   3.990        C   32 1.284    C   51 1.252    C   53 1.238
    53  C   3.951        C   54 1.454    C   52 1.238    C   56 1.036
    54  C   3.971        C   53 1.454    C   55 1.362    H  122 0.965
    55  C   3.968        C   31 1.453    C   54 1.362    H  123 0.967
    56  C   3.942        O   87 1.708    N   57 1.103    C   53 1.036
    57  N   3.559        C   58 1.123    C   56 1.103    C   59 0.968    O   88 0.144    O   87 0.138
    58  C   3.947        O   88 1.710    N   57 1.123    C   51 1.022
    59  C   3.952        C   60 0.982    N   57 0.968    H  124 0.966    H  125 0.965
    60  C   3.992        C   61 1.010    C   62 1.007    C   59 0.982    H  126 0.967
    61  C   3.996        C   60 1.010    H  128 0.986    H  129 0.986    H  127 0.985
    62  C   3.995        C   60 1.007    H  130 0.986    H  132 0.986    H  131 0.986
    63  C   3.965        C   20 1.719    C   12 1.089    H  133 0.932
    64  C   3.985        C   65 1.657    C    8 1.177    H  134 0.953
    65  C   3.963        C   64 1.657    C   66 1.124    C   90 1.012
    66  C   3.983        C   67 1.783    C   65 1.124    H  135 0.964
    67  C   3.980        C   66 1.783    C   20 1.060    H  136 0.951
    68  C   3.988        C   69 1.441    C   19 1.411    H  137 0.968    C   71 0.109
    69  C   3.989        C   68 1.441    C   70 1.415    H  138 0.968    C   72 0.107
    70  C   3.984        C   69 1.415    C   71 1.402    C   89 1.012    C   19 0.106
    71  C   3.990        C   72 1.456    C   70 1.402    H  139 0.968    C   68 0.109
    72  C   3.989        C   71 1.456    C   19 1.398    H  140 0.967    C   69 0.107
    73  C   3.989        C   74 1.438    C   21 1.418    H  141 0.966    C   76 0.108
    74  C   3.989        C   73 1.438    C   75 1.418    H  142 0.969    C   77 0.108
    75  C   3.985        C   74 1.418    C   76 1.399    C   93 1.013    C   21 0.106
    76  C   3.989        C   77 1.458    C   75 1.399    H  143 0.969    C   73 0.108
    77  C   3.989        C   76 1.458    C   21 1.398    H  144 0.967    C   74 0.108
    78  C   3.990        C   79 1.453    C   22 1.405    H  145 0.967    C   81 0.106
    79  C   3.989        C   78 1.453    C   80 1.403    H  146 0.969    C   82 0.110
    80  C   3.983        C   81 1.413    C   79 1.403    C   95 1.011    C   22 0.105
    81  C   3.988        C   82 1.442    C   80 1.413    H  147 0.965    C   78 0.106
    82  C   3.988        C   81 1.442    C   22 1.411    H  148 0.965    C   79 0.110
    83  O   2.021        C   42 1.701    N   43 0.138
    84  O   2.034        C   44 1.715    N   43 0.143
    85  O   2.077        C   30 1.812
    86  O   2.095        C   34 1.775
    87  O   2.025        C   56 1.708    N   57 0.138
    88  O   2.027        C   58 1.710    N   57 0.144
    89  C   3.996        C   70 1.012    C   91 1.006    H  150 0.976    H  149 0.966
    90  C   3.995        C   65 1.012    C   92 1.004    H  151 0.975    H  152 0.962
    91  C   3.996        C   89 1.006    H  155 0.989    H  154 0.986    H  153 0.986
    92  C   3.990        C   90 1.004    H  156 0.988    H  157 0.986    H  158 0.986
    93  C   3.996        C   75 1.013    C   94 1.003    H  159 0.975    H  160 0.970
    94  C   3.994        C   93 1.003    H  161 0.989    H  162 0.986    H  163 0.981
    95  C   3.996        C   96 1.021    C   80 1.011    H  165 0.966    H  164 0.960
    96  C   3.996        C   95 1.021    H  168 0.987    H  167 0.986    H  166 0.985
    97  C   3.978        C   98 1.514    C   11 1.278    H  169 0.960
    98  C   3.942        C   97 1.514    C   23 1.133    S   99 1.113
    99  S   2.603        C   12 1.152    C   98 1.113
   100  C   3.957        C  101 1.408    C   17 1.360    H  170 0.962
   101  C   3.934        C  100 1.408    C   25 1.245    S  102 1.105
   102  S   2.649        C   18 1.154    C  101 1.105
   103  H   0.997        C    3 0.964
   104  H   0.996        C    6 0.962
   105  H   0.992        C   23 0.950
   106  H   0.996        C   25 0.950
   107  H   0.996        C   35 0.963
   108  H   0.994        C   36 0.962
   109  H   0.993        C   40 0.964
   110  H   0.994        C   41 0.966
   111  H   0.995        C   45 0.965
   112  H   0.994        C   45 0.965
   113  H   0.998        C   46 0.967
   114  H   0.998        C   47 0.985
   115  H   0.999        C   47 0.986
   116  H   0.999        C   47 0.986
   117  H   0.999        C   48 0.986
   118  H   0.998        C   48 0.985
   119  H   0.999        C   48 0.986
   120  H   0.995        C   49 0.967
   121  H   0.994        C   50 0.964
   122  H   0.994        C   54 0.965
   123  H   0.997        C   55 0.967
   124  H   0.995        C   59 0.966
   125  H   0.994        C   59 0.965
   126  H   0.998        C   60 0.967
   127  H   0.998        C   61 0.985
   128  H   0.999        C   61 0.986
   129  H   0.999        C   61 0.986
   130  H   0.999        C   62 0.986
   131  H   0.998        C   62 0.986
   132  H   0.999        C   62 0.986
   133  H   0.996        C   63 0.932
   134  H   0.997        C   64 0.953
   135  H   0.997        C   66 0.964
   136  H   0.996        C   67 0.951
   137  H   0.999        C   68 0.968
   138  H   0.998        C   69 0.968
   139  H   0.998        C   71 0.968
   140  H   0.999        C   72 0.967
   141  H   0.999        C   73 0.966
   142  H   0.998        C   74 0.969
   143  H   0.998        C   76 0.969
   144  H   0.999        C   77 0.967
   145  H   0.999        C   78 0.967
   146  H   0.999        C   79 0.969
   147  H   0.998        C   81 0.965
   148  H   0.998        C   82 0.965
   149  H   0.998        C   89 0.966
   150  H   0.998        C   89 0.976
   151  H   0.998        C   90 0.975
   152  H   0.993        C   90 0.962
   153  H   0.999        C   91 0.986
   154  H   0.998        C   91 0.986
   155  H   0.999        C   91 0.989
   156  H   0.999        C   92 0.988
   157  H   0.998        C   92 0.986
   158  H   0.999        C   92 0.986
   159  H   0.998        C   93 0.975
   160  H   0.998        C   93 0.970
   161  H   0.999        C   94 0.989
   162  H   0.998        C   94 0.986
   163  H   0.997        C   94 0.981
   164  H   0.998        C   95 0.960
   165  H   0.998        C   95 0.966
   166  H   0.999        C   96 0.985
   167  H   0.999        C   96 0.986
   168  H   0.999        C   96 0.987
   169  H   0.996        C   97 0.960
   170  H   0.997        C  100 0.962

molecular dipole:
                 x           y           z       tot (Debye)
 q only:        0.479      -3.153      -1.154
   full:        0.311      -3.491      -1.198       9.415
molecular quadrupole (traceless):
                xx          xy          yy          xz          yz          zz
 q only:      -56.316      -6.309       8.777      -4.858       0.554      47.539
  q+dip:      -60.180      -5.734      10.056     -14.398       0.447      50.123
   full:      -61.977      -6.567       0.948     -10.528       5.769      61.029


           -------------------------------------------------
          | TOTAL ENERGY             -270.678769506026 Eh   |
          | GRADIENT NORM               0.088168770923 Eh/α |
          | HOMO-LUMO GAP               0.985021432932 eV   |
           -------------------------------------------------

------------------------------------------------------------------------
 * finished run on 2020/11/20 at 13:45:44.280     
------------------------------------------------------------------------
 total:
 * wall-time:     0 d,  0 h,  0 min,  2.189 sec
 *  cpu-time:     0 d,  0 h,  0 min,  2.184 sec
 * ratio c/w:     0.998 speedup
 SCF:
 * wall-time:     0 d,  0 h,  0 min,  1.662 sec
 *  cpu-time:     0 d,  0 h,  0 min,  1.661 sec
 * ratio c/w:     1.000 speedup

