      -----------------------------------------------------------      
     |                   =====================                   |     
     |                           x T B                           |     
     |                   =====================                   |     
     |                         S. Grimme                         |     
     |          Mulliken Center for Theoretical Chemistry        |     
     |                    University of Bonn                     |     
     |                Version 6.2 RC2 (SAW190805)                |     
      -----------------------------------------------------------      

   This program is distributed in the hope that it will be useful,
   but WITHOUT ANY WARRANTY; without even the implied warranty of
   MERCHANTABILITY or FITNESS FOR A PARTICULAR PURPOSE.
   
   FOR NON-COMMERCIAL, ACADEMIA USE ONLY.
   
   Cite this work as:
   * S. Grimme, C. Bannwarth, P. Shushkov, J. Chem. Theory Comput., 2017,
     13, 1989-2009. DOI: 10.1021/acs.jctc.7b00118
   * C. Bannwarth, S. Ehlert and S. Grimme., J. Chem. Theory Comput., 2019,
     15, 1652-1671. DOI: 10.1021/acs.jctc.8b01176
   * P. Pracht, E. Caldeweyher, S. Ehlert, S. Grimme, ChemRxiv, 2019, preprint.
     DOI: 10.26434/chemrxiv.8326202.v1
   
   for DFT-D4:
   * E. Caldeweyher, C. Bannwarth and S. Grimme, J. Chem. Phys., 2017,
     147, 034112. DOI: 10.1063/1.4993215
   * E. Caldeweyher, S. Ehlert, A. Hansen, H. Neugebauer, S. Spicher,
     C. Bannwarth and S. Grimme, J. Chem. Phys., 2019, 150, 154122.
     DOI: 10.1063/1.5090222
   
   for sTDA-xTB:
   * S. Grimme and C. Bannwarth, J. Chem. Phys., 2016, 145, 054103.
     DOI: 10.1063/1.4959605
   
   in the mass-spec context:
   * V. Asgeirsson, C. Bauer and S. Grimme, Chem. Sci., 2017, 8, 4879.
     DOI: 10.1039/c7sc00601b
   
   for metadynamics refer to:
   * S. Grimme, J. Chem. Theory Comput., 2019, 155, 2847-2862
     DOI: 10.1021/acs.jctc.9b00143
   
   with help from (in alphabetical order)
   C. Bannwarth, F. Bohle, G. Brandenburg, E. Caldeweyher, M. Checinski,
   S. Dohm, S. Ehlert, S. Ehrlich, F. März, H. Neugebauer, J. Pisarek,
   P. Pracht, P. Shushkov, and S. Spicher.
   
 * started run on 2021/04/15 at 14:19:44.716     

           -------------------------------------------------
          |                Calculation Setup                |
           -------------------------------------------------

          program call               : /ihome/ghutchison/geoffh/xtb/xtb NIDT.xyz -sp
          hostname                   : smp-n27
          coordinate file            : NIDT.xyz
          omp threads                :                     1
          number of atoms            :                   170
          number of electrons        :                   498
          charge                     :                     0
          spin                       :                   0.0
          first test random number   :      0.99376970411764


########################################################################
# WARNING! Please study the warnings concerning your input carefully
#  - XTBPATH is not set, using XTBHOME instead
#  - the use of '-sp' is discouraged, please use '--sp' next time
########################################################################

           ------------------------------------------------- 
          |                 G F N 2 - x T B                 |
          | Geometry, Frequencies, Noncovalent interactions |
          |            JCTC 2019 parametrisation            |
           ------------------------------------------------- 
             KAB for C  - Si     :                1.0500
             KAB for H  - Pd     :                0.9500
             k(s)              :                1.8500
             k(p)              :                2.2300
             k(d)              :                2.2300
             k(f)              :                2.0000
             kEN (H0ij)        :               -2.0000
             D4 a1             :                0.5200
             D4 a2             :                5.0000
             D4 s6             :                1.0000
             D4 s8             :                2.7000
             D4 s9             :                5.0000
             alphaj            :                2.0000

  Z AO/shell   Hii/eV     exponent
  1     Wed Apr 25 08:07:45 CEST 2018   EN: 2.200 GM2: 0.406  GM3: 0.0800  RAES: 1.40
     1s    -10.707211    1.230000
  6     Wed Apr 25 08:07:45 CEST 2018   EN: 2.550 GM2: 0.538  GM3: 0.1500  RAES: 3.00
     2s    -13.970922    2.096432
     2p    -10.063292    1.800000
  7     Wed Apr 25 08:07:45 CEST 2018   EN: 3.040 GM2: 0.461  GM3:-0.0640  RAES: 1.90
     2s    -16.686243    2.339881
     2p    -12.523956    2.014332
  8     Wed Apr 25 08:07:45 CEST 2018   EN: 3.440 GM2: 0.452  GM3:-0.0517  RAES: 1.80
     2s    -20.229985    2.439742
     2p    -15.503117    2.137023
 16     Tue Apr 24 11:44:34 CEST 2018   EN: 2.580 GM2: 0.340  GM3:-0.0502  RAES: 3.10
     3s    -20.029654    1.981333
     3p    -11.377694    2.025643
     3d     -0.420282    1.702555

           ------------------------------------------------- 
          |        Self-Consistent Charge Iterations        |
           ------------------------------------------------- 

          ...................................................
          :                      SETUP                      :
          :.................................................:
          :  # basis functions                 500          :
          :  # atomic orbitals                 496          :
          :  # shells                          276          :
          :  # electrons                       498          :
          :  max. iterations                   250          :
          :  Hamiltonian                  GFN2-xTB          :
          :  restarted?                      false          :
          :  GBSA solvation                  false          :
          :  PC potential                    false          :
          :  electronic temp.          300.0000000     K    :
          :  accuracy                    1.0000000          :
          :  -> integral cutoff          0.2500000E+02      :
          :  -> integral neglect         0.1000000E-07      :
          :  -> SCF convergence          0.1000000E-05 Eh   :
          :  -> wf. convergence          0.1000000E-03 e    :
          :  Broyden damping             0.4000000          :
          ...................................................

 iter      E             dE          RMSdq      gap      omega  full diag
   1   -274.5230704 -0.274523E+03  0.425E+00    1.28       0.0  T
   2   -274.7757235 -0.252653E+00  0.237E+00    1.21       1.0  T
   3   -274.7382299  0.374936E-01  0.114E+00    1.23       1.0  T
   4   -274.7899681 -0.517382E-01  0.377E-01    1.19       1.0  T
   5   -274.8127031 -0.227350E-01  0.152E-01    1.21       1.0  T
   6   -274.8156973 -0.299419E-02  0.578E-02    1.21       1.0  T
   7   -274.8158131 -0.115791E-03  0.336E-02    1.21       1.0  T
   8   -274.8159799 -0.166799E-03  0.136E-02    1.21       1.0  T
   9   -274.8160015 -0.216399E-04  0.570E-03    1.21       1.3  T
  10   -274.8160038 -0.224095E-05  0.297E-03    1.21       2.6  T
  11   -274.8160046 -0.822663E-06  0.103E-03    1.21       7.4  T
  12   -274.8160047 -0.814963E-07  0.519E-04    1.21      14.8  T
  13   -274.8160047 -0.144297E-07  0.270E-04    1.21      28.4  T

   *** convergence criteria satisfied after 13 iterations ***

         #    Occupation            Energy/Eh            Energy/eV
      -------------------------------------------------------------
         1        2.0000           -0.7461637             -20.3041
       ...           ...                  ...                  ...
       243        2.0000           -0.3954982             -10.7621
       244        2.0000           -0.3944637             -10.7339
       245        2.0000           -0.3924647             -10.6795
       246        2.0000           -0.3910864             -10.6420
       247        2.0000           -0.3890288             -10.5860
       248        2.0000           -0.3855560             -10.4915
       249        2.0000           -0.3706452             -10.0858 (HOMO)
       250                         -0.3260586              -8.8725 (LUMO)
       251                         -0.3255250              -8.8580
       252                         -0.3212987              -8.7430
       253                         -0.3145831              -8.5602
       254                         -0.2846567              -7.7459
       ...                                ...                  ...
       496                          0.7123338              19.3836
      -------------------------------------------------------------
                  HL-Gap            0.0445866 Eh            1.2133 eV
             Fermi-level           -0.3485647 Eh           -9.4849 eV

 SCC (total)                   0 d,  0 h,  0 min,  1.470 sec
 SCC setup                      ...        0 min,  0.006 sec (  0.377%)
 Dispersion                     ...        0 min,  0.013 sec (  0.885%)
 integral evaluation            ...        0 min,  0.425 sec ( 28.938%)
 zeroth order Hamiltonian       ...        0 min,  0.002 sec (  0.154%)
 iterations                     ...        0 min,  0.646 sec ( 43.965%)
 molecular gradient             ...        0 min,  0.372 sec ( 25.286%)
 printout                       ...        0 min,  0.006 sec (  0.392%)

         :::::::::::::::::::::::::::::::::::::::::::::::::::::
         ::                     SUMMARY                     ::
         :::::::::::::::::::::::::::::::::::::::::::::::::::::
         :: total energy            -270.786503248256 Eh    ::
         :: gradient norm              0.086382897202 Eh/a0 ::
         :: HOMO-LUMO gap              1.213262364403 eV    ::
         ::.................................................::
         :: SCC energy              -274.816004686651 Eh    ::
         :: -> isotropic ES            0.178743914455 Eh    ::
         :: -> anisotropic ES          0.020749981783 Eh    ::
         :: -> anisotropic XC          0.118464268719 Eh    ::
         :: -> dispersion             -0.250749211616 Eh    ::
         :: repulsion energy           4.027824537321 Eh    ::
         :: add. restraining           0.000000000000 Eh    ::
         :::::::::::::::::::::::::::::::::::::::::::::::::::::

           -------------------------------------------------
          |                Property Printout                |
           -------------------------------------------------

    * Orbital Energies and Occupations

         #    Occupation            Energy/Eh            Energy/eV
      -------------------------------------------------------------
         1        2.0000           -0.7461637             -20.3041
       ...           ...                  ...                  ...
       237        2.0000           -0.4065170             -11.0619
       238        2.0000           -0.4058530             -11.0438
       239        2.0000           -0.4035125             -10.9801
       240        2.0000           -0.4013415             -10.9211
       241        2.0000           -0.4009781             -10.9112
       242        2.0000           -0.3989181             -10.8551
       243        2.0000           -0.3954982             -10.7621
       244        2.0000           -0.3944637             -10.7339
       245        2.0000           -0.3924647             -10.6795
       246        2.0000           -0.3910864             -10.6420
       247        2.0000           -0.3890288             -10.5860
       248        2.0000           -0.3855560             -10.4915
       249        2.0000           -0.3706452             -10.0858 (HOMO)
       250                         -0.3260586              -8.8725 (LUMO)
       251                         -0.3255250              -8.8580
       252                         -0.3212987              -8.7430
       253                         -0.3145831              -8.5602
       254                         -0.2846567              -7.7459
       255                         -0.2673572              -7.2752
       256                         -0.2605218              -7.0892
       257                         -0.2598720              -7.0715
       258                         -0.2541859              -6.9168
       259                         -0.2493919              -6.7863
       260                         -0.2476495              -6.7389
       ...                                ...                  ...
       496                          0.7123338              19.3836
      -------------------------------------------------------------
                  HL-Gap            0.0445866 Eh            1.2133 eV
             Fermi-level           -0.3485647 Eh           -9.4849 eV

     #   Z        covCN         q      C6AA      α(0)
     1   6 C      3.013     0.001    27.975     8.676
     2   6 C      3.044     0.004    27.897     8.663
     3   6 C      2.902    -0.033    28.824     8.803
     4   6 C      3.017     0.003    27.936     8.670
     5   6 C      3.041     0.004    27.892     8.662
     6   6 C      2.901    -0.035    28.859     8.808
     7   6 C      3.059     0.017    27.563     8.610
     8   6 C      3.147    -0.014    28.085     8.670
     9   6 C      3.929     0.015    20.263     6.397
    10  16 S      2.171    -0.042   142.793    20.112
    11   6 C      3.154     0.013    27.429     8.564
    12   6 C      3.116     0.016    27.492     8.588
    13   6 C      3.055     0.018    27.546     8.607
    14   6 C      3.156    -0.012    28.002     8.653
    15   6 C      3.929     0.015    20.264     6.397
    16  16 S      2.168    -0.047   143.000    20.127
    17   6 C      3.136     0.015    27.445     8.575
    18   6 C      3.116     0.008    27.675     8.617
    19   6 C      2.962     0.010    27.803     8.649
    20   6 C      2.963     0.010    27.802     8.649
    21   6 C      2.962     0.009    27.814     8.650
    22   6 C      2.968     0.011    27.767     8.643
    23   6 C      2.924    -0.016    28.404     8.740
    24   6 C      2.993    -0.031    28.758     8.797
    25   6 C      2.906    -0.014    28.370     8.734
    26   6 C      2.995    -0.032    28.779     8.800
    27   6 C      2.991     0.014    27.691     8.632
    28   6 C      3.082     0.002    27.882     8.656
    29   6 C      2.998    -0.012    28.297     8.726
    30   6 C      2.870     0.224    23.301     7.913
    31   6 C      3.004     0.011    27.756     8.642
    32   6 C      3.080     0.002    27.892     8.658
    33   6 C      2.999    -0.012    28.311     8.728
    34   6 C      2.864     0.225    23.275     7.908
    35   6 C      2.907    -0.029    28.712     8.786
    36   6 C      2.911    -0.012    28.305     8.724
    37   6 C      2.965    -0.024    28.598     8.772
    38   6 C      2.986     0.010    27.789     8.647
    39   6 C      2.968    -0.017    28.432     8.746
    40   6 C      2.914    -0.012    28.321     8.727
    41   6 C      2.906    -0.012    28.316     8.725
    42   6 C      2.759     0.269    22.449     7.759
    43   7 N      2.732    -0.108    23.354     7.177
    44   6 C      2.761     0.271    22.426     7.755
    45   6 C      3.749     0.002    20.607     6.474
    46   6 C      3.846    -0.008    20.693     6.471
    47   6 C      3.748    -0.099    22.455     6.759
    48   6 C      3.750    -0.106    22.590     6.778
    49   6 C      2.906    -0.012    28.322     8.726
    50   6 C      2.911    -0.013    28.329     8.728
    51   6 C      2.966    -0.017    28.434     8.747
    52   6 C      2.985     0.009    27.798     8.649
    53   6 C      2.967    -0.025    28.632     8.777
    54   6 C      2.912    -0.011    28.299     8.723
    55   6 C      2.908    -0.030    28.739     8.790
    56   6 C      2.761     0.271    22.428     7.755
    57   7 N      2.733    -0.106    23.331     7.174
    58   6 C      2.761     0.270    22.444     7.758
    59   6 C      3.750     0.001    20.618     6.476
    60   6 C      3.846    -0.008    20.694     6.471
    61   6 C      3.747    -0.098    22.448     6.758
    62   6 C      3.750    -0.106    22.587     6.778
    63   6 C      2.914    -0.037    28.916     8.818
    64   6 C      2.915    -0.036    28.904     8.816
    65   6 C      2.959     0.013    27.716     8.635
    66   6 C      2.914    -0.037    28.910     8.817
    67   6 C      2.913    -0.033    28.825     8.804
    68   6 C      2.913    -0.033    28.824     8.804
    69   6 C      2.915    -0.039    28.972     8.826
    70   6 C      2.956     0.012    27.737     8.638
    71   6 C      2.914    -0.037    28.927     8.819
    72   6 C      2.912    -0.036    28.898     8.815
    73   6 C      2.912    -0.033    28.833     8.805
    74   6 C      2.914    -0.035    28.883     8.813
    75   6 C      2.958     0.014    27.705     8.633
    76   6 C      2.913    -0.035    28.878     8.812
    77   6 C      2.912    -0.035    28.862     8.809
    78   6 C      2.910    -0.036    28.899     8.815
    79   6 C      2.916    -0.040    29.001     8.831
    80   6 C      2.956     0.012    27.747     8.640
    81   6 C      2.913    -0.037    28.931     8.820
    82   6 C      2.913    -0.035    28.872     8.811
    83   8 O      0.858    -0.396    21.610     6.233
    84   8 O      0.858    -0.395    21.574     6.227
    85   8 O      0.856    -0.354    20.780     6.112
    86   8 O      0.859    -0.350    20.701     6.100
    87   8 O      0.858    -0.399    21.655     6.239
    88   8 O      0.858    -0.396    21.600     6.231
    89   6 C      3.800    -0.054    21.549     6.609
    90   6 C      3.800    -0.054    21.549     6.609
    91   6 C      3.745    -0.096    22.396     6.751
    92   6 C      3.746    -0.093    22.353     6.744
    93   6 C      3.800    -0.054    21.550     6.609
    94   6 C      3.745    -0.094    22.358     6.745
    95   6 C      3.800    -0.054    21.545     6.609
    96   6 C      3.745    -0.096    22.407     6.752
    97   6 C      3.029    -0.047    29.143     8.855
    98   6 C      2.979     0.024    27.474     8.598
    99  16 S      2.242    -0.023   142.002    20.056
   100   6 C      3.035    -0.049    29.180     8.860
   101   6 C      2.977     0.020    27.547     8.609
   102  16 S      2.197     0.033   139.710    19.894
   103   1 H      0.924     0.043     2.404     2.425
   104   1 H      0.924     0.044     2.391     2.418
   105   1 H      0.923     0.081     1.974     2.197
   106   1 H      0.924     0.055     2.256     2.349
   107   1 H      0.924     0.048     2.346     2.395
   108   1 H      0.924     0.069     2.094     2.263
   109   1 H      0.924     0.074     2.038     2.232
   110   1 H      0.924     0.065     2.145     2.290
   111   1 H      0.924     0.061     2.187     2.312
   112   1 H      0.924     0.072     2.060     2.244
   113   1 H      0.923     0.046     2.376     2.410
   114   1 H      0.923     0.047     2.361     2.403
   115   1 H      0.923     0.026     2.649     2.545
   116   1 H      0.923     0.035     2.521     2.483
   117   1 H      0.923     0.037     2.483     2.464
   118   1 H      0.923     0.041     2.434     2.440
   119   1 H      0.923     0.037     2.493     2.469
   120   1 H      0.924     0.063     2.167     2.302
   121   1 H      0.924     0.073     2.057     2.243
   122   1 H      0.924     0.070     2.089     2.260
   123   1 H      0.924     0.043     2.403     2.424
   124   1 H      0.923     0.062     2.173     2.305
   125   1 H      0.924     0.073     2.052     2.240
   126   1 H      0.923     0.044     2.400     2.423
   127   1 H      0.923     0.047     2.353     2.399
   128   1 H      0.923     0.023     2.689     2.564
   129   1 H      0.923     0.036     2.509     2.477
   130   1 H      0.923     0.039     2.467     2.456
   131   1 H      0.923     0.040     2.444     2.445
   132   1 H      0.923     0.036     2.498     2.472
   133   1 H      0.925     0.027     2.636     2.539
   134   1 H      0.924     0.031     2.567     2.506
   135   1 H      0.924     0.033     2.546     2.495
   136   1 H      0.924     0.034     2.537     2.491
   137   1 H      0.924     0.029     2.599     2.521
   138   1 H      0.924     0.029     2.604     2.523
   139   1 H      0.924     0.037     2.486     2.466
   140   1 H      0.924     0.026     2.640     2.541
   141   1 H      0.925     0.026     2.647     2.544
   142   1 H      0.924     0.031     2.576     2.510
   143   1 H      0.924     0.032     2.552     2.498
   144   1 H      0.924     0.029     2.598     2.521
   145   1 H      0.924     0.027     2.623     2.533
   146   1 H      0.924     0.027     2.624     2.533
   147   1 H      0.924     0.040     2.452     2.449
   148   1 H      0.924     0.038     2.476     2.461
   149   1 H      0.922     0.041     2.436     2.441
   150   1 H      0.923     0.039     2.464     2.455
   151   1 H      0.923     0.037     2.495     2.470
   152   1 H      0.923     0.035     2.514     2.480
   153   1 H      0.923     0.034     2.527     2.486
   154   1 H      0.923     0.034     2.529     2.487
   155   1 H      0.923     0.036     2.498     2.471
   156   1 H      0.923     0.035     2.520     2.483
   157   1 H      0.923     0.036     2.506     2.475
   158   1 H      0.923     0.034     2.532     2.489
   159   1 H      0.923     0.035     2.518     2.481
   160   1 H      0.922     0.040     2.451     2.448
   161   1 H      0.923     0.033     2.548     2.496
   162   1 H      0.923     0.035     2.521     2.483
   163   1 H      0.923     0.035     2.523     2.484
   164   1 H      0.923     0.041     2.440     2.443
   165   1 H      0.922     0.040     2.444     2.445
   166   1 H      0.923     0.035     2.516     2.480
   167   1 H      0.923     0.034     2.537     2.491
   168   1 H      0.923     0.036     2.503     2.474
   169   1 H      0.924     0.053     2.278     2.360
   170   1 H      0.925     0.049     2.333     2.388

 Mol. C6AA /au·bohr⁶  :     426748.569184
 Mol. C8AA /au·bohr⁸  :   11277488.997440
 Mol. α(0) /au        :       1039.056210


Wiberg/Mayer (AO) data.
largest (>0.10) Wiberg bond orders for each atom
          total WBO             WBO to atom ...
     1  C   3.955        C    6 1.339    C    2 1.299    C    7 1.134
     2  C   3.967        C    3 1.457    C    1 1.299    C    9 0.967
     3  C   3.969        C    2 1.457    C    4 1.354    H  103 0.963
     4  C   3.959        C    3 1.354    C    5 1.282    C   13 1.139
     5  C   3.965        C    6 1.474    C    4 1.282    C   15 0.968
     6  C   3.972        C    5 1.474    C    1 1.339    H  104 0.964
     7  C   3.912        C    8 1.446    C    1 1.134    S   10 1.125
     8  C   3.958        C    7 1.446    C   12 1.278    C    9 0.973
     9  C   3.985        C    8 0.973    C    2 0.967    C   19 0.954    C   20 0.949
    10  S   2.527        C    7 1.125    C   11 1.099
    11  C   3.929        C   97 1.324    C   12 1.315    S   10 1.099
    12  C   3.934        C   11 1.315    C    8 1.278    S   99 1.134
    13  C   3.905        C   14 1.441    C    4 1.139    S   16 1.122
    14  C   3.957        C   13 1.441    C   18 1.284    C   15 0.968
    15  C   3.984        C   14 0.968    C    5 0.968    C   21 0.966    C   22 0.939
    16  S   2.518        C   13 1.122    C   17 1.091
    17  C   3.929        C  100 1.360    C   18 1.295    S   16 1.091
    18  C   3.943        C   17 1.295    C   14 1.284    S  102 1.148
    19  C   3.981        C   72 1.424    C   68 1.392    C    9 0.954    C   70 0.106
    20  C   3.980        C   63 1.410    C   67 1.408    C    9 0.949    C   65 0.106
    21  C   3.982        C   73 1.415    C   77 1.400    C   15 0.966    C   75 0.106
    22  C   3.980        C   78 1.411    C   82 1.405    C   15 0.939    C   80 0.105
    23  C   3.945        C   24 1.614    C   98 1.196    H  105 0.946
    24  C   3.953        C   23 1.614    C   27 1.100    C   30 1.001
    25  C   3.948        C   26 1.573    C  101 1.243    H  106 0.950
    26  C   3.947        C   25 1.573    C   31 1.101    C   34 1.030
    27  C   3.979        C   35 1.458    C   28 1.203    C   24 1.100
    28  C   3.980        C   38 1.284    C   29 1.254    C   27 1.203
    29  C   3.980        C   41 1.472    C   28 1.254    C   30 1.007
    30  C   3.921        O   85 1.799    C   29 1.007    C   24 1.001
    31  C   3.978        C   55 1.453    C   32 1.207    C   26 1.101
    32  C   3.972        C   52 1.283    C   33 1.255    C   31 1.207
    33  C   3.978        C   49 1.474    C   32 1.255    C   34 0.999
    34  C   3.922        O   86 1.775    C   26 1.030    C   33 0.999
    35  C   3.978        C   27 1.458    C   36 1.358    H  107 0.966
    36  C   3.972        C   37 1.459    C   35 1.358    H  108 0.965
    37  C   3.951        C   36 1.459    C   38 1.241    C   42 1.029
    38  C   3.990        C   28 1.284    C   39 1.251    C   37 1.241
    39  C   3.987        C   40 1.462    C   38 1.251    C   44 1.022
    40  C   3.971        C   39 1.462    C   41 1.357    H  109 0.964
    41  C   3.985        C   29 1.472    C   40 1.357    H  110 0.966
    42  C   3.942        O   83 1.712    N   43 1.109    C   37 1.029
    43  N   3.560        C   44 1.121    C   42 1.109    C   45 0.966    O   84 0.144    O   83 0.138
    44  C   3.946        O   84 1.711    N   43 1.121    C   39 1.022
    45  C   3.951        C   46 0.984    H  111 0.966    N   43 0.966    H  112 0.965
    46  C   3.992        C   47 1.011    C   48 1.006    C   45 0.984    H  113 0.967
    47  C   3.996        C   46 1.011    H  115 0.987    H  116 0.986    H  114 0.985
    48  C   3.995        C   46 1.006    H  119 0.986    H  117 0.986    H  118 0.985
    49  C   3.985        C   33 1.474    C   50 1.355    H  120 0.967
    50  C   3.971        C   51 1.463    C   49 1.355    H  121 0.965
    51  C   3.987        C   50 1.463    C   52 1.253    C   58 1.019
    52  C   3.990        C   32 1.283    C   51 1.253    C   53 1.238
    53  C   3.951        C   54 1.455    C   52 1.238    C   56 1.035
    54  C   3.971        C   53 1.455    C   55 1.362    H  122 0.965
    55  C   3.968        C   31 1.453    C   54 1.362    H  123 0.967
    56  C   3.942        O   87 1.706    N   57 1.106    C   53 1.035
    57  N   3.561        C   58 1.123    C   56 1.106    C   59 0.968    O   88 0.144    O   87 0.138
    58  C   3.946        O   88 1.711    N   57 1.123    C   51 1.019
    59  C   3.952        C   60 0.982    N   57 0.968    H  124 0.966    H  125 0.964
    60  C   3.992        C   61 1.010    C   62 1.007    C   59 0.982    H  126 0.967
    61  C   3.996        C   60 1.010    H  128 0.987    H  129 0.986    H  127 0.985
    62  C   3.995        C   60 1.007    H  130 0.986    H  132 0.986    H  131 0.986
    63  C   3.989        C   64 1.448    C   20 1.410    H  133 0.967    C   66 0.107
    64  C   3.990        C   63 1.448    C   65 1.408    H  134 0.969    C   67 0.110
    65  C   3.984        C   66 1.409    C   64 1.408    C   90 1.012    C   20 0.106
    66  C   3.988        C   67 1.447    C   65 1.409    H  135 0.969    C   63 0.107
    67  C   3.988        C   66 1.447    C   20 1.408    H  136 0.967    C   64 0.110
    68  C   3.989        C   69 1.464    C   19 1.392    H  137 0.967    C   71 0.108
    69  C   3.989        C   68 1.464    C   70 1.394    H  138 0.969    C   72 0.108
    70  C   3.984        C   71 1.421    C   69 1.394    C   89 1.012    C   19 0.106
    71  C   3.989        C   72 1.432    C   70 1.421    H  139 0.966    C   68 0.108
    72  C   3.988        C   71 1.432    C   19 1.424    H  140 0.965    C   69 0.108
    73  C   3.989        C   74 1.440    C   21 1.415    H  141 0.968    C   76 0.109
    74  C   3.989        C   73 1.440    C   75 1.416    H  142 0.968    C   77 0.107
    75  C   3.985        C   74 1.416    C   76 1.401    C   93 1.012    C   21 0.106
    76  C   3.989        C   77 1.456    C   75 1.401    H  143 0.968    C   73 0.109
    77  C   3.989        C   76 1.456    C   21 1.400    H  144 0.967    C   74 0.107
    78  C   3.987        C   79 1.447    C   22 1.411    H  145 0.967    C   81 0.105
    79  C   3.989        C   78 1.447    C   80 1.406    H  146 0.969    C   82 0.112
    80  C   3.983        C   81 1.408    C   79 1.406    C   95 1.011    C   22 0.105
    81  C   3.989        C   82 1.449    C   80 1.408    H  147 0.966    C   78 0.105
    82  C   3.989        C   81 1.449    C   22 1.405    H  148 0.965    C   79 0.112
    83  O   2.026        C   42 1.712    N   43 0.138
    84  O   2.031        C   44 1.711    N   43 0.144
    85  O   2.057        C   30 1.799
    86  O   2.094        C   34 1.775
    87  O   2.025        C   56 1.706    N   57 0.138
    88  O   2.028        C   58 1.711    N   57 0.144
    89  C   3.996        C   91 1.019    C   70 1.012    H  150 0.969    H  149 0.958
    90  C   3.996        C   65 1.012    C   92 1.002    H  152 0.976    H  151 0.970
    91  C   3.996        C   89 1.019    H  155 0.987    H  154 0.987    H  153 0.985
    92  C   3.995        C   90 1.002    H  158 0.988    H  156 0.987    H  157 0.986
    93  C   3.996        C   75 1.012    C   94 1.008    H  159 0.976    H  160 0.964
    94  C   3.996        C   93 1.008    H  161 0.989    H  162 0.987    H  163 0.986
    95  C   3.996        C   96 1.021    C   80 1.011    H  165 0.964    H  164 0.961
    96  C   3.996        C   95 1.021    H  168 0.987    H  167 0.986    H  166 0.986
    97  C   3.964        C   98 1.460    C   11 1.324    H  169 0.959
    98  C   3.928        C   97 1.460    C   23 1.196    S   99 1.094
    99  S   2.552        C   12 1.134    C   98 1.094
   100  C   3.960        C  101 1.410    C   17 1.360    H  170 0.962
   101  C   3.933        C  100 1.410    C   25 1.243    S  102 1.104
   102  S   2.643        C   18 1.148    C  101 1.104
   103  H   0.997        C    3 0.963
   104  H   0.997        C    6 0.964
   105  H   0.991        C   23 0.946
   106  H   0.996        C   25 0.950
   107  H   0.996        C   35 0.966
   108  H   0.994        C   36 0.965
   109  H   0.993        C   40 0.964
   110  H   0.994        C   41 0.966
   111  H   0.996        C   45 0.966
   112  H   0.994        C   45 0.965
   113  H   0.998        C   46 0.967
   114  H   0.998        C   47 0.985
   115  H   0.999        C   47 0.987
   116  H   0.999        C   47 0.986
   117  H   0.999        C   48 0.986
   118  H   0.998        C   48 0.985
   119  H   0.999        C   48 0.986
   120  H   0.995        C   49 0.967
   121  H   0.994        C   50 0.965
   122  H   0.994        C   54 0.965
   123  H   0.997        C   55 0.967
   124  H   0.996        C   59 0.966
   125  H   0.994        C   59 0.964
   126  H   0.998        C   60 0.967
   127  H   0.998        C   61 0.985
   128  H   0.999        C   61 0.987
   129  H   0.999        C   61 0.986
   130  H   0.999        C   62 0.986
   131  H   0.998        C   62 0.986
   132  H   0.999        C   62 0.986
   133  H   0.999        C   63 0.967
   134  H   0.998        C   64 0.969
   135  H   0.998        C   66 0.969
   136  H   0.999        C   67 0.967
   137  H   0.999        C   68 0.967
   138  H   0.999        C   69 0.969
   139  H   0.998        C   71 0.966
   140  H   0.999        C   72 0.965
   141  H   0.999        C   73 0.968
   142  H   0.998        C   74 0.968
   143  H   0.998        C   76 0.968
   144  H   0.999        C   77 0.967
   145  H   0.999        C   78 0.967
   146  H   0.999        C   79 0.969
   147  H   0.998        C   81 0.966
   148  H   0.998        C   82 0.965
   149  H   0.998        C   89 0.958
   150  H   0.998        C   89 0.969
   151  H   0.998        C   90 0.970
   152  H   0.998        C   90 0.976
   153  H   0.999        C   91 0.985
   154  H   0.998        C   91 0.987
   155  H   0.999        C   91 0.987
   156  H   0.999        C   92 0.987
   157  H   0.998        C   92 0.986
   158  H   0.999        C   92 0.988
   159  H   0.998        C   93 0.976
   160  H   0.998        C   93 0.964
   161  H   0.999        C   94 0.989
   162  H   0.998        C   94 0.987
   163  H   0.999        C   94 0.986
   164  H   0.998        C   95 0.961
   165  H   0.998        C   95 0.964
   166  H   0.999        C   96 0.986
   167  H   0.998        C   96 0.986
   168  H   0.999        C   96 0.987
   169  H   0.997        C   97 0.959
   170  H   0.997        C  100 0.962

molecular dipole:
                 x           y           z       tot (Debye)
 q only:        2.182      -1.084       0.427
   full:        2.343      -0.982       0.455       6.560
molecular quadrupole (traceless):
                xx          xy          yy          xz          yz          zz
 q only:       37.967     -63.417     -92.694      12.234     -38.931      54.727
  q+dip:       39.992     -58.242     -90.094       7.344     -42.201      50.102
   full:       38.494     -58.661     -99.561      15.649     -44.993      61.066


           -------------------------------------------------
          | TOTAL ENERGY             -270.786503248256 Eh   |
          | GRADIENT NORM               0.086382897202 Eh/α |
          | HOMO-LUMO GAP               1.213262364403 eV   |
           -------------------------------------------------

------------------------------------------------------------------------
 * finished run on 2021/04/15 at 14:19:46.634     
------------------------------------------------------------------------
 total:
 * wall-time:     0 d,  0 h,  0 min,  1.917 sec
 *  cpu-time:     0 d,  0 h,  0 min,  1.916 sec
 * ratio c/w:     0.999 speedup
 SCF:
 * wall-time:     0 d,  0 h,  0 min,  1.471 sec
 *  cpu-time:     0 d,  0 h,  0 min,  1.471 sec
 * ratio c/w:     1.000 speedup

