      -----------------------------------------------------------      
     |                   =====================                   |     
     |                           x T B                           |     
     |                   =====================                   |     
     |                         S. Grimme                         |     
     |          Mulliken Center for Theoretical Chemistry        |     
     |                    University of Bonn                     |     
     |                Version 6.2 RC2 (SAW190805)                |     
      -----------------------------------------------------------      

   This program is distributed in the hope that it will be useful,
   but WITHOUT ANY WARRANTY; without even the implied warranty of
   MERCHANTABILITY or FITNESS FOR A PARTICULAR PURPOSE.
   
   FOR NON-COMMERCIAL, ACADEMIA USE ONLY.
   
   Cite this work as:
   * S. Grimme, C. Bannwarth, P. Shushkov, J. Chem. Theory Comput., 2017,
     13, 1989-2009. DOI: 10.1021/acs.jctc.7b00118
   * C. Bannwarth, S. Ehlert and S. Grimme., J. Chem. Theory Comput., 2019,
     15, 1652-1671. DOI: 10.1021/acs.jctc.8b01176
   * P. Pracht, E. Caldeweyher, S. Ehlert, S. Grimme, ChemRxiv, 2019, preprint.
     DOI: 10.26434/chemrxiv.8326202.v1
   
   for DFT-D4:
   * E. Caldeweyher, C. Bannwarth and S. Grimme, J. Chem. Phys., 2017,
     147, 034112. DOI: 10.1063/1.4993215
   * E. Caldeweyher, S. Ehlert, A. Hansen, H. Neugebauer, S. Spicher,
     C. Bannwarth and S. Grimme, J. Chem. Phys., 2019, 150, 154122.
     DOI: 10.1063/1.5090222
   
   for sTDA-xTB:
   * S. Grimme and C. Bannwarth, J. Chem. Phys., 2016, 145, 054103.
     DOI: 10.1063/1.4959605
   
   in the mass-spec context:
   * V. Asgeirsson, C. Bauer and S. Grimme, Chem. Sci., 2017, 8, 4879.
     DOI: 10.1039/c7sc00601b
   
   for metadynamics refer to:
   * S. Grimme, J. Chem. Theory Comput., 2019, 155, 2847-2862
     DOI: 10.1021/acs.jctc.9b00143
   
   with help from (in alphabetical order)
   C. Bannwarth, F. Bohle, G. Brandenburg, E. Caldeweyher, M. Checinski,
   S. Dohm, S. Ehlert, S. Ehrlich, F. März, H. Neugebauer, J. Pisarek,
   P. Pracht, P. Shushkov, and S. Spicher.
   
 * started run on 2020/11/20 at 13:45:45.453     

           -------------------------------------------------
          |                Calculation Setup                |
           -------------------------------------------------

          program call               : /ihome/ghutchison/geoffh/xtb/xtb O-IDTBR.xyz -sp
          hostname                   : smp-n106
          coordinate file            : O-IDTBR.xyz
          omp threads                :                     1
          number of atoms            :                   104
          number of electrons        :                   322
          charge                     :                     0
          spin                       :                   0.0
          first test random number   :      0.75945459518285


########################################################################
# WARNING! Please study the warnings concerning your input carefully
#  - XTBPATH is not set, using XTBHOME instead
#  - the use of '-sp' is discouraged, please use '--sp' next time
########################################################################

           ------------------------------------------------- 
          |                 G F N 2 - x T B                 |
          | Geometry, Frequencies, Noncovalent interactions |
          |            JCTC 2019 parametrisation            |
           ------------------------------------------------- 
             KAB for C  - Si     :                1.0500
             KAB for H  - Pd     :                0.9500
             k(s)              :                1.8500
             k(p)              :                2.2300
             k(d)              :                2.2300
             k(f)              :                2.0000
             kEN (H0ij)        :               -2.0000
             D4 a1             :                0.5200
             D4 a2             :                5.0000
             D4 s6             :                1.0000
             D4 s8             :                2.7000
             D4 s9             :                5.0000
             alphaj            :                2.0000

  Z AO/shell   Hii/eV     exponent
  1     Wed Apr 25 08:07:45 CEST 2018   EN: 2.200 GM2: 0.406  GM3: 0.0800  RAES: 1.40
     1s    -10.707211    1.230000
  6     Wed Apr 25 08:07:45 CEST 2018   EN: 2.550 GM2: 0.538  GM3: 0.1500  RAES: 3.00
     2s    -13.970922    2.096432
     2p    -10.063292    1.800000
  7     Wed Apr 25 08:07:45 CEST 2018   EN: 3.040 GM2: 0.461  GM3:-0.0640  RAES: 1.90
     2s    -16.686243    2.339881
     2p    -12.523956    2.014332
  8     Wed Apr 25 08:07:45 CEST 2018   EN: 3.440 GM2: 0.452  GM3:-0.0517  RAES: 1.80
     2s    -20.229985    2.439742
     2p    -15.503117    2.137023
 16     Tue Apr 24 11:44:34 CEST 2018   EN: 2.580 GM2: 0.340  GM3:-0.0502  RAES: 3.10
     3s    -20.029654    1.981333
     3p    -11.377694    2.025643
     3d     -0.420282    1.702555

           ------------------------------------------------- 
          |        Self-Consistent Charge Iterations        |
           ------------------------------------------------- 

          ...................................................
          :                      SETUP                      :
          :.................................................:
          :  # basis functions                 344          :
          :  # atomic orbitals                 336          :
          :  # shells                          176          :
          :  # electrons                       322          :
          :  max. iterations                   250          :
          :  Hamiltonian                  GFN2-xTB          :
          :  restarted?                      false          :
          :  GBSA solvation                  false          :
          :  PC potential                    false          :
          :  electronic temp.          300.0000000     K    :
          :  accuracy                    1.0000000          :
          :  -> integral cutoff          0.2500000E+02      :
          :  -> integral neglect         0.1000000E-07      :
          :  -> SCF convergence          0.1000000E-05 Eh   :
          :  -> wf. convergence          0.1000000E-03 e    :
          :  Broyden damping             0.4000000          :
          ...................................................

 iter      E             dE          RMSdq      gap      omega  full diag
   1   -176.7957929 -0.176796E+03  0.428E+00    1.17       0.0  T
   2   -177.0543284 -0.258536E+00  0.268E+00    0.93       1.0  T
   3   -177.0864385 -0.321101E-01  0.151E+00    0.95       1.0  T
   4   -177.1350120 -0.485734E-01  0.666E-01    0.90       1.0  T
   5   -177.1644166 -0.294046E-01  0.264E-01    0.73       1.0  T
   6   -177.1685222 -0.410564E-02  0.140E-01    0.82       1.0  T
   7   -177.1692390 -0.716739E-03  0.564E-02    0.81       1.0  T
   8   -177.1694465 -0.207564E-03  0.230E-02    0.82       1.0  T
   9   -177.1694644 -0.179141E-04  0.130E-02    0.81       1.0  T
  10   -177.1694744 -0.994257E-05  0.615E-03    0.81       1.6  T
  11   -177.1694757 -0.130596E-05  0.261E-03    0.81       3.8  T
  12   -177.1694760 -0.289565E-06  0.135E-03    0.81       7.2  T
  13   -177.1694761 -0.104463E-06  0.702E-04    0.81      14.0  T
  14   -177.1694761 -0.210940E-07  0.320E-04    0.81      30.6  T

   *** convergence criteria satisfied after 14 iterations ***

         #    Occupation            Energy/Eh            Energy/eV
      -------------------------------------------------------------
         1        2.0000           -0.7698422             -20.9485
       ...           ...                  ...                  ...
       155        2.0000           -0.4051586             -11.0249
       156        2.0000           -0.3979495             -10.8288
       157        2.0000           -0.3891935             -10.5905
       158        2.0000           -0.3789437             -10.3116
       159        2.0000           -0.3682781             -10.0214
       160        2.0000           -0.3660529              -9.9608
       161        2.0000           -0.3635293              -9.8921 (HOMO)
       162        0.0000           -0.3336364              -9.0787 (LUMO)
       163                         -0.3294890              -8.9659
       164                         -0.3063950              -8.3374
       165                         -0.3038238              -8.2675
       166                         -0.2910987              -7.9212
       ...                                ...                  ...
       336                          0.6934658              18.8702
      -------------------------------------------------------------
                  HL-Gap            0.0298929 Eh            0.8134 eV
             Fermi-level           -0.3485536 Eh           -9.4846 eV

 SCC (total)                   0 d,  0 h,  0 min,  0.711 sec
 SCC setup                      ...        0 min,  0.003 sec (  0.381%)
 Dispersion                     ...        0 min,  0.006 sec (  0.852%)
 integral evaluation            ...        0 min,  0.211 sec ( 29.746%)
 zeroth order Hamiltonian       ...        0 min,  0.001 sec (  0.197%)
 iterations                     ...        0 min,  0.308 sec ( 43.293%)
 molecular gradient             ...        0 min,  0.179 sec ( 25.157%)
 printout                       ...        0 min,  0.003 sec (  0.364%)

         :::::::::::::::::::::::::::::::::::::::::::::::::::::
         ::                     SUMMARY                     ::
         :::::::::::::::::::::::::::::::::::::::::::::::::::::
         :: total energy            -174.946732328972 Eh    ::
         :: gradient norm              0.086232057669 Eh/a0 ::
         :: HOMO-LUMO gap              0.813426864117 eV    ::
         ::.................................................::
         :: SCC energy              -177.169476110848 Eh    ::
         :: -> isotropic ES            0.114254014834 Eh    ::
         :: -> anisotropic ES          0.012997442293 Eh    ::
         :: -> anisotropic XC          0.083053397094 Eh    ::
         :: -> dispersion             -0.155493586807 Eh    ::
         :: repulsion energy           2.223443813111 Eh    ::
         :: add. restraining           0.000000000000 Eh    ::
         :::::::::::::::::::::::::::::::::::::::::::::::::::::

           -------------------------------------------------
          |                Property Printout                |
           -------------------------------------------------

    * Orbital Energies and Occupations

         #    Occupation            Energy/Eh            Energy/eV
      -------------------------------------------------------------
         1        2.0000           -0.7698422             -20.9485
       ...           ...                  ...                  ...
       149        2.0000           -0.4219606             -11.4821
       150        2.0000           -0.4207927             -11.4504
       151        2.0000           -0.4158665             -11.3163
       152        2.0000           -0.4151424             -11.2966
       153        2.0000           -0.4105711             -11.1722
       154        2.0000           -0.4083567             -11.1120
       155        2.0000           -0.4051586             -11.0249
       156        2.0000           -0.3979495             -10.8288
       157        2.0000           -0.3891935             -10.5905
       158        2.0000           -0.3789437             -10.3116
       159        2.0000           -0.3682781             -10.0214
       160        2.0000           -0.3660529              -9.9608
       161        2.0000           -0.3635293              -9.8921 (HOMO)
       162        0.0000           -0.3336364              -9.0787 (LUMO)
       163                         -0.3294890              -8.9659
       164                         -0.3063950              -8.3374
       165                         -0.3038238              -8.2675
       166                         -0.2910987              -7.9212
       167                         -0.2752957              -7.4912
       168                         -0.2680989              -7.2953
       169                         -0.2609252              -7.1001
       170                         -0.2437680              -6.6333
       171                         -0.2374574              -6.4615
       172                         -0.2367886              -6.4433
       ...                                ...                  ...
       336                          0.6934658              18.8702
      -------------------------------------------------------------
                  HL-Gap            0.0298929 Eh            0.8134 eV
             Fermi-level           -0.3485536 Eh           -9.4846 eV

     #   Z        covCN         q      C6AA      α(0)
     1  16 S      2.266    -0.013   141.596    20.028
     2   6 C      2.891     0.143    24.884     8.179
     3  16 S      1.149    -0.300   152.159    20.857
     4   7 N      2.849    -0.068    22.553     7.053
     5   6 C      3.738     0.009    20.496     6.460
     6   6 C      3.746    -0.105    22.577     6.778
     7   6 C      2.869     0.265    22.544     7.783
     8   8 O      0.857    -0.397    21.619     6.234
     9   6 C      2.943    -0.005    28.147     8.701
    10   6 C      2.917    -0.023    28.575     8.766
    11   6 C      2.951     0.004    27.929     8.668
    12   6 C      3.312     0.076    24.408     7.883
    13   7 N      1.850    -0.250    27.376     7.755
    14  16 S      2.630     0.326   128.449    19.075
    15   7 N      1.843    -0.260    27.623     7.789
    16   6 C      3.305     0.072    24.637     7.937
    17   6 C      2.978     0.005    27.895     8.664
    18   6 C      2.913    -0.037    28.926     8.819
    19   6 C      2.920    -0.031    28.764     8.795
    20   6 C      2.982     0.020    27.552     8.610
    21   6 C      3.040    -0.046    29.099     8.848
    22   6 C      3.190    -0.012    27.827     8.605
    23   6 C      3.050     0.021    27.494     8.600
    24  16 S      2.242    -0.043   142.853    20.116
    25   6 C      3.017    -0.000    28.015     8.682
    26   6 C      3.043     0.002    27.942     8.670
    27   6 C      3.925     0.014    20.285     6.401
    28   6 C      3.798    -0.049    21.457     6.596
    29   6 C      3.745    -0.095    22.393     6.750
    30   6 C      3.799    -0.048    21.427     6.591
    31   6 C      3.745    -0.098    22.453     6.759
    32   6 C      2.902    -0.036    28.906     8.815
    33   6 C      3.017     0.001    27.989     8.678
    34   6 C      3.041     0.002    27.942     8.670
    35   6 C      2.902    -0.037    28.916     8.817
    36   6 C      3.923     0.014    20.285     6.401
    37   6 C      3.798    -0.048    21.439     6.593
    38   6 C      3.745    -0.096    22.398     6.751
    39   6 C      3.799    -0.048    21.431     6.591
    40   6 C      3.745    -0.098    22.449     6.759
    41   6 C      3.177    -0.014    27.957     8.634
    42   6 C      3.053     0.016    27.615     8.618
    43  16 S      2.234     0.001   141.001    19.985
    44   6 C      2.979     0.016    27.638     8.624
    45   6 C      3.047    -0.047    29.123     8.851
    46   6 C      2.970     0.006    27.883     8.661
    47   6 C      3.325     0.074    24.231     7.825
    48   7 N      1.854    -0.254    27.462     7.767
    49  16 S      2.645     0.321   128.637    19.089
    50   7 N      1.845    -0.263    27.683     7.798
    51   6 C      3.317     0.072    24.419     7.875
    52   6 C      2.950     0.004    27.933     8.668
    53   6 C      2.908    -0.035    28.861     8.809
    54   6 C      2.913    -0.037    28.921     8.819
    55   6 C      2.940    -0.017    28.437     8.746
    56   6 C      2.943    -0.007    28.203     8.710
    57  16 S      2.317    -0.044   142.870    20.117
    58   6 C      2.885     0.150    24.745     8.155
    59  16 S      1.142    -0.299   152.128    20.856
    60   7 N      2.869    -0.071    22.608     7.062
    61   6 C      3.739     0.009    20.506     6.461
    62   6 C      3.747    -0.105    22.574     6.777
    63   6 C      2.857     0.268    22.485     7.772
    64   8 O      0.857    -0.404    21.769     6.256
    65   1 H      0.923     0.071     2.074     2.252
    66   1 H      0.924     0.072     2.064     2.247
    67   1 H      0.923     0.056     2.243     2.342
    68   1 H      0.923     0.054     2.276     2.359
    69   1 H      0.923     0.051     2.308     2.376
    70   1 H      0.924     0.082     1.955     2.187
    71   1 H      0.924     0.053     2.287     2.365
    72   1 H      0.924     0.050     2.320     2.382
    73   1 H      0.925     0.063     2.165     2.301
    74   1 H      0.923     0.040     2.453     2.449
    75   1 H      0.923     0.038     2.475     2.460
    76   1 H      0.923     0.032     2.560     2.502
    77   1 H      0.923     0.037     2.488     2.467
    78   1 H      0.923     0.033     2.543     2.494
    79   1 H      0.923     0.033     2.548     2.497
    80   1 H      0.923     0.039     2.463     2.454
    81   1 H      0.923     0.038     2.469     2.457
    82   1 H      0.923     0.038     2.473     2.460
    83   1 H      0.923     0.037     2.495     2.470
    84   1 H      0.924     0.044     2.397     2.421
    85   1 H      0.924     0.043     2.412     2.429
    86   1 H      0.923     0.036     2.504     2.475
    87   1 H      0.923     0.039     2.458     2.452
    88   1 H      0.923     0.034     2.537     2.491
    89   1 H      0.923     0.037     2.489     2.467
    90   1 H      0.923     0.033     2.547     2.496
    91   1 H      0.923     0.037     2.489     2.467
    92   1 H      0.923     0.033     2.544     2.494
    93   1 H      0.923     0.036     2.501     2.473
    94   1 H      0.923     0.038     2.476     2.461
    95   1 H      0.923     0.039     2.468     2.457
    96   1 H      0.925     0.040     2.446     2.446
    97   1 H      0.925     0.094     1.844     2.124
    98   1 H      0.924     0.047     2.359     2.402
    99   1 H      0.924     0.081     1.969     2.194
   100   1 H      0.923     0.067     2.120     2.277
   101   1 H      0.924     0.077     2.007     2.215
   102   1 H      0.923     0.057     2.234     2.338
   103   1 H      0.923     0.053     2.280     2.361
   104   1 H      0.923     0.049     2.337     2.391

 Mol. C6AA /au·bohr⁶  :     191606.134521
 Mol. C8AA /au·bohr⁸  :    5581305.591158
 Mol. α(0) /au        :        696.313781


Wiberg/Mayer (AO) data.
largest (>0.10) Wiberg bond orders for each atom
          total WBO             WBO to atom ...
     1  S   2.564        C    2 1.092    C    9 1.079    S    3 0.134
     2  C   3.946        S    3 1.573    N    4 1.207    S    1 1.092
     3  S   1.906        C    2 1.573    S    1 0.134    N    4 0.101
     4  N   3.592        C    2 1.207    C    7 1.108    C    5 0.957    O    8 0.131    S    3 0.101
     5  C   3.950        C    6 1.011    H   66 0.967    H   65 0.965    N    4 0.957
     6  C   3.991        C    5 1.011    H   69 0.986    H   67 0.985    H   68 0.981
     7  C   3.942        O    8 1.695    N    4 1.108    C    9 1.024
     8  O   2.040        C    7 1.695    N    4 0.131
     9  C   3.902        C   10 1.609    S    1 1.079    C    7 1.024
    10  C   3.935        C    9 1.609    C   11 1.188    H   70 0.940
    11  C   3.939        C   19 1.404    C   10 1.188    C   12 1.168
    12  C   3.966        N   13 1.433    C   11 1.168    C   16 1.155
    13  N   3.103        C   12 1.433    S   14 1.384    N   15 0.157
    14  S   3.119        N   15 1.395    N   13 1.384    C   16 0.102
    15  N   3.076        C   16 1.430    S   14 1.395    N   13 0.157
    16  C   3.970        N   15 1.430    C   17 1.161    C   12 1.155    S   14 0.102
    17  C   3.928        C   18 1.417    C   20 1.171    C   16 1.161
    18  C   3.971        C   17 1.417    C   19 1.388    H   71 0.960
    19  C   3.967        C   11 1.404    C   18 1.388    H   72 0.965
    20  C   3.919        C   21 1.455    C   17 1.171    S   24 1.103
    21  C   3.946        C   20 1.455    C   22 1.344    H   73 0.954
    22  C   3.956        C   23 1.412    C   21 1.344    C   27 0.984
    23  C   3.909        C   22 1.412    S   24 1.162    C   25 1.141
    24  S   2.564        C   23 1.162    C   20 1.103
    25  C   3.952        C   35 1.346    C   26 1.287    C   23 1.141
    26  C   3.966        C   32 1.468    C   25 1.287    C   27 0.984
    27  C   3.987        C   26 0.984    C   22 0.984    C   28 0.965    C   30 0.953
    28  C   3.994        C   29 1.021    H   75 0.974    H   74 0.971    C   27 0.965
    29  C   3.996        C   28 1.021    H   78 0.987    H   77 0.986    H   76 0.986
    30  C   3.992        C   31 1.020    H   79 0.977    H   80 0.974    C   27 0.953
    31  C   3.994        C   30 1.020    H   81 0.985    H   82 0.984    H   83 0.984
    32  C   3.975        C   26 1.468    C   33 1.346    H   84 0.963
    33  C   3.953        C   32 1.346    C   34 1.288    C   42 1.142
    34  C   3.965        C   35 1.468    C   33 1.288    C   36 0.983
    35  C   3.976        C   34 1.468    C   25 1.346    H   85 0.963
    36  C   3.987        C   34 0.983    C   41 0.983    C   37 0.964    C   39 0.956
    37  C   3.994        C   38 1.021    H   86 0.974    H   87 0.971    C   36 0.964
    38  C   3.996        C   37 1.021    H   88 0.987    H   89 0.986    H   90 0.986
    39  C   3.993        C   40 1.020    H   92 0.977    H   91 0.974    C   36 0.956
    40  C   3.994        C   39 1.020    H   95 0.984    H   94 0.984    H   93 0.984
    41  C   3.956        C   42 1.398    C   45 1.361    C   36 0.983
    42  C   3.909        C   41 1.398    S   43 1.179    C   33 1.142
    43  S   2.622        C   42 1.179    C   44 1.122
    44  C   3.921        C   45 1.434    C   46 1.175    S   43 1.122
    45  C   3.943        C   44 1.434    C   41 1.361    H   96 0.959
    46  C   3.930        C   54 1.410    C   44 1.175    C   47 1.165
    47  C   3.970        N   48 1.428    C   46 1.165    C   51 1.164    S   49 0.101
    48  N   3.098        C   47 1.428    S   49 1.391    N   50 0.159
    49  S   3.109        N   48 1.391    N   50 1.387    C   47 0.101
    50  N   3.073        C   51 1.432    S   49 1.387    N   48 0.159
    51  C   3.968        N   50 1.432    C   47 1.164    C   52 1.158
    52  C   3.939        C   53 1.406    C   55 1.191    C   51 1.158
    53  C   3.956        C   52 1.406    C   54 1.383    H   97 0.946
    54  C   3.973        C   46 1.410    C   53 1.383    H   98 0.964
    55  C   3.929        C   56 1.595    C   52 1.191    H   99 0.953
    56  C   3.891        C   55 1.595    S   57 1.056    C   63 1.055
    57  S   2.512        C   58 1.105    C   56 1.056    S   59 0.146
    58  C   3.945        S   59 1.567    N   60 1.205    S   57 1.105
    59  S   1.904        C   58 1.567    S   57 0.146    N   60 0.101
    60  N   3.590        C   58 1.205    C   63 1.102    C   61 0.959    O   64 0.130    S   59 0.101
    61  C   3.950        C   62 1.011    H  100 0.966    H  101 0.964    N   60 0.959
    62  C   3.991        C   61 1.011    H  104 0.986    H  102 0.984    H  103 0.981
    63  C   3.941        O   64 1.668    N   60 1.102    C   56 1.055
    64  O   2.042        C   63 1.668    N   60 0.130
    65  H   0.995        C    5 0.965
    66  H   0.994        C    5 0.967
    67  H   0.997        C    6 0.985
    68  H   0.996        C    6 0.981
    69  H   0.997        C    6 0.986
    70  H   0.992        C   10 0.940
    71  H   0.995        C   18 0.960
    72  H   0.996        C   19 0.965
    73  H   0.996        C   21 0.954
    74  H   0.997        C   28 0.971
    75  H   0.998        C   28 0.974
    76  H   0.999        C   29 0.986
    77  H   0.998        C   29 0.986
    78  H   0.999        C   29 0.987
    79  H   0.999        C   30 0.977
    80  H   0.998        C   30 0.974
    81  H   0.998        C   31 0.985
    82  H   0.997        C   31 0.984
    83  H   0.999        C   31 0.984
    84  H   0.997        C   32 0.963
    85  H   0.997        C   35 0.963
    86  H   0.998        C   37 0.974
    87  H   0.997        C   37 0.971
    88  H   0.999        C   38 0.987
    89  H   0.998        C   38 0.986
    90  H   0.999        C   38 0.986
    91  H   0.998        C   39 0.974
    92  H   0.999        C   39 0.977
    93  H   0.999        C   40 0.984
    94  H   0.997        C   40 0.984
    95  H   0.998        C   40 0.984
    96  H   0.998        C   45 0.959
    97  H   0.989        C   53 0.946
    98  H   0.996        C   54 0.964
    99  H   0.992        C   55 0.953
   100  H   0.995        C   61 0.966
   101  H   0.994        C   61 0.964
   102  H   0.997        C   62 0.984
   103  H   0.996        C   62 0.981
   104  H   0.998        C   62 0.986

molecular dipole:
                 x           y           z       tot (Debye)
 q only:        0.580       0.267       0.688
   full:        0.310       0.776       0.835       3.003
molecular quadrupole (traceless):
                xx          xy          yy          xz          yz          zz
 q only:     -172.791     -62.715      93.803      61.778      15.656      78.988
  q+dip:     -164.395     -77.821      81.836      58.005      20.880      82.558
   full:     -168.008     -79.422      75.868      64.764      17.810      92.140


           -------------------------------------------------
          | TOTAL ENERGY             -174.946732328972 Eh   |
          | GRADIENT NORM               0.086232057669 Eh/α |
          | HOMO-LUMO GAP               0.813426864117 eV   |
           -------------------------------------------------

------------------------------------------------------------------------
 * finished run on 2020/11/20 at 13:45:46.404     
------------------------------------------------------------------------
 total:
 * wall-time:     0 d,  0 h,  0 min,  0.951 sec
 *  cpu-time:     0 d,  0 h,  0 min,  0.941 sec
 * ratio c/w:     0.990 speedup
 SCF:
 * wall-time:     0 d,  0 h,  0 min,  0.712 sec
 *  cpu-time:     0 d,  0 h,  0 min,  0.711 sec
 * ratio c/w:     0.999 speedup

