      -----------------------------------------------------------      
     |                   =====================                   |     
     |                           x T B                           |     
     |                   =====================                   |     
     |                         S. Grimme                         |     
     |          Mulliken Center for Theoretical Chemistry        |     
     |                    University of Bonn                     |     
     |                Version 6.2 RC2 (SAW190805)                |     
      -----------------------------------------------------------      

   This program is distributed in the hope that it will be useful,
   but WITHOUT ANY WARRANTY; without even the implied warranty of
   MERCHANTABILITY or FITNESS FOR A PARTICULAR PURPOSE.
   
   FOR NON-COMMERCIAL, ACADEMIA USE ONLY.
   
   Cite this work as:
   * S. Grimme, C. Bannwarth, P. Shushkov, J. Chem. Theory Comput., 2017,
     13, 1989-2009. DOI: 10.1021/acs.jctc.7b00118
   * C. Bannwarth, S. Ehlert and S. Grimme., J. Chem. Theory Comput., 2019,
     15, 1652-1671. DOI: 10.1021/acs.jctc.8b01176
   * P. Pracht, E. Caldeweyher, S. Ehlert, S. Grimme, ChemRxiv, 2019, preprint.
     DOI: 10.26434/chemrxiv.8326202.v1
   
   for DFT-D4:
   * E. Caldeweyher, C. Bannwarth and S. Grimme, J. Chem. Phys., 2017,
     147, 034112. DOI: 10.1063/1.4993215
   * E. Caldeweyher, S. Ehlert, A. Hansen, H. Neugebauer, S. Spicher,
     C. Bannwarth and S. Grimme, J. Chem. Phys., 2019, 150, 154122.
     DOI: 10.1063/1.5090222
   
   for sTDA-xTB:
   * S. Grimme and C. Bannwarth, J. Chem. Phys., 2016, 145, 054103.
     DOI: 10.1063/1.4959605
   
   in the mass-spec context:
   * V. Asgeirsson, C. Bauer and S. Grimme, Chem. Sci., 2017, 8, 4879.
     DOI: 10.1039/c7sc00601b
   
   for metadynamics refer to:
   * S. Grimme, J. Chem. Theory Comput., 2019, 155, 2847-2862
     DOI: 10.1021/acs.jctc.9b00143
   
   with help from (in alphabetical order)
   C. Bannwarth, F. Bohle, G. Brandenburg, E. Caldeweyher, M. Checinski,
   S. Dohm, S. Ehlert, S. Ehrlich, F. März, H. Neugebauer, J. Pisarek,
   P. Pracht, P. Shushkov, and S. Spicher.
   
 * started run on 2020/11/20 at 13:45:46.416     

           -------------------------------------------------
          |                Calculation Setup                |
           -------------------------------------------------

          program call               : /ihome/ghutchison/geoffh/xtb/xtb PC70BM.xyz -sp
          hostname                   : smp-n106
          coordinate file            : PC70BM.xyz
          omp threads                :                     1
          number of atoms            :                    98
          number of electrons        :                   354
          charge                     :                     0
          spin                       :                   0.0
          first test random number   :      0.65485412285784


########################################################################
# WARNING! Please study the warnings concerning your input carefully
#  - XTBPATH is not set, using XTBHOME instead
#  - the use of '-sp' is discouraged, please use '--sp' next time
########################################################################

           ------------------------------------------------- 
          |                 G F N 2 - x T B                 |
          | Geometry, Frequencies, Noncovalent interactions |
          |            JCTC 2019 parametrisation            |
           ------------------------------------------------- 
             KAB for C  - Si     :                1.0500
             KAB for H  - Pd     :                0.9500
             k(s)              :                1.8500
             k(p)              :                2.2300
             k(d)              :                2.2300
             k(f)              :                2.0000
             kEN (H0ij)        :               -2.0000
             D4 a1             :                0.5200
             D4 a2             :                5.0000
             D4 s6             :                1.0000
             D4 s8             :                2.7000
             D4 s9             :                5.0000
             alphaj            :                2.0000

  Z AO/shell   Hii/eV     exponent
  1     Wed Apr 25 08:07:45 CEST 2018   EN: 2.200 GM2: 0.406  GM3: 0.0800  RAES: 1.40
     1s    -10.707211    1.230000
  6     Wed Apr 25 08:07:45 CEST 2018   EN: 2.550 GM2: 0.538  GM3: 0.1500  RAES: 3.00
     2s    -13.970922    2.096432
     2p    -10.063292    1.800000
  8     Wed Apr 25 08:07:45 CEST 2018   EN: 3.440 GM2: 0.452  GM3:-0.0517  RAES: 1.80
     2s    -20.229985    2.439742
     2p    -15.503117    2.137023

           ------------------------------------------------- 
          |        Self-Consistent Charge Iterations        |
           ------------------------------------------------- 

          ...................................................
          :                      SETUP                      :
          :.................................................:
          :  # basis functions                 350          :
          :  # atomic orbitals                 350          :
          :  # shells                          182          :
          :  # electrons                       354          :
          :  max. iterations                   250          :
          :  Hamiltonian                  GFN2-xTB          :
          :  restarted?                      false          :
          :  GBSA solvation                  false          :
          :  PC potential                    false          :
          :  electronic temp.          300.0000000     K    :
          :  accuracy                    1.0000000          :
          :  -> integral cutoff          0.2500000E+02      :
          :  -> integral neglect         0.1000000E-07      :
          :  -> SCF convergence          0.1000000E-05 Eh   :
          :  -> wf. convergence          0.1000000E-03 e    :
          :  Broyden damping             0.4000000          :
          ...................................................

 iter      E             dE          RMSdq      gap      omega  full diag
   1   -194.1202412 -0.194120E+03  0.454E+00    1.34       0.0  T
   2   -194.1745963 -0.543552E-01  0.267E+00    1.33       1.0  T
   3   -194.0270786  0.147518E+00  0.102E+00    1.11       1.0  T
   4   -194.1104858 -0.834072E-01  0.563E-01    1.14       1.0  T
   5   -194.1888384 -0.783526E-01  0.115E-01    1.35       1.0  T
   6   -194.1903638 -0.152547E-02  0.693E-02    1.33       1.0  T
   7   -194.1910819 -0.718036E-03  0.297E-02    1.34       1.0  T
   8   -194.1911270 -0.451191E-04  0.120E-02    1.34       1.0  T
   9   -194.1911410 -0.140544E-04  0.416E-03    1.34       2.4  T
  10   -194.1911419 -0.882627E-06  0.264E-03    1.34       3.8  T
  11   -194.1911429 -0.957088E-06  0.125E-03    1.34       8.1  T
  12   -194.1911430 -0.111560E-06  0.779E-04    1.34      13.0  T
  13   -194.1911431 -0.114441E-06  0.261E-04    1.34      38.8  T

   *** convergence criteria satisfied after 13 iterations ***

         #    Occupation            Energy/Eh            Energy/eV
      -------------------------------------------------------------
         1        2.0000           -0.7489695             -20.3805
       ...           ...                  ...                  ...
       171        2.0000           -0.3918120             -10.6617
       172        2.0000           -0.3898958             -10.6096
       173        2.0000           -0.3895211             -10.5994
       174        2.0000           -0.3882521             -10.5649
       175        2.0000           -0.3799218             -10.3382
       176        2.0000           -0.3793171             -10.3217
       177        2.0000           -0.3720077             -10.1228 (HOMO)
       178                         -0.3226969              -8.7810 (LUMO)
       179                         -0.3197146              -8.6999
       180                         -0.3152147              -8.5774
       181                         -0.2990562              -8.1377
       182                         -0.2944770              -8.0131
       ...                                ...                  ...
       350                          0.6596656              17.9504
      -------------------------------------------------------------
                  HL-Gap            0.0493109 Eh            1.3418 eV
             Fermi-level           -0.3473720 Eh           -9.4525 eV

 SCC (total)                   0 d,  0 h,  0 min,  0.839 sec
 SCC setup                      ...        0 min,  0.003 sec (  0.369%)
 Dispersion                     ...        0 min,  0.009 sec (  1.098%)
 integral evaluation            ...        0 min,  0.253 sec ( 30.220%)
 zeroth order Hamiltonian       ...        0 min,  0.002 sec (  0.297%)
 iterations                     ...        0 min,  0.322 sec ( 38.364%)
 molecular gradient             ...        0 min,  0.246 sec ( 29.278%)
 printout                       ...        0 min,  0.003 sec (  0.363%)

         :::::::::::::::::::::::::::::::::::::::::::::::::::::
         ::                     SUMMARY                     ::
         :::::::::::::::::::::::::::::::::::::::::::::::::::::
         :: total energy            -190.957930983078 Eh    ::
         :: gradient norm              0.068957318895 Eh/a0 ::
         :: HOMO-LUMO gap              1.341817138921 eV    ::
         ::.................................................::
         :: SCC energy              -194.191143110092 Eh    ::
         :: -> isotropic ES            0.042381918375 Eh    ::
         :: -> anisotropic ES          0.005525315141 Eh    ::
         :: -> anisotropic XC          0.056419769808 Eh    ::
         :: -> dispersion             -0.231996314710 Eh    ::
         :: repulsion energy           3.205816437753 Eh    ::
         :: add. restraining           0.000000000000 Eh    ::
         :::::::::::::::::::::::::::::::::::::::::::::::::::::

           -------------------------------------------------
          |                Property Printout                |
           -------------------------------------------------

    * Orbital Energies and Occupations

         #    Occupation            Energy/Eh            Energy/eV
      -------------------------------------------------------------
         1        2.0000           -0.7489695             -20.3805
       ...           ...                  ...                  ...
       165        2.0000           -0.4179804             -11.3738
       166        2.0000           -0.4126274             -11.2282
       167        2.0000           -0.4104994             -11.1703
       168        2.0000           -0.4007848             -10.9059
       169        2.0000           -0.3994765             -10.8703
       170        2.0000           -0.3923627             -10.6767
       171        2.0000           -0.3918120             -10.6617
       172        2.0000           -0.3898958             -10.6096
       173        2.0000           -0.3895211             -10.5994
       174        2.0000           -0.3882521             -10.5649
       175        2.0000           -0.3799218             -10.3382
       176        2.0000           -0.3793171             -10.3217
       177        2.0000           -0.3720077             -10.1228 (HOMO)
       178                         -0.3226969              -8.7810 (LUMO)
       179                         -0.3197146              -8.6999
       180                         -0.3152147              -8.5774
       181                         -0.2990562              -8.1377
       182                         -0.2944770              -8.0131
       183                         -0.2852462              -7.7619
       184                         -0.2629890              -7.1563
       185                         -0.2539690              -6.9108
       186                         -0.2530969              -6.8871
       187                         -0.2530319              -6.8853
       188                         -0.2486219              -6.7653
       ...                                ...                  ...
       350                          0.6596656              17.9504
      -------------------------------------------------------------
                  HL-Gap            0.0493109 Eh            1.3418 eV
             Fermi-level           -0.3473720 Eh           -9.4525 eV

     #   Z        covCN         q      C6AA      α(0)
     1   6 C      3.022    -0.005    28.130     8.700
     2   6 C      3.023     0.001    27.987     8.678
     3   6 C      3.022     0.002    27.964     8.674
     4   6 C      3.022     0.001    27.973     8.676
     5   6 C      3.036     0.001    27.972     8.675
     6   6 C      3.021    -0.005    28.126     8.699
     7   6 C      3.037     0.001    27.977     8.676
     8   6 C      3.021     0.001    27.991     8.678
     9   6 C      3.023     0.002    27.959     8.673
    10   6 C      3.020    -0.005    28.126     8.699
    11   6 C      3.023    -0.005    28.116     8.698
    12   6 C      3.036     0.000    27.989     8.678
    13   6 C      3.036     0.001    27.981     8.676
    14   6 C      3.022    -0.005    28.126     8.699
    15   6 C      3.035    -0.000    27.999     8.679
    16   6 C      3.035    -0.000    28.000     8.679
    17   6 C      3.034    -0.004    28.095     8.694
    18   6 C      3.036     0.001    27.974     8.675
    19   6 C      3.032    -0.005    28.115     8.697
    20   6 C      3.032    -0.005    28.104     8.696
    21   6 C      3.031    -0.004    28.101     8.695
    22   6 C      3.033    -0.004    28.084     8.692
    23   6 C      3.035    -0.003    28.072     8.690
    24   6 C      3.036     0.001    27.971     8.675
    25   6 C      2.963     0.003    27.948     8.671
    26   6 C      2.963     0.003    27.952     8.672
    27   6 C      2.964     0.002    27.980     8.676
    28   6 C      2.965     0.001    28.001     8.680
    29   6 C      2.966     0.001    28.000     8.679
    30   6 C      3.033    -0.004    28.094     8.694
    31   6 C      3.038    -0.004    28.081     8.692
    32   6 C      2.963     0.004    27.934     8.669
    33   6 C      3.029    -0.003    28.078     8.692
    34   6 C      3.031    -0.006    28.148     8.702
    35   6 C      3.031    -0.005    28.112     8.697
    36   6 C      3.032    -0.005    28.106     8.696
    37   6 C      2.965     0.002    27.972     8.675
    38   6 C      3.038    -0.002    28.049     8.687
    39   6 C      3.033    -0.006    28.131     8.700
    40   6 C      3.036    -0.002    28.033     8.684
    41   6 C      3.026    -0.007    28.177     8.707
    42   6 C      3.023    -0.006    28.151     8.703
    43   6 C      3.023    -0.003    28.083     8.693
    44   6 C      3.033    -0.005    28.118     8.698
    45   6 C      3.036     0.001    27.969     8.674
    46   6 C      3.036     0.000    27.986     8.677
    47   6 C      3.031    -0.005    28.115     8.697
    48   6 C      3.032    -0.004    28.103     8.695
    49   6 C      2.963     0.004    27.935     8.669
    50   6 C      3.027    -0.008    28.191     8.709
    51   6 C      3.039     0.002    27.950     8.671
    52   6 C      3.013    -0.011    28.274     8.722
    53   6 C      3.944     0.013    20.292     6.401
    54   6 C      3.026    -0.005    28.116     8.698
    55   6 C      3.030    -0.003    28.061     8.689
    56   6 C      3.032    -0.004    28.094     8.694
    57   6 C      2.963     0.003    27.944     8.671
    58   6 C      3.032    -0.006    28.133     8.700
    59   6 C      3.021     0.000    27.994     8.679
    60   6 C      3.039     0.002    27.942     8.670
    61   6 C      3.013    -0.003    28.074     8.691
    62   6 C      3.940     0.017    20.231     6.392
    63   6 C      3.016    -0.010    28.236     8.716
    64   6 C      3.035    -0.001    28.016     8.682
    65   6 C      2.963     0.004    27.943     8.670
    66   6 C      3.036    -0.004    28.078     8.691
    67   6 C      3.020     0.000    28.005     8.681
    68   6 C      3.025    -0.009    28.209     8.712
    69   6 C      3.015    -0.003    28.068     8.691
    70   6 C      3.038    -0.002    28.049     8.687
    71   6 C      3.912     0.030    20.018     6.359
    72   6 C      2.964     0.009    27.819     8.651
    73   6 C      2.913    -0.031    28.776     8.796
    74   6 C      2.909    -0.027    28.670     8.780
    75   6 C      2.910    -0.028    28.697     8.784
    76   6 C      2.909    -0.027    28.682     8.782
    77   6 C      2.914    -0.032    28.799     8.800
    78   6 C      3.800    -0.056    21.578     6.614
    79   6 C      3.801    -0.053    21.528     6.606
    80   6 C      3.799    -0.087    22.168     6.704
    81   6 C      2.717     0.355    20.976     7.497
    82   8 O      0.856    -0.403    21.750     6.253
    83   8 O      1.703    -0.266    18.406     5.792
    84   6 C      3.647     0.033    20.337     6.480
    85   1 H      0.924     0.037     2.487     2.466
    86   1 H      0.924     0.036     2.499     2.472
    87   1 H      0.924     0.035     2.522     2.484
    88   1 H      0.924     0.034     2.524     2.484
    89   1 H      0.924     0.031     2.571     2.507
    90   1 H      0.923     0.047     2.359     2.402
    91   1 H      0.923     0.042     2.425     2.435
    92   1 H      0.923     0.057     2.237     2.339
    93   1 H      0.923     0.049     2.339     2.392
    94   1 H      0.923     0.065     2.137     2.286
    95   1 H      0.923     0.067     2.114     2.274
    96   1 H      0.923     0.062     2.172     2.305
    97   1 H      0.924     0.069     2.092     2.262
    98   1 H      0.923     0.064     2.148     2.292

 Mol. C6AA /au·bohr⁶  :     210493.865126
 Mol. C8AA /au·bohr⁸  :    5851474.808338
 Mol. α(0) /au        :        741.848975


Wiberg/Mayer (AO) data.
largest (>0.10) Wiberg bond orders for each atom
          total WBO             WBO to atom ...
     1  C   3.948        C    2 1.375    C    7 1.158    C    5 1.157
     2  C   3.949        C    1 1.375    C    8 1.159    C    3 1.155
     3  C   3.949        C    6 1.381    C    2 1.155    C    4 1.153
     4  C   3.950        C   11 1.385    C    3 1.153    C    9 1.153
     5  C   3.949        C   12 1.391    C    1 1.157    C   17 1.147
     6  C   3.949        C    3 1.381    C   12 1.155    C   13 1.155
     7  C   3.951        C   18 1.395    C    1 1.158    C   19 1.143
     8  C   3.949        C   10 1.375    C    2 1.159    C    9 1.155
     9  C   3.949        C   14 1.382    C    8 1.155    C    4 1.153
    10  C   3.948        C    8 1.375    C   18 1.158    C   45 1.157
    11  C   3.948        C    4 1.385    C   16 1.153    C   15 1.152
    12  C   3.949        C    5 1.391    C    6 1.155    C   20 1.149
    13  C   3.948        C   15 1.388    C    6 1.155    C   21 1.152
    14  C   3.949        C    9 1.382    C   24 1.155    C   46 1.154
    15  C   3.949        C   13 1.388    C   22 1.155    C   11 1.152
    16  C   3.949        C   24 1.387    C   23 1.155    C   11 1.153
    17  C   3.939        C   25 1.282    C   19 1.252    C    5 1.147
    18  C   3.951        C    7 1.395    C   10 1.158    C   47 1.143
    19  C   3.938        C   32 1.288    C   17 1.252    C    7 1.143
    20  C   3.936        C   26 1.286    C   21 1.249    C   12 1.149
    21  C   3.939        C   27 1.280    C   20 1.249    C   13 1.152
    22  C   3.935        C   28 1.284    C   23 1.241    C   15 1.155
    23  C   3.935        C   29 1.284    C   22 1.241    C   16 1.155
    24  C   3.948        C   16 1.387    C   14 1.155    C   30 1.152
    25  C   3.966        C   31 1.286    C   17 1.282    C   26 1.154
    26  C   3.964        C   20 1.286    C   33 1.281    C   25 1.154
    27  C   3.964        C   21 1.280    C   34 1.275    C   28 1.169
    28  C   3.964        C   22 1.284    C   35 1.268    C   27 1.169
    29  C   3.964        C   23 1.284    C   36 1.267    C   37 1.169
    30  C   3.939        C   37 1.280    C   48 1.249    C   24 1.152
    31  C   3.939        C   25 1.286    C   39 1.252    C   38 1.143
    32  C   3.964        C   19 1.288    C   39 1.279    C   49 1.154
    33  C   3.938        C   26 1.281    C   34 1.249    C   40 1.156
    34  C   3.940        C   27 1.275    C   33 1.249    C   41 1.157
    35  C   3.942        C   28 1.268    C   36 1.238    C   42 1.180
    36  C   3.942        C   29 1.267    C   35 1.238    C   43 1.182
    37  C   3.964        C   30 1.280    C   44 1.276    C   29 1.169
    38  C   3.946        C   40 1.372    C   50 1.185    C   31 1.143
    39  C   3.940        C   32 1.279    C   31 1.252    C   51 1.151
    40  C   3.950        C   38 1.372    C   52 1.167    C   33 1.156
    41  C   3.944        C   42 1.443    C   34 1.157    C   52 1.100
    42  C   3.948        C   41 1.443    C   35 1.180    C   53 1.056
    43  C   3.949        C   54 1.446    C   36 1.182    C   53 1.054
    44  C   3.941        C   37 1.276    C   55 1.248    C   54 1.159
    45  C   3.949        C   46 1.392    C   10 1.157    C   56 1.146
    46  C   3.949        C   45 1.392    C   14 1.154    C   48 1.149
    47  C   3.938        C   49 1.288    C   56 1.252    C   18 1.143
    48  C   3.936        C   57 1.285    C   30 1.249    C   46 1.149
    49  C   3.964        C   47 1.288    C   58 1.279    C   32 1.154
    50  C   3.945        C   59 1.351    C   38 1.185    C   51 1.151
    51  C   3.949        C   60 1.392    C   39 1.151    C   50 1.151
    52  C   3.950        C   61 1.435    C   40 1.167    C   41 1.100
    53  C   3.929        C   42 1.056    C   43 1.054    C   71 0.899    C   62 0.720
    54  C   3.945        C   43 1.446    C   44 1.159    C   63 1.101
    55  C   3.937        C   57 1.281    C   44 1.248    C   64 1.155
    56  C   3.939        C   65 1.282    C   47 1.252    C   45 1.146
    57  C   3.964        C   48 1.285    C   55 1.281    C   65 1.154
    58  C   3.940        C   49 1.279    C   66 1.253    C   60 1.151
    59  C   3.952        C   50 1.351    C   61 1.187    C   67 1.160
    60  C   3.949        C   51 1.392    C   68 1.152    C   58 1.151
    61  C   3.947        C   52 1.435    C   59 1.187    C   62 1.049
    62  C   3.930        C   69 1.049    C   61 1.049    C   71 0.913    C   53 0.720
    63  C   3.951        C   69 1.437    C   64 1.168    C   54 1.101
    64  C   3.949        C   70 1.372    C   63 1.168    C   55 1.155
    65  C   3.966        C   66 1.286    C   56 1.282    C   57 1.154
    66  C   3.939        C   65 1.286    C   58 1.253    C   70 1.142
    67  C   3.952        C   68 1.349    C   69 1.190    C   59 1.160
    68  C   3.945        C   67 1.349    C   70 1.186    C   60 1.152
    69  C   3.949        C   63 1.437    C   67 1.190    C   62 1.049
    70  C   3.945        C   64 1.372    C   68 1.186    C   66 1.142
    71  C   3.925        C   72 0.987    C   78 0.976    C   62 0.913    C   53 0.899
    72  C   3.984        C   73 1.413    C   77 1.407    C   71 0.987    C   75 0.110
    73  C   3.988        C   74 1.439    C   72 1.413    H   85 0.967    C   76 0.111
    74  C   3.990        C   75 1.441    C   73 1.439    H   86 0.970    C   77 0.112
    75  C   3.989        C   74 1.441    C   76 1.435    H   87 0.971    C   72 0.110
    76  C   3.990        C   77 1.446    C   75 1.435    H   88 0.971    C   73 0.111
    77  C   3.988        C   76 1.446    C   72 1.407    H   89 0.969    C   74 0.112
    78  C   3.991        C   79 1.004    C   71 0.976    H   91 0.972    H   90 0.969
    79  C   3.988        C   80 1.008    C   78 1.004    H   93 0.974    H   92 0.968
    80  C   3.993        C   79 1.008    C   81 0.973    H   94 0.956    H   95 0.950
    81  C   3.916        O   82 1.762    O   83 1.123    C   80 0.973
    82  O   2.043        C   81 1.762    O   83 0.170
    83  O   2.296        C   81 1.123    C   84 0.957    O   82 0.170
    84  C   3.924        H   97 0.982    H   98 0.977    H   96 0.977    O   83 0.957
    85  H   0.999        C   73 0.967
    86  H   0.998        C   74 0.970
    87  H   0.998        C   75 0.971
    88  H   0.998        C   76 0.971
    89  H   0.999        C   77 0.969
    90  H   0.997        C   78 0.969
    91  H   0.996        C   78 0.972
    92  H   0.997        C   79 0.968
    93  H   0.998        C   79 0.974
    94  H   0.996        C   80 0.956
    95  H   0.995        C   80 0.950
    96  H   0.996        C   84 0.977
    97  H   0.995        C   84 0.982
    98  H   0.996        C   84 0.977

molecular dipole:
                 x           y           z       tot (Debye)
 q only:        0.263       1.576       0.710
   full:        0.351       1.669       0.662       4.651
molecular quadrupole (traceless):
                xx          xy          yy          xz          yz          zz
 q only:      -27.714      -3.006      31.495       9.732      34.041      -3.782
  q+dip:      -29.451      -0.821      31.797      11.761      35.855      -2.346
   full:      -29.485      -1.489      33.781      12.422      34.980      -4.296


           -------------------------------------------------
          | TOTAL ENERGY             -190.957930983078 Eh   |
          | GRADIENT NORM               0.068957318895 Eh/α |
          | HOMO-LUMO GAP               1.341817138921 eV   |
           -------------------------------------------------

------------------------------------------------------------------------
 * finished run on 2020/11/20 at 13:45:47.533     
------------------------------------------------------------------------
 total:
 * wall-time:     0 d,  0 h,  0 min,  1.118 sec
 *  cpu-time:     0 d,  0 h,  0 min,  1.106 sec
 * ratio c/w:     0.990 speedup
 SCF:
 * wall-time:     0 d,  0 h,  0 min,  0.840 sec
 *  cpu-time:     0 d,  0 h,  0 min,  0.840 sec
 * ratio c/w:     1.000 speedup

