      -----------------------------------------------------------      
     |                   =====================                   |     
     |                           x T B                           |     
     |                   =====================                   |     
     |                         S. Grimme                         |     
     |          Mulliken Center for Theoretical Chemistry        |     
     |                    University of Bonn                     |     
     |                Version 6.2 RC2 (SAW190805)                |     
      -----------------------------------------------------------      

   This program is distributed in the hope that it will be useful,
   but WITHOUT ANY WARRANTY; without even the implied warranty of
   MERCHANTABILITY or FITNESS FOR A PARTICULAR PURPOSE.
   
   FOR NON-COMMERCIAL, ACADEMIA USE ONLY.
   
   Cite this work as:
   * S. Grimme, C. Bannwarth, P. Shushkov, J. Chem. Theory Comput., 2017,
     13, 1989-2009. DOI: 10.1021/acs.jctc.7b00118
   * C. Bannwarth, S. Ehlert and S. Grimme., J. Chem. Theory Comput., 2019,
     15, 1652-1671. DOI: 10.1021/acs.jctc.8b01176
   * P. Pracht, E. Caldeweyher, S. Ehlert, S. Grimme, ChemRxiv, 2019, preprint.
     DOI: 10.26434/chemrxiv.8326202.v1
   
   for DFT-D4:
   * E. Caldeweyher, C. Bannwarth and S. Grimme, J. Chem. Phys., 2017,
     147, 034112. DOI: 10.1063/1.4993215
   * E. Caldeweyher, S. Ehlert, A. Hansen, H. Neugebauer, S. Spicher,
     C. Bannwarth and S. Grimme, J. Chem. Phys., 2019, 150, 154122.
     DOI: 10.1063/1.5090222
   
   for sTDA-xTB:
   * S. Grimme and C. Bannwarth, J. Chem. Phys., 2016, 145, 054103.
     DOI: 10.1063/1.4959605
   
   in the mass-spec context:
   * V. Asgeirsson, C. Bauer and S. Grimme, Chem. Sci., 2017, 8, 4879.
     DOI: 10.1039/c7sc00601b
   
   for metadynamics refer to:
   * S. Grimme, J. Chem. Theory Comput., 2019, 155, 2847-2862
     DOI: 10.1021/acs.jctc.9b00143
   
   with help from (in alphabetical order)
   C. Bannwarth, F. Bohle, G. Brandenburg, E. Caldeweyher, M. Checinski,
   S. Dohm, S. Ehlert, S. Ehrlich, F. März, H. Neugebauer, J. Pisarek,
   P. Pracht, P. Shushkov, and S. Spicher.
   
 * started run on 2021/04/12 at 13:53:40.044     

           -------------------------------------------------
          |                Calculation Setup                |
           -------------------------------------------------

          program call               : /ihome/ghutchison/geoffh/xtb/xtb SNBDT1-F.xyz -sp
          hostname                   : smp-n149
          coordinate file            : SNBDT1-F.xyz
          omp threads                :                     1
          number of atoms            :                   122
          number of electrons        :                   378
          charge                     :                     0
          spin                       :                   0.0
          first test random number   :      0.04304947082848


########################################################################
# WARNING! Please study the warnings concerning your input carefully
#  - XTBPATH is not set, using XTBHOME instead
#  - the use of '-sp' is discouraged, please use '--sp' next time
########################################################################

           ------------------------------------------------- 
          |                 G F N 2 - x T B                 |
          | Geometry, Frequencies, Noncovalent interactions |
          |            JCTC 2019 parametrisation            |
           ------------------------------------------------- 
             KAB for C  - Si     :                1.0500
             KAB for H  - Pd     :                0.9500
             k(s)              :                1.8500
             k(p)              :                2.2300
             k(d)              :                2.2300
             k(f)              :                2.0000
             kEN (H0ij)        :               -2.0000
             D4 a1             :                0.5200
             D4 a2             :                5.0000
             D4 s6             :                1.0000
             D4 s8             :                2.7000
             D4 s9             :                5.0000
             alphaj            :                2.0000

  Z AO/shell   Hii/eV     exponent
  1     Wed Apr 25 08:07:45 CEST 2018   EN: 2.200 GM2: 0.406  GM3: 0.0800  RAES: 1.40
     1s    -10.707211    1.230000
  6     Wed Apr 25 08:07:45 CEST 2018   EN: 2.550 GM2: 0.538  GM3: 0.1500  RAES: 3.00
     2s    -13.970922    2.096432
     2p    -10.063292    1.800000
  7     Wed Apr 25 08:07:45 CEST 2018   EN: 3.040 GM2: 0.461  GM3:-0.0640  RAES: 1.90
     2s    -16.686243    2.339881
     2p    -12.523956    2.014332
  8     Wed Apr 25 08:07:45 CEST 2018   EN: 3.440 GM2: 0.452  GM3:-0.0517  RAES: 1.80
     2s    -20.229985    2.439742
     2p    -15.503117    2.137023
  9     Mon Apr 23 13:58:50 CEST 2018   EN: 3.980 GM2: 0.532  GM3: 0.1426  RAES: 2.40
     2s    -23.458179    2.416361
     2p    -15.746583    2.308399
 16     Tue Apr 24 11:44:34 CEST 2018   EN: 2.580 GM2: 0.340  GM3:-0.0502  RAES: 3.10
     3s    -20.029654    1.981333
     3p    -11.377694    2.025643
     3d     -0.420282    1.702555

           ------------------------------------------------- 
          |        Self-Consistent Charge Iterations        |
           ------------------------------------------------- 

          ...................................................
          :                      SETUP                      :
          :.................................................:
          :  # basis functions                 374          :
          :  # atomic orbitals                 370          :
          :  # shells                          202          :
          :  # electrons                       378          :
          :  max. iterations                   250          :
          :  Hamiltonian                  GFN2-xTB          :
          :  restarted?                      false          :
          :  GBSA solvation                  false          :
          :  PC potential                    false          :
          :  electronic temp.          300.0000000     K    :
          :  accuracy                    1.0000000          :
          :  -> integral cutoff          0.2500000E+02      :
          :  -> integral neglect         0.1000000E-07      :
          :  -> SCF convergence          0.1000000E-05 Eh   :
          :  -> wf. convergence          0.1000000E-03 e    :
          :  Broyden damping             0.4000000          :
          ...................................................

 iter      E             dE          RMSdq      gap      omega  full diag
   1   -210.6403944 -0.210640E+03  0.454E+00    1.22       0.0  T
   2   -210.8026886 -0.162294E+00  0.283E+00    1.12       1.0  T
   3   -210.6255870  0.177102E+00  0.201E+00    0.65       1.0  T
   4   -210.9389505 -0.313363E+00  0.769E-01    0.95       1.0  T
   5   -211.0004321 -0.614816E-01  0.238E-01    0.73       1.0  T
   6   -211.0044184 -0.398636E-02  0.120E-01    0.84       1.0  T
   7   -211.0054829 -0.106446E-02  0.591E-02    0.81       1.0  T
   8   -211.0058312 -0.348321E-03  0.218E-02    0.82       1.0  T
   9   -211.0058588 -0.275738E-04  0.119E-02    0.82       1.0  T
  10   -211.0058684 -0.957999E-05  0.546E-03    0.82       1.7  T
  11   -211.0058690 -0.571605E-06  0.321E-03    0.82       2.8  T
  12   -211.0058700 -0.103333E-05  0.130E-03    0.82       7.0  T
  13   -211.0058701 -0.671602E-07  0.768E-04    0.82      11.8  T
  14   -211.0058701 -0.225421E-07  0.385E-04    0.82      23.5  T

   *** convergence criteria satisfied after 14 iterations ***

         #    Occupation            Energy/Eh            Energy/eV
      -------------------------------------------------------------
         1        2.0000           -0.8411778             -22.8896
       ...           ...                  ...                  ...
       183        2.0000           -0.4115806             -11.1997
       184        2.0000           -0.4049509             -11.0193
       185        2.0000           -0.4036363             -10.9835
       186        2.0000           -0.3943699             -10.7314
       187        2.0000           -0.3887370             -10.5781
       188        2.0000           -0.3841826             -10.4541
       189        2.0000           -0.3687542             -10.0343 (HOMO)
       190        0.0000           -0.3386769              -9.2159 (LUMO)
       191                         -0.3305870              -8.9957
       192                         -0.3242786              -8.8241
       193                         -0.3176474              -8.6436
       194                         -0.2870709              -7.8116
       ...                                ...                  ...
       370                          1.0751302              29.2558
      -------------------------------------------------------------
                  HL-Gap            0.0300773 Eh            0.8184 eV
             Fermi-level           -0.3537157 Eh           -9.6251 eV

 SCC (total)                   0 d,  0 h,  0 min,  0.775 sec
 SCC setup                      ...        0 min,  0.003 sec (  0.398%)
 Dispersion                     ...        0 min,  0.007 sec (  0.935%)
 integral evaluation            ...        0 min,  0.244 sec ( 31.485%)
 zeroth order Hamiltonian       ...        0 min,  0.002 sec (  0.204%)
 iterations                     ...        0 min,  0.312 sec ( 40.237%)
 molecular gradient             ...        0 min,  0.204 sec ( 26.367%)
 printout                       ...        0 min,  0.003 sec (  0.366%)

         :::::::::::::::::::::::::::::::::::::::::::::::::::::
         ::                     SUMMARY                     ::
         :::::::::::::::::::::::::::::::::::::::::::::::::::::
         :: total energy            -208.099372678378 Eh    ::
         :: gradient norm              0.108820918823 Eh/a0 ::
         :: HOMO-LUMO gap              0.818445367379 eV    ::
         ::.................................................::
         :: SCC energy              -211.005870073509 Eh    ::
         :: -> isotropic ES            0.144603057895 Eh    ::
         :: -> anisotropic ES          0.015778683042 Eh    ::
         :: -> anisotropic XC          0.122915528892 Eh    ::
         :: -> dispersion             -0.181158225474 Eh    ::
         :: repulsion energy           2.904083220472 Eh    ::
         :: add. restraining           0.000000000000 Eh    ::
         :::::::::::::::::::::::::::::::::::::::::::::::::::::

           -------------------------------------------------
          |                Property Printout                |
           -------------------------------------------------

    * Orbital Energies and Occupations

         #    Occupation            Energy/Eh            Energy/eV
      -------------------------------------------------------------
         1        2.0000           -0.8411778             -22.8896
       ...           ...                  ...                  ...
       177        2.0000           -0.4289896             -11.6734
       178        2.0000           -0.4263771             -11.6023
       179        2.0000           -0.4232086             -11.5161
       180        2.0000           -0.4199234             -11.4267
       181        2.0000           -0.4191476             -11.4056
       182        2.0000           -0.4153926             -11.3034
       183        2.0000           -0.4115806             -11.1997
       184        2.0000           -0.4049509             -11.0193
       185        2.0000           -0.4036363             -10.9835
       186        2.0000           -0.3943699             -10.7314
       187        2.0000           -0.3887370             -10.5781
       188        2.0000           -0.3841826             -10.4541
       189        2.0000           -0.3687542             -10.0343 (HOMO)
       190        0.0000           -0.3386769              -9.2159 (LUMO)
       191                         -0.3305870              -8.9957
       192                         -0.3242786              -8.8241
       193                         -0.3176474              -8.6436
       194                         -0.2870709              -7.8116
       195                         -0.2738384              -7.4515
       196                         -0.2654816              -7.2241
       197                         -0.2576213              -7.0102
       198                         -0.2526876              -6.8760
       199                         -0.2483662              -6.7584
       200                         -0.2407514              -6.5512
       ...                                ...                  ...
       370                          1.0751302              29.2558
      -------------------------------------------------------------
                  HL-Gap            0.0300773 Eh            0.8184 eV
             Fermi-level           -0.3537157 Eh           -9.6251 eV

     #   Z        covCN         q      C6AA      α(0)
     1   6 C      3.057    -0.031    28.712     8.788
     2   6 C      2.887     0.124    25.270     8.242
     3   6 C      2.996     0.003    27.951     8.673
     4   6 C      3.036    -0.030    28.704     8.788
     5   6 C      2.849     0.130    25.143     8.218
     6   6 C      2.976    -0.011    28.285     8.724
     7  16 S      2.139    -0.024   142.032    20.058
     8   6 C      3.085    -0.003    27.997     8.674
     9   6 C      3.153     0.038    26.875     8.478
    10   6 C      3.062     0.005    27.840     8.652
    11   6 C      3.237     0.035    26.341     8.326
    12   7 N      2.786    -0.033    21.874     6.946
    13  16 S      2.193    -0.026   142.126    20.065
    14   6 C      2.981     0.027    27.404     8.587
    15   6 C      3.017    -0.048    29.170     8.859
    16  16 S      2.143    -0.069   143.928    20.192
    17   6 C      3.072     0.002    27.911     8.662
    18   6 C      3.194     0.039    26.629     8.415
    19   6 C      3.064     0.001    27.938     8.667
    20   6 C      3.259     0.041    25.976     8.238
    21   7 N      2.780    -0.044    22.088     6.980
    22  16 S      2.212    -0.004   141.230    20.002
    23   6 C      2.988     0.024    27.459     8.596
    24   6 C      3.016    -0.046    29.131     8.853
    25   8 O      1.703    -0.269    18.468     5.802
    26   8 O      1.699    -0.303    19.054     5.893
    27   6 C      3.697     0.076    19.477     6.313
    28   6 C      3.847    -0.013    20.772     6.483
    29   6 C      3.748    -0.106    22.592     6.779
    30   6 C      3.751    -0.109    22.644     6.786
    31   6 C      3.685     0.077    19.479     6.319
    32   6 C      3.847    -0.012    20.763     6.481
    33   6 C      3.748    -0.108    22.624     6.784
    34   6 C      3.750    -0.110    22.672     6.791
    35   6 C      3.739    -0.011    20.853     6.516
    36   6 C      3.846    -0.009    20.713     6.474
    37   6 C      3.741    -0.019    20.992     6.537
    38   6 C      3.847    -0.011    20.745     6.479
    39   6 C      3.748    -0.101    22.488     6.764
    40   6 C      3.751    -0.108    22.618     6.782
    41   6 C      3.749    -0.106    22.590     6.779
    42   6 C      3.748    -0.101    22.496     6.765
    43   6 C      2.914    -0.012    28.315     8.726
    44   6 C      2.988    -0.035    28.857     8.812
    45   6 C      2.862     0.225    23.287     7.910
    46   6 C      3.027    -0.015    28.358     8.735
    47   6 C      3.011     0.004    27.917     8.667
    48   6 C      3.003     0.034    27.231     8.560
    49   6 C      2.904    -0.035    28.879     8.811
    50   6 C      2.781     0.177    24.201     8.058
    51   6 C      2.910    -0.041    29.012     8.832
    52   6 C      2.909    -0.026    28.648     8.777
    53   6 C      2.918    -0.008    28.226     8.712
    54   6 C      2.987    -0.036    28.892     8.817
    55   6 C      2.859     0.225    23.270     7.907
    56   6 C      3.022    -0.014    28.349     8.734
    57   6 C      3.011     0.002    27.952     8.673
    58   6 C      2.998     0.032    27.283     8.568
    59   6 C      2.904    -0.035    28.866     8.810
    60   6 C      2.779     0.178    24.179     8.054
    61   6 C      2.910    -0.041    29.008     8.832
    62   6 C      2.909    -0.027    28.673     8.780
    63   8 O      0.856    -0.353    20.769     6.110
    64   9 F      0.787    -0.202    11.260     3.964
    65   6 C      2.944     0.004    27.926     8.667
    66   6 C      1.916     0.116    28.232     8.581
    67   6 C      1.915     0.117    28.213     8.578
    68   7 N      0.911    -0.234    26.137     7.394
    69   7 N      0.911    -0.235    26.153     7.396
    70   8 O      0.856    -0.362    20.932     6.134
    71   9 F      0.787    -0.205    11.284     3.968
    72   6 C      2.944     0.010    27.794     8.647
    73   6 C      1.910     0.118    28.188     8.574
    74   6 C      1.911     0.120    28.148     8.568
    75   7 N      0.911    -0.233    26.108     7.390
    76   7 N      0.911    -0.233    26.094     7.388
    77   1 H      0.925     0.055     2.256     2.349
    78   1 H      0.925     0.041     2.433     2.439
    79   1 H      0.923     0.030     2.590     2.517
    80   1 H      0.923     0.049     2.332     2.388
    81   1 H      0.923     0.036     2.504     2.475
    82   1 H      0.923     0.038     2.482     2.464
    83   1 H      0.923     0.049     2.332     2.388
    84   1 H      0.923     0.042     2.416     2.431
    85   1 H      0.923     0.038     2.477     2.461
    86   1 H      0.923     0.049     2.337     2.391
    87   1 H      0.923     0.037     2.492     2.469
    88   1 H      0.923     0.031     2.570     2.507
    89   1 H      0.923     0.051     2.309     2.376
    90   1 H      0.923     0.042     2.423     2.435
    91   1 H      0.923     0.043     2.410     2.428
    92   1 H      0.923     0.048     2.350     2.397
    93   1 H      0.923     0.041     2.437     2.441
    94   1 H      0.923     0.042     2.419     2.432
    95   1 H      0.923     0.047     2.357     2.401
    96   1 H      0.923     0.037     2.496     2.471
    97   1 H      0.924     0.082     1.956     2.187
    98   1 H      0.923     0.050     2.323     2.384
    99   1 H      0.922     0.036     2.501     2.473
   100   1 H      0.925     0.091     1.869     2.138
   101   1 H      0.923     0.053     2.279     2.361
   102   1 H      0.923     0.037     2.486     2.466
   103   1 H      0.923     0.043     2.414     2.430
   104   1 H      0.923     0.033     2.538     2.491
   105   1 H      0.923     0.033     2.551     2.498
   106   1 H      0.923     0.038     2.482     2.464
   107   1 H      0.923     0.045     2.378     2.411
   108   1 H      0.923     0.042     2.428     2.437
   109   1 H      0.923     0.038     2.476     2.461
   110   1 H      0.923     0.036     2.497     2.471
   111   1 H      0.923     0.045     2.388     2.417
   112   1 H      0.923     0.036     2.504     2.475
   113   1 H      0.923     0.040     2.455     2.450
   114   1 H      0.923     0.034     2.531     2.488
   115   1 H      0.924     0.080     1.977     2.199
   116   1 H      0.924     0.081     1.966     2.193
   117   1 H      0.924     0.072     2.067     2.249
   118   1 H      0.925     0.068     2.108     2.271
   119   1 H      0.924     0.082     1.956     2.187
   120   1 H      0.924     0.083     1.949     2.183
   121   1 H      0.924     0.073     2.054     2.241
   122   1 H      0.925     0.067     2.124     2.279

 Mol. C6AA /au·bohr⁶  :     226965.775293
 Mol. C8AA /au·bohr⁸  :    6060349.348511
 Mol. α(0) /au        :        749.303185


Wiberg/Mayer (AO) data.
largest (>0.10) Wiberg bond orders for each atom
          total WBO             WBO to atom ...
     1  C   3.959        C    2 1.291    C    6 1.242    C   18 1.181
     2  C   3.924        C    3 1.378    C    1 1.291    O   26 1.031
     3  C   3.938        C    2 1.378    C    4 1.248    S    7 1.091
     4  C   3.951        C    5 1.264    C    3 1.248    C    9 1.179
     5  C   3.916        C    6 1.370    C    4 1.264    O   25 1.071
     6  C   3.928        C    5 1.370    C    1 1.242    S   16 1.067
     7  S   2.483        C    3 1.091    C    8 1.088
     8  C   3.926        C   10 1.318    C    9 1.306    S    7 1.088
     9  C   3.904        C    8 1.306    C    4 1.179    N   12 1.175
    10  C   3.933        C    8 1.318    C   11 1.250    S   13 1.132
    11  C   3.937        C   15 1.329    C   10 1.250    N   12 1.154
    12  N   3.573        C    9 1.175    C   11 1.154    C   37 0.979
    13  S   2.534        C   10 1.132    C   14 1.082
    14  C   3.927        C   15 1.411    C   43 1.264    S   13 1.082
    15  C   3.966        C   14 1.411    C   11 1.329    H   77 0.960
    16  S   2.451        C   17 1.078    C    6 1.067
    17  C   3.924        C   18 1.324    C   19 1.302    S   16 1.078
    18  C   3.910        C   17 1.324    C    1 1.181    N   21 1.162
    19  C   3.926        C   17 1.302    C   20 1.255    S   22 1.138
    20  C   3.945        C   24 1.325    C   19 1.255    N   21 1.153
    21  N   3.558        C   18 1.162    C   20 1.153    C   35 0.977
    22  S   2.535        C   19 1.138    C   23 1.084
    23  C   3.928        C   24 1.427    C   53 1.245    S   22 1.084
    24  C   3.974        C   23 1.427    C   20 1.325    H   78 0.959
    25  O   2.228        C    5 1.071    C   31 0.947
    26  O   2.135        C    2 1.031    C   27 0.928
    27  C   3.930        C   28 0.990    H   79 0.969    H   80 0.967    O   26 0.928
    28  C   3.993        C   29 1.010    C   30 1.004    C   27 0.990    H   81 0.965
    29  C   3.994        C   28 1.010    H   84 0.986    H   82 0.986    H   83 0.982
    30  C   3.994        C   28 1.004    H   85 0.986    H   87 0.986    H   86 0.985
    31  C   3.932        C   32 0.990    H   88 0.969    H   89 0.954    O   25 0.947
    32  C   3.991        C   33 1.009    C   34 1.006    C   31 0.990    H   90 0.955
    33  C   3.994        C   32 1.009    H   93 0.986    H   91 0.985    H   92 0.982
    34  C   3.993        C   32 1.006    H   96 0.986    H   94 0.986    H   95 0.985
    35  C   3.956        C   36 0.978    N   21 0.977    H   98 0.968    H   97 0.955
    36  C   3.990        C   39 1.011    C   40 1.006    C   35 0.978    H   99 0.968
    37  C   3.954        C   38 0.979    N   12 0.979    H  101 0.965    H  100 0.949
    38  C   3.990        C   42 1.011    C   41 1.008    C   37 0.979    H  102 0.964
    39  C   3.995        C   36 1.011    H  104 0.985    H  103 0.984    H  105 0.984
    40  C   3.993        C   36 1.006    H  106 0.986    H  108 0.986    H  107 0.985
    41  C   3.993        C   38 1.008    H  110 0.985    H  111 0.985    H  109 0.982
    42  C   3.996        C   38 1.011    H  113 0.986    H  114 0.985    H  112 0.983
    43  C   3.947        C   44 1.529    C   14 1.264    H  115 0.943
    44  C   3.949        C   43 1.529    C   48 1.144    C   45 1.017
    45  C   3.923        O   70 1.779    C   44 1.017    C   46 1.008
    46  C   3.974        C   49 1.421    C   47 1.304    C   45 1.008
    47  C   3.979        C   52 1.397    C   46 1.304    C   48 1.070
    48  C   3.973        C   72 1.485    C   44 1.144    C   47 1.070
    49  C   3.980        C   46 1.421    C   50 1.379    H  116 0.961
    50  C   3.875        C   51 1.383    C   49 1.379    F   71 0.979
    51  C   3.977        C   52 1.439    C   50 1.383    H  117 0.965
    52  C   3.976        C   51 1.439    C   47 1.397    H  118 0.962
    53  C   3.939        C   54 1.538    C   23 1.245    H  119 0.949
    54  C   3.951        C   53 1.538    C   58 1.140    C   55 1.013
    55  C   3.920        O   63 1.788    C   54 1.013    C   56 1.006
    56  C   3.975        C   59 1.421    C   57 1.305    C   55 1.006
    57  C   3.982        C   62 1.393    C   56 1.305    C   58 1.073
    58  C   3.972        C   65 1.486    C   54 1.140    C   57 1.073
    59  C   3.980        C   56 1.421    C   60 1.378    H  120 0.961
    60  C   3.875        C   61 1.381    C   59 1.378    F   64 0.981
    61  C   3.977        C   62 1.441    C   60 1.381    H  121 0.965
    62  C   3.976        C   61 1.441    C   57 1.393    H  122 0.961
    63  O   2.064        C   55 1.788
    64  F   1.116        C   60 0.981
    65  C   3.966        C   58 1.486    C   67 1.095    C   66 1.095
    66  C   3.941        N   68 2.767    C   65 1.095
    67  C   3.942        N   69 2.770    C   65 1.095
    68  N   2.969        C   66 2.767
    69  N   2.977        C   67 2.770
    70  O   2.056        C   45 1.779
    71  F   1.113        C   50 0.979
    72  C   3.963        C   48 1.485    C   73 1.097    C   74 1.094
    73  C   3.942        N   76 2.770    C   72 1.097
    74  C   3.942        N   75 2.773    C   72 1.094
    75  N   2.979        C   74 2.773
    76  N   2.969        C   73 2.770
    77  H   0.996        C   15 0.960
    78  H   0.998        C   24 0.959
    79  H   0.999        C   27 0.969
    80  H   0.997        C   27 0.967
    81  H   0.999        C   28 0.965
    82  H   0.999        C   29 0.986
    83  H   0.998        C   29 0.982
    84  H   0.998        C   29 0.986
    85  H   0.998        C   30 0.986
    86  H   0.997        C   30 0.985
    87  H   0.999        C   30 0.986
    88  H   0.998        C   31 0.969
    89  H   0.996        C   31 0.954
    90  H   0.998        C   32 0.955
    91  H   0.998        C   33 0.985
    92  H   0.998        C   33 0.982
    93  H   0.998        C   33 0.986
    94  H   0.998        C   34 0.986
    95  H   0.997        C   34 0.985
    96  H   0.999        C   34 0.986
    97  H   0.992        C   35 0.955
    98  H   0.997        C   35 0.968
    99  H   0.999        C   36 0.968
   100  H   0.991        C   37 0.949
   101  H   0.996        C   37 0.965
   102  H   0.998        C   38 0.964
   103  H   0.998        C   39 0.984
   104  H   0.999        C   39 0.985
   105  H   0.999        C   39 0.984
   106  H   0.999        C   40 0.986
   107  H   0.997        C   40 0.985
   108  H   0.998        C   40 0.986
   109  H   0.998        C   41 0.982
   110  H   0.999        C   41 0.985
   111  H   0.997        C   41 0.985
   112  H   0.999        C   42 0.983
   113  H   0.998        C   42 0.986
   114  H   0.999        C   42 0.985
   115  H   0.991        C   43 0.943
   116  H   0.993        C   49 0.961
   117  H   0.994        C   51 0.965
   118  H   0.995        C   52 0.962
   119  H   0.990        C   53 0.949
   120  H   0.992        C   59 0.961
   121  H   0.994        C   61 0.965
   122  H   0.995        C   62 0.961

molecular dipole:
                 x           y           z       tot (Debye)
 q only:       -1.211      -3.098      -0.511
   full:       -1.758      -3.332      -0.849       9.816
molecular quadrupole (traceless):
                xx          xy          yy          xz          yz          zz
 q only:     -102.258      30.724      47.441      29.700     -27.365      54.817
  q+dip:      -77.330      13.113      36.255      33.836     -27.251      41.075
   full:      -81.279      14.832      35.597      37.819     -17.622      45.683


           -------------------------------------------------
          | TOTAL ENERGY             -208.099372678378 Eh   |
          | GRADIENT NORM               0.108820918823 Eh/α |
          | HOMO-LUMO GAP               0.818445367379 eV   |
           -------------------------------------------------

------------------------------------------------------------------------
 * finished run on 2021/04/12 at 13:53:41.085     
------------------------------------------------------------------------
 total:
 * wall-time:     0 d,  0 h,  0 min,  1.041 sec
 *  cpu-time:     0 d,  0 h,  0 min,  1.029 sec
 * ratio c/w:     0.988 speedup
 SCF:
 * wall-time:     0 d,  0 h,  0 min,  0.776 sec
 *  cpu-time:     0 d,  0 h,  0 min,  0.774 sec
 * ratio c/w:     0.998 speedup

