      -----------------------------------------------------------      
     |                   =====================                   |     
     |                           x T B                           |     
     |                   =====================                   |     
     |                         S. Grimme                         |     
     |          Mulliken Center for Theoretical Chemistry        |     
     |                    University of Bonn                     |     
     |                Version 6.2 RC2 (SAW190805)                |     
      -----------------------------------------------------------      

   This program is distributed in the hope that it will be useful,
   but WITHOUT ANY WARRANTY; without even the implied warranty of
   MERCHANTABILITY or FITNESS FOR A PARTICULAR PURPOSE.
   
   FOR NON-COMMERCIAL, ACADEMIA USE ONLY.
   
   Cite this work as:
   * S. Grimme, C. Bannwarth, P. Shushkov, J. Chem. Theory Comput., 2017,
     13, 1989-2009. DOI: 10.1021/acs.jctc.7b00118
   * C. Bannwarth, S. Ehlert and S. Grimme., J. Chem. Theory Comput., 2019,
     15, 1652-1671. DOI: 10.1021/acs.jctc.8b01176
   * P. Pracht, E. Caldeweyher, S. Ehlert, S. Grimme, ChemRxiv, 2019, preprint.
     DOI: 10.26434/chemrxiv.8326202.v1
   
   for DFT-D4:
   * E. Caldeweyher, C. Bannwarth and S. Grimme, J. Chem. Phys., 2017,
     147, 034112. DOI: 10.1063/1.4993215
   * E. Caldeweyher, S. Ehlert, A. Hansen, H. Neugebauer, S. Spicher,
     C. Bannwarth and S. Grimme, J. Chem. Phys., 2019, 150, 154122.
     DOI: 10.1063/1.5090222
   
   for sTDA-xTB:
   * S. Grimme and C. Bannwarth, J. Chem. Phys., 2016, 145, 054103.
     DOI: 10.1063/1.4959605
   
   in the mass-spec context:
   * V. Asgeirsson, C. Bauer and S. Grimme, Chem. Sci., 2017, 8, 4879.
     DOI: 10.1039/c7sc00601b
   
   for metadynamics refer to:
   * S. Grimme, J. Chem. Theory Comput., 2019, 155, 2847-2862
     DOI: 10.1021/acs.jctc.9b00143
   
   with help from (in alphabetical order)
   C. Bannwarth, F. Bohle, G. Brandenburg, E. Caldeweyher, M. Checinski,
   S. Dohm, S. Ehlert, S. Ehrlich, F. März, H. Neugebauer, J. Pisarek,
   P. Pracht, P. Shushkov, and S. Spicher.
   
 * started run on 2021/04/12 at 13:53:44.095     

           -------------------------------------------------
          |                Calculation Setup                |
           -------------------------------------------------

          program call               : /ihome/ghutchison/geoffh/xtb/xtb TPIC-4Cl.xyz -sp
          hostname                   : smp-n149
          coordinate file            : TPIC-4Cl.xyz
          omp threads                :                     1
          number of atoms            :                   145
          number of electrons        :                   454
          charge                     :                     0
          spin                       :                   0.0
          first test random number   :      0.48287393015077


########################################################################
# WARNING! Please study the warnings concerning your input carefully
#  - XTBPATH is not set, using XTBHOME instead
#  - the use of '-sp' is discouraged, please use '--sp' next time
########################################################################

           ------------------------------------------------- 
          |                 G F N 2 - x T B                 |
          | Geometry, Frequencies, Noncovalent interactions |
          |            JCTC 2019 parametrisation            |
           ------------------------------------------------- 
             KAB for C  - Si     :                1.0500
             KAB for H  - Pd     :                0.9500
             k(s)              :                1.8500
             k(p)              :                2.2300
             k(d)              :                2.2300
             k(f)              :                2.0000
             kEN (H0ij)        :               -2.0000
             D4 a1             :                0.5200
             D4 a2             :                5.0000
             D4 s6             :                1.0000
             D4 s8             :                2.7000
             D4 s9             :                5.0000
             alphaj            :                2.0000

  Z AO/shell   Hii/eV     exponent
  1     Wed Apr 25 08:07:45 CEST 2018   EN: 2.200 GM2: 0.406  GM3: 0.0800  RAES: 1.40
     1s    -10.707211    1.230000
  6     Wed Apr 25 08:07:45 CEST 2018   EN: 2.550 GM2: 0.538  GM3: 0.1500  RAES: 3.00
     2s    -13.970922    2.096432
     2p    -10.063292    1.800000
  7     Wed Apr 25 08:07:45 CEST 2018   EN: 3.040 GM2: 0.461  GM3:-0.0640  RAES: 1.90
     2s    -16.686243    2.339881
     2p    -12.523956    2.014332
  8     Wed Apr 25 08:07:45 CEST 2018   EN: 3.440 GM2: 0.452  GM3:-0.0517  RAES: 1.80
     2s    -20.229985    2.439742
     2p    -15.503117    2.137023
 16     Tue Apr 24 11:44:34 CEST 2018   EN: 2.580 GM2: 0.340  GM3:-0.0502  RAES: 3.10
     3s    -20.029654    1.981333
     3p    -11.377694    2.025643
     3d     -0.420282    1.702555
 17     Mon Apr 23 14:09:22 CEST 2018   EN: 3.160 GM2: 0.249  GM3: 0.1495  RAES: 2.50
     3s    -29.278781    2.485265
     3p    -12.673758    2.199650
     3d     -0.240338    2.476089

           ------------------------------------------------- 
          |        Self-Consistent Charge Iterations        |
           ------------------------------------------------- 

          ...................................................
          :                      SETUP                      :
          :.................................................:
          :  # basis functions                 469          :
          :  # atomic orbitals                 462          :
          :  # shells                          246          :
          :  # electrons                       454          :
          :  max. iterations                   250          :
          :  Hamiltonian                  GFN2-xTB          :
          :  restarted?                      false          :
          :  GBSA solvation                  false          :
          :  PC potential                    false          :
          :  electronic temp.          300.0000000     K    :
          :  accuracy                    1.0000000          :
          :  -> integral cutoff          0.2500000E+02      :
          :  -> integral neglect         0.1000000E-07      :
          :  -> SCF convergence          0.1000000E-05 Eh   :
          :  -> wf. convergence          0.1000000E-03 e    :
          :  Broyden damping             0.4000000          :
          ...................................................

 iter      E             dE          RMSdq      gap      omega  full diag
   1   -251.3312434 -0.251331E+03  0.458E+00    1.25       0.0  T
   2   -251.4518299 -0.120587E+00  0.283E+00    1.11       1.0  T
   3   -251.1094434  0.342387E+00  0.206E+00    0.92       1.0  T
   4   -251.5813990 -0.471956E+00  0.654E-01    1.21       1.0  T
   5   -251.6336595 -0.522605E-01  0.208E-01    1.00       1.0  T
   6   -251.6378428 -0.418323E-02  0.116E-01    1.10       1.0  T
   7   -251.6394728 -0.163008E-02  0.570E-02    1.06       1.0  T
   8   -251.6397317 -0.258840E-03  0.324E-02    1.07       1.0  T
   9   -251.6397782 -0.465018E-04  0.229E-02    1.07       1.0  T
  10   -251.6398015 -0.232841E-04  0.168E-02    1.07       1.0  T
  11   -251.6398140 -0.125651E-04  0.102E-02    1.07       1.0  T
  12   -251.6398207 -0.663589E-05  0.542E-03    1.07       1.5  T
  13   -251.6398219 -0.119124E-05  0.251E-03    1.07       3.3  T
  14   -251.6398224 -0.531031E-06  0.132E-03    1.07       6.3  T
  15   -251.6398226 -0.184656E-06  0.677E-04    1.07      12.3  T
  16   -251.6398226 -0.281911E-07  0.422E-04    1.07      19.7  T

   *** convergence criteria satisfied after 16 iterations ***

         #    Occupation            Energy/Eh            Energy/eV
      -------------------------------------------------------------
         1        2.0000           -1.0729375             -29.1961
       ...           ...                  ...                  ...
       221        2.0000           -0.4064168             -11.0592
       222        2.0000           -0.4034327             -10.9780
       223        2.0000           -0.4003996             -10.8954
       224        2.0000           -0.3942350             -10.7277
       225        2.0000           -0.3939041             -10.7187
       226        2.0000           -0.3862238             -10.5097
       227        2.0000           -0.3774241             -10.2702 (HOMO)
       228                         -0.3381794              -9.2023 (LUMO)
       229                         -0.3334115              -9.0726
       230                         -0.3258663              -8.8673
       231                         -0.3213107              -8.7433
       232                         -0.2911457              -7.9225
       ...                                ...                  ...
       462                          1.0699770              29.1156
      -------------------------------------------------------------
                  HL-Gap            0.0392446 Eh            1.0679 eV
             Fermi-level           -0.3578048 Eh           -9.7364 eV

 SCC (total)                   0 d,  0 h,  0 min,  1.261 sec
 SCC setup                      ...        0 min,  0.004 sec (  0.342%)
 Dispersion                     ...        0 min,  0.009 sec (  0.705%)
 integral evaluation            ...        0 min,  0.364 sec ( 28.864%)
 zeroth order Hamiltonian       ...        0 min,  0.002 sec (  0.157%)
 iterations                     ...        0 min,  0.594 sec ( 47.114%)
 molecular gradient             ...        0 min,  0.283 sec ( 22.454%)
 printout                       ...        0 min,  0.005 sec (  0.358%)

         :::::::::::::::::::::::::::::::::::::::::::::::::::::
         ::                     SUMMARY                     ::
         :::::::::::::::::::::::::::::::::::::::::::::::::::::
         :: total energy            -247.897083501469 Eh    ::
         :: gradient norm              0.107495767291 Eh/a0 ::
         :: HOMO-LUMO gap              1.067900755407 eV    ::
         ::.................................................::
         :: SCC energy              -251.639822606878 Eh    ::
         :: -> isotropic ES            0.105538743509 Eh    ::
         :: -> anisotropic ES          0.014077825408 Eh    ::
         :: -> anisotropic XC          0.164381154254 Eh    ::
         :: -> dispersion             -0.227183334695 Eh    ::
         :: repulsion energy           3.740487331381 Eh    ::
         :: add. restraining           0.000000000000 Eh    ::
         :::::::::::::::::::::::::::::::::::::::::::::::::::::

           -------------------------------------------------
          |                Property Printout                |
           -------------------------------------------------

    * Orbital Energies and Occupations

         #    Occupation            Energy/Eh            Energy/eV
      -------------------------------------------------------------
         1        2.0000           -1.0729375             -29.1961
       ...           ...                  ...                  ...
       215        2.0000           -0.4125033             -11.2248
       216        2.0000           -0.4111530             -11.1880
       217        2.0000           -0.4101280             -11.1602
       218        2.0000           -0.4076286             -11.0921
       219        2.0000           -0.4073550             -11.0847
       220        2.0000           -0.4070728             -11.0770
       221        2.0000           -0.4064168             -11.0592
       222        2.0000           -0.4034327             -10.9780
       223        2.0000           -0.4003996             -10.8954
       224        2.0000           -0.3942350             -10.7277
       225        2.0000           -0.3939041             -10.7187
       226        2.0000           -0.3862238             -10.5097
       227        2.0000           -0.3774241             -10.2702 (HOMO)
       228                         -0.3381794              -9.2023 (LUMO)
       229                         -0.3334115              -9.0726
       230                         -0.3258663              -8.8673
       231                         -0.3213107              -8.7433
       232                         -0.2911457              -7.9225
       233                         -0.2776919              -7.5564
       234                         -0.2691680              -7.3244
       235                         -0.2555956              -6.9551
       236                         -0.2537694              -6.9054
       237                         -0.2480133              -6.7488
       238                         -0.2475228              -6.7354
       ...                                ...                  ...
       462                          1.0699770              29.1156
      -------------------------------------------------------------
                  HL-Gap            0.0392446 Eh            1.0679 eV
             Fermi-level           -0.3578048 Eh           -9.7364 eV

     #   Z        covCN         q      C6AA      α(0)
     1   6 C      2.932    -0.012    28.326     8.728
     2   6 C      2.981    -0.038    28.946     8.825
     3   6 C      3.002     0.030    27.308     8.572
     4   6 C      3.010     0.007    27.848     8.656
     5   6 C      3.026    -0.017    28.400     8.742
     6   6 C      2.859     0.226    23.254     7.904
     7   6 C      2.947    -0.039    28.976     8.829
     8   6 C      2.902     0.092    25.952     8.353
     9   6 C      2.905     0.090    25.994     8.360
    10   6 C      2.939    -0.026    28.640     8.777
    11  17 Cl     0.965    -0.121   102.922    15.521
    12  17 Cl     0.973    -0.118   102.837    15.514
    13   8 O      0.856    -0.375    21.193     6.172
    14   6 C      2.944     0.008    27.835     8.653
    15   6 C      1.917     0.120    28.158     8.570
    16   6 C      1.915     0.119    28.166     8.571
    17   7 N      0.911    -0.228    25.994     7.374
    18   7 N      0.911    -0.232    26.087     7.387
    19   6 C      2.979     0.025    27.445     8.593
    20  16 S      2.245    -0.005   141.262    20.004
    21   6 C      3.044     0.027    27.356     8.578
    22   6 C      3.195    -0.001    27.532     8.555
    23   6 C      3.031    -0.043    29.038     8.839
    24   6 C      2.906    -0.014    28.361     8.732
    25   6 C      2.987    -0.037    28.922     8.822
    26   6 C      3.001     0.030    27.312     8.573
    27   6 C      3.013     0.007    27.847     8.656
    28   6 C      3.025    -0.017    28.397     8.741
    29   6 C      2.862     0.225    23.275     7.908
    30   6 C      2.944    -0.038    28.949     8.825
    31   6 C      2.901     0.092    25.961     8.354
    32   6 C      2.905     0.090    25.992     8.360
    33   6 C      2.940    -0.026    28.640     8.777
    34  17 Cl     0.965    -0.121   102.921    15.521
    35  17 Cl     0.970    -0.119   102.873    15.517
    36   8 O      0.870    -0.353    20.761     6.109
    37   6 C      2.943     0.006    27.879     8.660
    38   6 C      1.915     0.118    28.186     8.574
    39   6 C      1.915     0.120    28.149     8.568
    40   7 N      0.911    -0.230    26.029     7.379
    41   7 N      0.911    -0.241    26.285     7.415
    42   6 C      3.018     0.002    27.966     8.675
    43   6 C      3.048     0.009    27.775     8.644
    44   6 C      3.927     0.012    20.319     6.406
    45   6 C      2.902    -0.033    28.814     8.801
    46   6 C      3.041     0.004    27.895     8.663
    47   6 C      3.020     0.005    27.878     8.661
    48   6 C      2.902    -0.034    28.841     8.806
    49   6 C      3.926     0.015    20.268     6.398
    50   6 C      3.119    -0.022    28.381     8.725
    51   6 C      3.065     0.018    27.549     8.607
    52   6 C      3.198     0.037    26.649     8.415
    53   6 C      3.080    -0.007    28.099     8.690
    54  16 S      2.143    -0.030   142.303    20.078
    55   7 N      2.779    -0.047    22.149     6.990
    56   6 C      3.210     0.036    26.572     8.392
    57   6 C      3.065    -0.004    28.048     8.684
    58   6 C      3.012    -0.054    29.317     8.882
    59   6 C      2.977     0.023    27.491     8.601
    60  16 S      2.171     0.040   139.428    19.874
    61   6 C      2.962     0.010    27.785     8.646
    62   6 C      3.734     0.005    20.584     6.475
    63   6 C      3.746    -0.107    22.608     6.782
    64   6 C      2.963     0.010    27.783     8.646
    65   6 C      2.961     0.006    27.886     8.662
    66   6 C      2.960     0.008    27.838     8.654
    67   6 C      2.911    -0.038    28.947     8.822
    68   6 C      2.914    -0.038    28.943     8.822
    69   6 C      2.958     0.013    27.734     8.638
    70   6 C      2.914    -0.036    28.884     8.813
    71   6 C      2.914    -0.035    28.860     8.809
    72   6 C      2.912    -0.034    28.853     8.808
    73   6 C      2.914    -0.036    28.897     8.815
    74   6 C      2.958     0.014    27.703     8.633
    75   6 C      2.914    -0.036    28.890     8.814
    76   6 C      2.912    -0.034    28.854     8.808
    77   6 C      2.913    -0.035    28.881     8.812
    78   6 C      2.914    -0.038    28.938     8.821
    79   6 C      2.958     0.013    27.718     8.635
    80   6 C      2.914    -0.036    28.906     8.816
    81   6 C      2.911    -0.038    28.940     8.821
    82   6 C      2.912    -0.039    28.981     8.828
    83   6 C      2.914    -0.037    28.921     8.819
    84   6 C      2.958     0.014    27.707     8.634
    85   6 C      2.913    -0.038    28.934     8.821
    86   6 C      2.913    -0.035    28.881     8.812
    87   6 C      3.801    -0.054    21.551     6.610
    88   6 C      3.745    -0.093    22.354     6.744
    89   6 C      3.801    -0.055    21.555     6.610
    90   6 C      3.745    -0.093    22.353     6.744
    91   6 C      3.800    -0.055    21.560     6.611
    92   6 C      3.745    -0.094    22.357     6.745
    93   6 C      3.800    -0.055    21.568     6.612
    94   6 C      3.745    -0.094    22.364     6.746
    95   1 H      0.925     0.070     2.081     2.256
    96   1 H      0.925     0.089     1.886     2.147
    97   1 H      0.924     0.091     1.867     2.137
    98   1 H      0.925     0.106     1.734     2.059
    99   1 H      0.925     0.070     2.090     2.261
   100   1 H      0.925     0.087     1.904     2.158
   101   1 H      0.924     0.091     1.865     2.136
   102   1 H      0.925     0.045     2.381     2.413
   103   1 H      0.924     0.048     2.340     2.392
   104   1 H      0.924     0.055     2.262     2.352
   105   1 H      0.923     0.059     2.215     2.327
   106   1 H      0.923     0.057     2.239     2.340
   107   1 H      0.923     0.048     2.343     2.394
   108   1 H      0.923     0.051     2.314     2.379
   109   1 H      0.923     0.047     2.352     2.398
   110   1 H      0.925     0.027     2.628     2.535
   111   1 H      0.924     0.031     2.579     2.511
   112   1 H      0.924     0.035     2.515     2.480
   113   1 H      0.924     0.041     2.434     2.440
   114   1 H      0.924     0.025     2.657     2.549
   115   1 H      0.924     0.032     2.557     2.501
   116   1 H      0.924     0.034     2.537     2.491
   117   1 H      0.924     0.031     2.570     2.507
   118   1 H      0.924     0.026     2.645     2.543
   119   1 H      0.924     0.032     2.558     2.501
   120   1 H      0.924     0.033     2.547     2.496
   121   1 H      0.925     0.032     2.554     2.499
   122   1 H      0.925     0.027     2.633     2.537
   123   1 H      0.924     0.033     2.551     2.498
   124   1 H      0.924     0.034     2.525     2.485
   125   1 H      0.924     0.034     2.524     2.484
   126   1 H      0.923     0.038     2.481     2.463
   127   1 H      0.923     0.035     2.518     2.482
   128   1 H      0.923     0.035     2.511     2.478
   129   1 H      0.923     0.036     2.508     2.477
   130   1 H      0.923     0.033     2.540     2.492
   131   1 H      0.923     0.038     2.480     2.463
   132   1 H      0.923     0.036     2.504     2.475
   133   1 H      0.923     0.035     2.519     2.482
   134   1 H      0.923     0.036     2.504     2.475
   135   1 H      0.923     0.033     2.539     2.492
   136   1 H      0.923     0.037     2.488     2.467
   137   1 H      0.923     0.037     2.489     2.467
   138   1 H      0.923     0.034     2.526     2.486
   139   1 H      0.923     0.038     2.480     2.463
   140   1 H      0.923     0.034     2.526     2.485
   141   1 H      0.923     0.036     2.497     2.471
   142   1 H      0.923     0.040     2.452     2.449
   143   1 H      0.923     0.033     2.544     2.494
   144   1 H      0.923     0.038     2.477     2.461
   145   1 H      0.923     0.033     2.538     2.491

 Mol. C6AA /au·bohr⁶  :     365244.768889
 Mol. C8AA /au·bohr⁸  :   10088917.162670
 Mol. α(0) /au        :        963.167385


Wiberg/Mayer (AO) data.
largest (>0.10) Wiberg bond orders for each atom
          total WBO             WBO to atom ...
     1  C   3.943        C    2 1.493    C   19 1.299    H   95 0.943
     2  C   3.954        C    1 1.493    C    3 1.142    C    6 1.048
     3  C   3.966        C   14 1.488    C    2 1.142    C    4 1.074
     4  C   3.980        C    7 1.397    C    5 1.300    C    3 1.074
     5  C   3.977        C   10 1.413    C    4 1.300    C    6 1.020
     6  C   3.920        O   13 1.741    C    2 1.048    C    5 1.020
     7  C   3.969        C    4 1.397    C    8 1.396    H   96 0.953
     8  C   3.919        C    7 1.396    C    9 1.341    Cl  12 1.011
     9  C   3.897        C   10 1.391    C    8 1.341    Cl  11 1.008
    10  C   3.975        C    5 1.413    C    9 1.391    H   97 0.959
    11  Cl  1.155        C    9 1.008
    12  Cl  1.159        C    8 1.011
    13  O   2.052        C    6 1.741
    14  C   3.923        C    3 1.488    C   16 1.095    C   15 1.093
    15  C   3.941        N   17 2.768    C   14 1.093
    16  C   3.941        N   18 2.759    C   14 1.095
    17  N   2.970        C   15 2.768
    18  N   2.966        C   16 2.759
    19  C   3.924        C   23 1.374    C    1 1.299    S   20 1.074
    20  S   2.593        C   21 1.205    C   19 1.074
    21  C   3.917        C   22 1.354    S   20 1.205    C   42 1.151
    22  C   3.961        C   23 1.404    C   21 1.354    C   44 0.976
    23  C   3.948        C   22 1.404    C   19 1.374    H   98 0.927
    24  C   3.942        C   25 1.485    C   59 1.309    H   99 0.938
    25  C   3.948        C   24 1.485    C   26 1.150    C   29 1.055
    26  C   3.964        C   37 1.481    C   25 1.150    C   27 1.072
    27  C   3.980        C   30 1.401    C   28 1.298    C   26 1.072
    28  C   3.975        C   33 1.418    C   27 1.298    C   29 1.015
    29  C   3.922        O   36 1.741    C   25 1.055    C   28 1.015
    30  C   3.969        C   27 1.401    C   31 1.393    H  100 0.954
    31  C   3.919        C   30 1.393    C   32 1.344    Cl  35 1.011
    32  C   3.897        C   33 1.388    C   31 1.344    Cl  34 1.008
    33  C   3.975        C   28 1.418    C   32 1.388    H  101 0.959
    34  Cl  1.155        C   32 1.008
    35  Cl  1.158        C   31 1.011
    36  O   2.087        C   29 1.741
    37  C   3.920        C   26 1.481    C   39 1.097    C   38 1.094
    38  C   3.941        N   40 2.768    C   37 1.094
    39  C   3.940        N   41 2.756    C   37 1.097
    40  N   2.968        C   38 2.768
    41  N   2.964        C   39 2.756
    42  C   3.954        C   45 1.338    C   43 1.282    C   21 1.151
    43  C   3.959        C   48 1.464    C   42 1.282    C   44 0.976
    44  C   3.985        C   43 0.976    C   22 0.976    C   64 0.947    C   61 0.946
    45  C   3.971        C   46 1.475    C   42 1.338    H  102 0.961
    46  C   3.962        C   45 1.475    C   47 1.283    C   49 0.956
    47  C   3.950        C   48 1.345    C   46 1.283    C   51 1.147
    48  C   3.971        C   43 1.464    C   47 1.345    H  103 0.964
    49  C   3.983        C   50 0.971    C   66 0.957    C   46 0.956    C   65 0.956
    50  C   3.953        C   51 1.436    C   52 1.265    C   49 0.971
    51  C   3.888        C   50 1.436    C   47 1.147    S   54 1.131
    52  C   3.918        C   53 1.267    C   50 1.265    N   55 1.160
    53  C   3.916        C   57 1.321    C   52 1.267    S   54 1.101
    54  S   2.529        C   51 1.131    C   53 1.101
    55  N   3.554        C   52 1.160    C   56 1.141    C   62 0.980
    56  C   3.934        C   58 1.370    C   57 1.224    N   55 1.141
    57  C   3.936        C   53 1.321    C   56 1.224    S   60 1.163
    58  C   3.954        C   56 1.370    C   59 1.359    H  104 0.960    S   60 0.108
    59  C   3.924        C   58 1.359    C   24 1.309    S   60 1.088
    60  S   2.643        C   57 1.163    C   59 1.088    C   58 0.108
    61  C   3.980        C   72 1.415    C   76 1.405    C   44 0.946    C   74 0.107
    62  C   3.966        C   63 1.009    N   55 0.980    H  106 0.970    H  105 0.966
    63  C   3.990        C   62 1.009    H  109 0.986    H  107 0.984    H  108 0.982
    64  C   3.980        C   67 1.428    C   71 1.389    C   44 0.947    C   69 0.107
    65  C   3.980        C   82 1.417    C   86 1.395    C   49 0.956    C   84 0.106
    66  C   3.981        C   81 1.413    C   77 1.402    C   49 0.957    C   79 0.107
    67  C   3.988        C   68 1.428    C   64 1.428    H  110 0.965    C   70 0.107
    68  C   3.988        C   67 1.428    C   69 1.425    H  111 0.968    C   71 0.109
    69  C   3.985        C   68 1.425    C   70 1.392    C   87 1.012    C   64 0.107
    70  C   3.989        C   71 1.467    C   69 1.392    H  112 0.968    C   67 0.107
    71  C   3.988        C   70 1.467    C   64 1.389    H  113 0.966    C   68 0.109
    72  C   3.989        C   73 1.444    C   61 1.415    H  114 0.968    C   75 0.108
    73  C   3.989        C   72 1.444    C   74 1.412    H  115 0.969    C   76 0.108
    74  C   3.985        C   73 1.412    C   75 1.406    C   89 1.012    C   61 0.107
    75  C   3.989        C   76 1.451    C   74 1.406    H  116 0.969    C   72 0.108
    76  C   3.989        C   75 1.451    C   61 1.405    H  117 0.967    C   73 0.108
    77  C   3.990        C   78 1.454    C   66 1.402    H  118 0.969    C   80 0.110
    78  C   3.989        C   77 1.454    C   79 1.403    H  119 0.968    C   81 0.106
    79  C   3.984        C   80 1.413    C   78 1.403    C   93 1.012    C   66 0.107
    80  C   3.989        C   81 1.440    C   79 1.413    H  120 0.969    C   77 0.110
    81  C   3.988        C   80 1.440    C   66 1.413    H  121 0.963    C   78 0.106
    82  C   3.989        C   83 1.440    C   65 1.417    H  122 0.964    C   85 0.106
    83  C   3.990        C   82 1.440    C   84 1.416    H  123 0.969    C   86 0.108
    84  C   3.985        C   83 1.416    C   85 1.400    C   91 1.013    C   65 0.106
    85  C   3.988        C   86 1.456    C   84 1.400    H  124 0.969    C   82 0.106
    86  C   3.988        C   85 1.456    C   65 1.395    H  125 0.965    C   83 0.108
    87  C   3.996        C   69 1.012    C   88 1.004    H  127 0.975    H  126 0.969
    88  C   3.996        C   87 1.004    H  130 0.988    H  128 0.987    H  129 0.986
    89  C   3.996        C   74 1.012    C   90 1.004    H  132 0.974    H  131 0.971
    90  C   3.996        C   89 1.004    H  135 0.988    H  133 0.988    H  134 0.986
    91  C   3.996        C   84 1.013    C   92 1.001    H  136 0.974    H  137 0.972
    92  C   3.995        C   91 1.001    H  138 0.988    H  140 0.988    H  139 0.986
    93  C   3.996        C   79 1.012    C   94 1.004    H  141 0.976    H  142 0.968
    94  C   3.995        C   93 1.004    H  143 0.988    H  145 0.987    H  144 0.986
    95  H   0.994        C    1 0.943
    96  H   0.992        C    7 0.953
    97  H   0.991        C   10 0.959
    98  H   0.988        C   23 0.927
    99  H   0.994        C   24 0.938
   100  H   0.992        C   30 0.954
   101  H   0.991        C   33 0.959
   102  H   0.997        C   45 0.961
   103  H   0.996        C   48 0.964
   104  H   0.996        C   58 0.960
   105  H   0.995        C   62 0.966
   106  H   0.996        C   62 0.970
   107  H   0.998        C   63 0.984
   108  H   0.996        C   63 0.982
   109  H   0.998        C   63 0.986
   110  H   0.999        C   67 0.965
   111  H   0.998        C   68 0.968
   112  H   0.998        C   70 0.968
   113  H   0.998        C   71 0.966
   114  H   0.999        C   72 0.968
   115  H   0.998        C   73 0.969
   116  H   0.998        C   75 0.969
   117  H   0.999        C   76 0.967
   118  H   0.999        C   77 0.969
   119  H   0.998        C   78 0.968
   120  H   0.998        C   80 0.969
   121  H   0.999        C   81 0.963
   122  H   0.999        C   82 0.964
   123  H   0.998        C   83 0.969
   124  H   0.998        C   85 0.969
   125  H   0.998        C   86 0.965
   126  H   0.998        C   87 0.969
   127  H   0.998        C   87 0.975
   128  H   0.999        C   88 0.987
   129  H   0.998        C   88 0.986
   130  H   0.999        C   88 0.988
   131  H   0.998        C   89 0.971
   132  H   0.998        C   89 0.974
   133  H   0.999        C   90 0.988
   134  H   0.998        C   90 0.986
   135  H   0.999        C   90 0.988
   136  H   0.998        C   91 0.974
   137  H   0.998        C   91 0.972
   138  H   0.999        C   92 0.988
   139  H   0.998        C   92 0.986
   140  H   0.999        C   92 0.988
   141  H   0.998        C   93 0.976
   142  H   0.998        C   93 0.968
   143  H   0.999        C   94 0.988
   144  H   0.998        C   94 0.986
   145  H   0.999        C   94 0.987

molecular dipole:
                 x           y           z       tot (Debye)
 q only:       -0.929       0.492      -0.822
   full:       -0.736       0.551       0.227       2.407
molecular quadrupole (traceless):
                xx          xy          yy          xz          yz          zz
 q only:     -120.183    -169.906       5.503      33.551      10.413     114.680
  q+dip:      -93.380    -137.318       1.767      43.604       8.245      91.613
   full:      -96.205    -147.182      12.138      43.390       5.193      84.067


           -------------------------------------------------
          | TOTAL ENERGY             -247.897083501469 Eh   |
          | GRADIENT NORM               0.107495767291 Eh/α |
          | HOMO-LUMO GAP               1.067900755407 eV   |
           -------------------------------------------------

------------------------------------------------------------------------
 * finished run on 2021/04/12 at 13:53:45.743     
------------------------------------------------------------------------
 total:
 * wall-time:     0 d,  0 h,  0 min,  1.647 sec
 *  cpu-time:     0 d,  0 h,  0 min,  1.642 sec
 * ratio c/w:     0.997 speedup
 SCF:
 * wall-time:     0 d,  0 h,  0 min,  1.262 sec
 *  cpu-time:     0 d,  0 h,  0 min,  1.259 sec
 * ratio c/w:     0.998 speedup

