      -----------------------------------------------------------      
     |                   =====================                   |     
     |                           x T B                           |     
     |                   =====================                   |     
     |                         S. Grimme                         |     
     |          Mulliken Center for Theoretical Chemistry        |     
     |                    University of Bonn                     |     
     |                Version 6.2 RC2 (SAW190805)                |     
      -----------------------------------------------------------      

   This program is distributed in the hope that it will be useful,
   but WITHOUT ANY WARRANTY; without even the implied warranty of
   MERCHANTABILITY or FITNESS FOR A PARTICULAR PURPOSE.
   
   FOR NON-COMMERCIAL, ACADEMIA USE ONLY.
   
   Cite this work as:
   * S. Grimme, C. Bannwarth, P. Shushkov, J. Chem. Theory Comput., 2017,
     13, 1989-2009. DOI: 10.1021/acs.jctc.7b00118
   * C. Bannwarth, S. Ehlert and S. Grimme., J. Chem. Theory Comput., 2019,
     15, 1652-1671. DOI: 10.1021/acs.jctc.8b01176
   * P. Pracht, E. Caldeweyher, S. Ehlert, S. Grimme, ChemRxiv, 2019, preprint.
     DOI: 10.26434/chemrxiv.8326202.v1
   
   for DFT-D4:
   * E. Caldeweyher, C. Bannwarth and S. Grimme, J. Chem. Phys., 2017,
     147, 034112. DOI: 10.1063/1.4993215
   * E. Caldeweyher, S. Ehlert, A. Hansen, H. Neugebauer, S. Spicher,
     C. Bannwarth and S. Grimme, J. Chem. Phys., 2019, 150, 154122.
     DOI: 10.1063/1.5090222
   
   for sTDA-xTB:
   * S. Grimme and C. Bannwarth, J. Chem. Phys., 2016, 145, 054103.
     DOI: 10.1063/1.4959605
   
   in the mass-spec context:
   * V. Asgeirsson, C. Bauer and S. Grimme, Chem. Sci., 2017, 8, 4879.
     DOI: 10.1039/c7sc00601b
   
   for metadynamics refer to:
   * S. Grimme, J. Chem. Theory Comput., 2019, 155, 2847-2862
     DOI: 10.1021/acs.jctc.9b00143
   
   with help from (in alphabetical order)
   C. Bannwarth, F. Bohle, G. Brandenburg, E. Caldeweyher, M. Checinski,
   S. Dohm, S. Ehlert, S. Ehrlich, F. März, H. Neugebauer, J. Pisarek,
   P. Pracht, P. Shushkov, and S. Spicher.
   
 * started run on 2021/04/12 at 13:53:49.392     

           -------------------------------------------------
          |                Calculation Setup                |
           -------------------------------------------------

          program call               : /ihome/ghutchison/geoffh/xtb/xtb Y1.xyz -sp
          hostname                   : smp-n149
          coordinate file            : Y1.xyz
          omp threads                :                     1
          number of atoms            :                   146
          number of electrons        :                   416
          charge                     :                     0
          spin                       :                   0.0
          first test random number   :      0.74087287065303


########################################################################
# WARNING! Please study the warnings concerning your input carefully
#  - XTBPATH is not set, using XTBHOME instead
#  - the use of '-sp' is discouraged, please use '--sp' next time
########################################################################

           ------------------------------------------------- 
          |                 G F N 2 - x T B                 |
          | Geometry, Frequencies, Noncovalent interactions |
          |            JCTC 2019 parametrisation            |
           ------------------------------------------------- 
             KAB for C  - Si     :                1.0500
             KAB for H  - Pd     :                0.9500
             k(s)              :                1.8500
             k(p)              :                2.2300
             k(d)              :                2.2300
             k(f)              :                2.0000
             kEN (H0ij)        :               -2.0000
             D4 a1             :                0.5200
             D4 a2             :                5.0000
             D4 s6             :                1.0000
             D4 s8             :                2.7000
             D4 s9             :                5.0000
             alphaj            :                2.0000

  Z AO/shell   Hii/eV     exponent
  1     Wed Apr 25 08:07:45 CEST 2018   EN: 2.200 GM2: 0.406  GM3: 0.0800  RAES: 1.40
     1s    -10.707211    1.230000
  6     Wed Apr 25 08:07:45 CEST 2018   EN: 2.550 GM2: 0.538  GM3: 0.1500  RAES: 3.00
     2s    -13.970922    2.096432
     2p    -10.063292    1.800000
  7     Wed Apr 25 08:07:45 CEST 2018   EN: 3.040 GM2: 0.461  GM3:-0.0640  RAES: 1.90
     2s    -16.686243    2.339881
     2p    -12.523956    2.014332
  8     Wed Apr 25 08:07:45 CEST 2018   EN: 3.440 GM2: 0.452  GM3:-0.0517  RAES: 1.80
     2s    -20.229985    2.439742
     2p    -15.503117    2.137023
 16     Tue Apr 24 11:44:34 CEST 2018   EN: 2.580 GM2: 0.340  GM3:-0.0502  RAES: 3.10
     3s    -20.029654    1.981333
     3p    -11.377694    2.025643
     3d     -0.420282    1.702555

           ------------------------------------------------- 
          |        Self-Consistent Charge Iterations        |
           ------------------------------------------------- 

          ...................................................
          :                      SETUP                      :
          :.................................................:
          :  # basis functions                 419          :
          :  # atomic orbitals                 415          :
          :  # shells                          233          :
          :  # electrons                       416          :
          :  max. iterations                   250          :
          :  Hamiltonian                  GFN2-xTB          :
          :  restarted?                      false          :
          :  GBSA solvation                  false          :
          :  PC potential                    false          :
          :  electronic temp.          300.0000000     K    :
          :  accuracy                    1.0000000          :
          :  -> integral cutoff          0.2500000E+02      :
          :  -> integral neglect         0.1000000E-07      :
          :  -> SCF convergence          0.1000000E-05 Eh   :
          :  -> wf. convergence          0.1000000E-03 e    :
          :  Broyden damping             0.4000000          :
          ...................................................

 iter      E             dE          RMSdq      gap      omega  full diag
   1   -227.9781275 -0.227978E+03  0.420E+00    1.23       0.0  T
   2   -228.1957075 -0.217580E+00  0.266E+00    0.95       1.0  T
   3   -228.0913930  0.104314E+00  0.178E+00    1.07       1.0  T
   4   -228.3320400 -0.240647E+00  0.713E-01    1.12       1.0  T
   5   -228.3936578 -0.616179E-01  0.255E-01    0.90       1.0  T
   6   -228.4012979 -0.764011E-02  0.124E-01    1.05       1.0  T
   7   -228.4029231 -0.162512E-02  0.578E-02    0.99       1.0  T
   8   -228.4032625 -0.339392E-03  0.251E-02    1.01       1.0  T
   9   -228.4033172 -0.547169E-04  0.111E-02    1.00       1.0  T
  10   -228.4033267 -0.957055E-05  0.468E-03    1.01       1.8  T
  11   -228.4033281 -0.132132E-05  0.227E-03    1.00       3.7  T
  12   -228.4033283 -0.267203E-06  0.130E-03    1.00       6.4  T
  13   -228.4033284 -0.100444E-06  0.715E-04    1.00      11.6  T
  14   -228.4033285 -0.309898E-07  0.366E-04    1.00      22.6  T

   *** convergence criteria satisfied after 14 iterations ***

         #    Occupation            Energy/Eh            Energy/eV
      -------------------------------------------------------------
         1        2.0000           -0.7543767             -20.5276
       ...           ...                  ...                  ...
       202        2.0000           -0.4058150             -11.0428
       203        2.0000           -0.4040402             -10.9945
       204        2.0000           -0.4005494             -10.8995
       205        2.0000           -0.3919941             -10.6667
       206        2.0000           -0.3868857             -10.5277
       207        2.0000           -0.3768537             -10.2547
       208        2.0000           -0.3708483             -10.0913 (HOMO)
       209                         -0.3339286              -9.0867 (LUMO)
       210                         -0.3294631              -8.9651
       211                         -0.3177066              -8.6452
       212                         -0.3138704              -8.5408
       213                         -0.2840093              -7.7283
       ...                                ...                  ...
       415                          1.0743248              29.2339
      -------------------------------------------------------------
                  HL-Gap            0.0369197 Eh            1.0046 eV
             Fermi-level           -0.3523919 Eh           -9.5891 eV

 SCC (total)                   0 d,  0 h,  0 min,  1.008 sec
 SCC setup                      ...        0 min,  0.004 sec (  0.391%)
 Dispersion                     ...        0 min,  0.008 sec (  0.842%)
 integral evaluation            ...        0 min,  0.299 sec ( 29.683%)
 zeroth order Hamiltonian       ...        0 min,  0.002 sec (  0.201%)
 iterations                     ...        0 min,  0.418 sec ( 41.417%)
 molecular gradient             ...        0 min,  0.273 sec ( 27.082%)
 printout                       ...        0 min,  0.004 sec (  0.378%)

         :::::::::::::::::::::::::::::::::::::::::::::::::::::
         ::                     SUMMARY                     ::
         :::::::::::::::::::::::::::::::::::::::::::::::::::::
         :: total energy            -225.087324352978 Eh    ::
         :: gradient norm              0.118455601197 Eh/a0 ::
         :: HOMO-LUMO gap              1.004636574990 eV    ::
         ::.................................................::
         :: SCC energy              -228.403328462922 Eh    ::
         :: -> isotropic ES            0.111904284160 Eh    ::
         :: -> anisotropic ES          0.026515227621 Eh    ::
         :: -> anisotropic XC          0.163964373780 Eh    ::
         :: -> dispersion             -0.216757500483 Eh    ::
         :: repulsion energy           3.309536759599 Eh    ::
         :: add. restraining           0.000000000000 Eh    ::
         :::::::::::::::::::::::::::::::::::::::::::::::::::::

           -------------------------------------------------
          |                Property Printout                |
           -------------------------------------------------

    * Orbital Energies and Occupations

         #    Occupation            Energy/Eh            Energy/eV
      -------------------------------------------------------------
         1        2.0000           -0.7543767             -20.5276
       ...           ...                  ...                  ...
       196        2.0000           -0.4207391             -11.4489
       197        2.0000           -0.4201934             -11.4340
       198        2.0000           -0.4171567             -11.3514
       199        2.0000           -0.4154070             -11.3038
       200        2.0000           -0.4096759             -11.1478
       201        2.0000           -0.4088232             -11.1246
       202        2.0000           -0.4058150             -11.0428
       203        2.0000           -0.4040402             -10.9945
       204        2.0000           -0.4005494             -10.8995
       205        2.0000           -0.3919941             -10.6667
       206        2.0000           -0.3868857             -10.5277
       207        2.0000           -0.3768537             -10.2547
       208        2.0000           -0.3708483             -10.0913 (HOMO)
       209                         -0.3339286              -9.0867 (LUMO)
       210                         -0.3294631              -8.9651
       211                         -0.3177066              -8.6452
       212                         -0.3138704              -8.5408
       213                         -0.2840093              -7.7283
       214                         -0.2705818              -7.3629
       215                         -0.2653930              -7.2217
       216                         -0.2526826              -6.8758
       217                         -0.2483640              -6.7583
       218                         -0.2477095              -6.7405
       219                         -0.2431905              -6.6176
       ...                                ...                  ...
       415                          1.0743248              29.2339
      -------------------------------------------------------------
                  HL-Gap            0.0369197 Eh            1.0046 eV
             Fermi-level           -0.3523919 Eh           -9.5891 eV

     #   Z        covCN         q      C6AA      α(0)
     1   6 C      2.861     0.225    23.287     7.910
     2   8 O      0.856    -0.362    20.945     6.136
     3   6 C      3.022    -0.016    28.383     8.739
     4   6 C      2.905    -0.014    28.361     8.732
     5   6 C      2.912    -0.021    28.537     8.760
     6   6 C      2.911    -0.019    28.492     8.753
     7   6 C      2.905    -0.027    28.664     8.779
     8   6 C      3.014     0.008    27.831     8.654
     9   6 C      3.004     0.032    27.272     8.566
    10   6 C      2.944     0.005    27.909     8.664
    11   6 C      1.913     0.118    28.202     8.576
    12   7 N      0.911    -0.237    26.210     7.404
    13   6 C      1.911     0.119    28.183     8.574
    14   7 N      0.911    -0.244    26.357     7.425
    15   6 C      2.990    -0.035    28.859     8.812
    16   6 C      2.916    -0.012    28.325     8.727
    17   6 C      2.974     0.025    27.441     8.593
    18  16 S      2.223    -0.037   142.598    20.098
    19   6 C      3.095     0.011    27.660     8.620
    20   6 C      3.141     0.016    27.412     8.568
    21   6 C      3.040    -0.039    28.918     8.820
    22  16 S      2.145    -0.022   141.980    20.055
    23   6 C      3.064     0.007    27.796     8.645
    24   6 C      3.189     0.029    26.890     8.459
    25   7 N      2.780    -0.043    22.064     6.976
    26   6 C      3.738    -0.004    20.728     6.497
    27   6 C      3.845    -0.026    21.008     6.520
    28   6 C      3.798    -0.059    21.636     6.623
    29   6 C      3.744    -0.103    22.542     6.773
    30   6 C      3.799    -0.057    21.603     6.618
    31   6 C      3.797    -0.055    21.564     6.612
    32   6 C      3.796    -0.048    21.444     6.594
    33   6 C      3.745    -0.098    22.444     6.758
    34   6 C      3.025     0.027    27.364     8.581
    35   6 C      3.061    -0.030    28.689     8.783
    36   6 C      3.123     0.055    26.586     8.444
    37   7 N      1.965    -0.246    27.233     7.739
    38   7 N      3.251     0.197    17.975     6.297
    39   6 C      3.742    -0.026    21.117     6.556
    40   6 C      3.845    -0.019    20.890     6.501
    41   6 C      3.796    -0.061    21.676     6.630
    42   6 C      3.745    -0.093    22.340     6.742
    43   6 C      3.803    -0.063    21.710     6.634
    44   6 C      3.797    -0.055    21.575     6.614
    45   6 C      3.796    -0.050    21.483     6.600
    46   6 C      3.745    -0.098    22.449     6.759
    47   7 N      1.967    -0.239    27.062     7.715
    48   6 C      3.131     0.057    26.527     8.432
    49   6 C      3.071    -0.028    28.629     8.773
    50   6 C      3.022     0.027    27.376     8.582
    51   7 N      2.786    -0.040    22.008     6.968
    52   6 C      3.746    -0.009    20.801     6.506
    53   6 C      3.845    -0.025    20.988     6.517
    54   6 C      3.797    -0.053    21.539     6.608
    55   6 C      3.745    -0.094    22.366     6.746
    56   6 C      3.805    -0.058    21.610     6.618
    57   6 C      3.797    -0.055    21.572     6.613
    58   6 C      3.797    -0.046    21.394     6.586
    59   6 C      3.745    -0.101    22.494     6.765
    60   6 C      3.195     0.032    26.778     8.437
    61   6 C      3.067     0.007    27.791     8.644
    62  16 S      2.147    -0.013   141.608    20.028
    63   6 C      3.152     0.019    27.308     8.547
    64   6 C      3.094     0.010    27.672     8.622
    65  16 S      2.230    -0.048   143.035    20.129
    66   6 C      2.982     0.026    27.406     8.587
    67   6 C      3.036    -0.037    28.876     8.814
    68   6 C      2.921    -0.010    28.258     8.717
    69   6 C      2.990    -0.032    28.799     8.803
    70   6 C      2.998     0.032    27.266     8.566
    71   6 C      2.944     0.007    27.874     8.659
    72   6 C      1.916     0.121    28.121     8.564
    73   7 N      0.911    -0.241    26.287     7.415
    74   6 C      1.916     0.119    28.171     8.572
    75   7 N      0.911    -0.241    26.289     7.416
    76   6 C      3.014     0.008    27.825     8.653
    77   6 C      2.906    -0.026    28.655     8.777
    78   6 C      2.911    -0.019    28.474     8.750
    79   6 C      2.912    -0.021    28.522     8.757
    80   6 C      2.905    -0.014    28.350     8.731
    81   6 C      3.020    -0.016    28.378     8.738
    82   6 C      2.859     0.225    23.279     7.908
    83   8 O      0.856    -0.360    20.889     6.128
    84   1 H      0.924     0.060     2.202     2.321
    85   1 H      0.924     0.047     2.355     2.400
    86   1 H      0.924     0.048     2.347     2.396
    87   1 H      0.925     0.055     2.260     2.351
    88   1 H      0.924     0.077     2.011     2.218
    89   1 H      0.925     0.061     2.193     2.316
    90   1 H      0.923     0.062     2.172     2.305
    91   1 H      0.924     0.049     2.329     2.387
    92   1 H      0.923     0.042     2.417     2.431
    93   1 H      0.923     0.043     2.404     2.425
    94   1 H      0.923     0.032     2.555     2.500
    95   1 H      0.923     0.030     2.589     2.516
    96   1 H      0.923     0.054     2.272     2.357
    97   1 H      0.923     0.030     2.592     2.518
    98   1 H      0.923     0.030     2.589     2.516
    99   1 H      0.923     0.033     2.546     2.495
   100   1 H      0.923     0.033     2.551     2.498
   101   1 H      0.922     0.029     2.602     2.523
   102   1 H      0.923     0.028     2.619     2.531
   103   1 H      0.922     0.027     2.637     2.539
   104   1 H      0.923     0.034     2.525     2.485
   105   1 H      0.923     0.035     2.518     2.482
   106   1 H      0.923     0.032     2.562     2.503
   107   1 H      0.924     0.070     2.088     2.260
   108   1 H      0.923     0.072     2.066     2.248
   109   1 H      0.923     0.046     2.365     2.405
   110   1 H      0.923     0.042     2.428     2.437
   111   1 H      0.923     0.050     2.323     2.384
   112   1 H      0.923     0.031     2.577     2.511
   113   1 H      0.923     0.032     2.552     2.498
   114   1 H      0.923     0.027     2.633     2.537
   115   1 H      0.922     0.032     2.556     2.500
   116   1 H      0.922     0.034     2.534     2.490
   117   1 H      0.923     0.034     2.527     2.486
   118   1 H      0.922     0.032     2.565     2.505
   119   1 H      0.923     0.028     2.608     2.526
   120   1 H      0.922     0.029     2.596     2.520
   121   1 H      0.923     0.033     2.547     2.496
   122   1 H      0.923     0.034     2.532     2.488
   123   1 H      0.923     0.033     2.548     2.496
   124   1 H      0.924     0.055     2.262     2.352
   125   1 H      0.923     0.055     2.257     2.349
   126   1 H      0.923     0.046     2.367     2.406
   127   1 H      0.923     0.040     2.446     2.446
   128   1 H      0.924     0.030     2.587     2.515
   129   1 H      0.923     0.030     2.584     2.514
   130   1 H      0.923     0.040     2.448     2.447
   131   1 H      0.923     0.026     2.650     2.546
   132   1 H      0.922     0.025     2.662     2.551
   133   1 H      0.922     0.025     2.658     2.550
   134   1 H      0.923     0.044     2.395     2.420
   135   1 H      0.922     0.028     2.610     2.526
   136   1 H      0.922     0.024     2.671     2.556
   137   1 H      0.922     0.021     2.722     2.580
   138   1 H      0.923     0.032     2.565     2.505
   139   1 H      0.923     0.030     2.590     2.517
   140   1 H      0.923     0.049     2.331     2.388
   141   1 H      0.925     0.062     2.179     2.308
   142   1 H      0.924     0.078     2.004     2.214
   143   1 H      0.925     0.056     2.243     2.342
   144   1 H      0.924     0.049     2.329     2.387
   145   1 H      0.924     0.048     2.342     2.393
   146   1 H      0.924     0.060     2.195     2.317

 Mol. C6AA /au·bohr⁶  :     294056.689604
 Mol. C8AA /au·bohr⁸  :    7662883.184747
 Mol. α(0) /au        :        850.238392


Wiberg/Mayer (AO) data.
largest (>0.10) Wiberg bond orders for each atom
          total WBO             WBO to atom ...
     1  C   3.921        O    2 1.784    C    3 1.009    C   15 1.007
     2  O   2.060        C    1 1.784
     3  C   3.973        C    4 1.420    C    8 1.300    C    1 1.009
     4  C   3.982        C    5 1.423    C    3 1.420    H   84 0.966
     5  C   3.952        C    6 1.434    C    4 1.423    H   85 0.970
     6  C   3.979        C    5 1.434    C    7 1.431    H   86 0.970
     7  C   3.977        C    6 1.431    C    8 1.402    H   87 0.963
     8  C   3.979        C    7 1.402    C    3 1.300    C    9 1.070
     9  C   3.970        C   10 1.474    C   15 1.149    C    8 1.070
    10  C   3.946        C    9 1.474    C   13 1.101    C   11 1.093
    11  C   3.942        N   12 2.770    C   10 1.093
    12  N   2.977        C   11 2.770
    13  C   3.940        N   14 2.760    C   10 1.101
    14  N   2.965        C   13 2.760
    15  C   3.947        C   16 1.527    C    9 1.149    C    1 1.007
    16  C   3.945        C   15 1.527    C   17 1.262    H   88 0.946
    17  C   3.922        C   21 1.405    C   16 1.262    S   18 1.077
    18  S   2.579        C   19 1.134    C   17 1.077
    19  C   3.933        C   20 1.299    C   24 1.258    S   18 1.134
    20  C   3.928        C   21 1.365    C   19 1.299    S   22 1.086
    21  C   3.965        C   17 1.405    C   20 1.365    H   89 0.960
    22  S   2.490        C   23 1.102    C   20 1.086
    23  C   3.913        C   24 1.299    C   35 1.288    S   22 1.102
    24  C   3.935        C   23 1.299    C   19 1.258    N   25 1.154
    25  N   3.552        C   34 1.160    C   24 1.154    C   26 0.979
    26  C   3.959        N   25 0.979    C   27 0.974    H   90 0.962    H   91 0.959
    27  C   3.986        C   30 0.996    C   28 0.994    C   26 0.974    H   92 0.953
    28  C   3.992        C   29 1.020    C   27 0.994    H   94 0.972    H   93 0.971
    29  C   3.995        C   28 1.020    H   95 0.987    H   97 0.986    H   96 0.983
    30  C   3.994        C   31 1.008    C   27 0.996    H   98 0.972    H   99 0.969
    31  C   3.996        C   30 1.008    C   32 1.007    H  100 0.973    H  101 0.973
    32  C   3.997        C   33 1.020    C   31 1.007    H  102 0.978    H  103 0.977
    33  C   3.996        C   32 1.020    H  104 0.988    H  106 0.987    H  105 0.987
    34  C   3.914        C   35 1.265    C   50 1.230    N   25 1.160
    35  C   3.948        C   23 1.288    C   34 1.265    C   36 1.166
    36  C   3.971        N   37 1.376    C   48 1.232    C   35 1.166
    37  N   2.974        C   36 1.376    N   38 1.266    N   47 0.203
    38  N   3.724        N   47 1.266    N   37 1.266    C   39 0.983
    39  C   3.958        N   38 0.983    C   40 0.969    H  107 0.969    H  108 0.964
    40  C   3.984        C   41 0.997    C   43 0.992    C   39 0.969    H  109 0.967
    41  C   3.994        C   42 1.020    C   40 0.997    H  111 0.972    H  110 0.968
    42  C   3.997        C   41 1.020    H  112 0.988    H  113 0.987    H  114 0.985
    43  C   3.994        C   44 1.008    C   40 0.992    H  115 0.975    H  116 0.974
    44  C   3.995        C   43 1.008    C   45 1.007    H  118 0.977    H  117 0.969
    45  C   3.996        C   46 1.020    C   44 1.007    H  119 0.978    H  120 0.977
    46  C   3.996        C   45 1.020    H  121 0.988    H  123 0.987    H  122 0.987
    47  N   2.980        C   48 1.379    N   38 1.266    N   37 0.203
    48  C   3.972        N   47 1.379    C   36 1.232    C   49 1.168
    49  C   3.950        C   61 1.283    C   50 1.270    C   48 1.168
    50  C   3.918        C   49 1.270    C   34 1.230    N   51 1.152
    51  N   3.551        C   60 1.158    C   50 1.152    C   52 0.983
    52  C   3.959        N   51 0.983    C   53 0.972    H  125 0.962    H  124 0.949
    53  C   3.985        C   54 0.997    C   56 0.991    C   52 0.972    H  126 0.958
    54  C   3.995        C   55 1.020    C   53 0.997    H  128 0.970    H  127 0.967
    55  C   3.996        C   54 1.020    H  129 0.987    H  130 0.986    H  131 0.983
    56  C   3.993        C   57 1.008    C   53 0.991    H  132 0.973    H  133 0.972
    57  C   3.994        C   56 1.008    C   58 1.006    H  135 0.974    H  134 0.965
    58  C   3.997        C   59 1.020    C   57 1.006    H  136 0.978    H  137 0.976
    59  C   3.995        C   58 1.020    H  138 0.988    H  139 0.987    H  140 0.985
    60  C   3.936        C   61 1.304    C   64 1.246    N   51 1.158
    61  C   3.917        C   60 1.304    C   49 1.283    S   62 1.104
    62  S   2.498        C   61 1.104    C   63 1.092
    63  C   3.932        C   67 1.338    C   64 1.318    S   62 1.092
    64  C   3.933        C   63 1.318    C   60 1.246    S   65 1.125
    65  S   2.557        C   64 1.125    C   66 1.078
    66  C   3.924        C   67 1.445    C   68 1.219    S   65 1.078
    67  C   3.961        C   66 1.445    C   63 1.338    H  141 0.960
    68  C   3.944        C   69 1.566    C   66 1.219    H  142 0.944
    69  C   3.953        C   68 1.566    C   70 1.135    C   82 1.004
    70  C   3.972        C   71 1.490    C   69 1.135    C   76 1.072
    71  C   3.952        C   70 1.490    C   72 1.097    C   74 1.092
    72  C   3.941        N   73 2.761    C   71 1.097
    73  N   2.970        C   72 2.761
    74  C   3.942        N   75 2.769    C   71 1.092
    75  N   2.981        C   74 2.769
    76  C   3.980        C   77 1.401    C   81 1.300    C   70 1.072
    77  C   3.977        C   78 1.432    C   76 1.401    H  143 0.962
    78  C   3.979        C   77 1.432    C   79 1.432    H  144 0.970
    79  C   3.952        C   78 1.432    C   80 1.425    H  145 0.970
    80  C   3.982        C   79 1.425    C   81 1.417    H  146 0.966
    81  C   3.973        C   80 1.417    C   76 1.300    C   82 1.013
    82  C   3.922        O   83 1.787    C   81 1.013    C   69 1.004
    83  O   2.056        C   82 1.787
    84  H   0.996        C    4 0.966
    85  H   0.997        C    5 0.970
    86  H   0.997        C    6 0.970
    87  H   0.996        C    7 0.963
    88  H   0.992        C   16 0.946
    89  H   0.996        C   21 0.960
    90  H   0.995        C   26 0.962
    91  H   0.996        C   26 0.959
    92  H   0.998        C   27 0.953
    93  H   0.997        C   28 0.971
    94  H   0.998        C   28 0.972
    95  H   0.999        C   29 0.987
    96  H   0.997        C   29 0.983
    97  H   0.999        C   29 0.986
    98  H   0.999        C   30 0.972
    99  H   0.999        C   30 0.969
   100  H   0.999        C   31 0.973
   101  H   0.999        C   31 0.973
   102  H   0.999        C   32 0.978
   103  H   0.999        C   32 0.977
   104  H   0.999        C   33 0.988
   105  H   0.998        C   33 0.987
   106  H   0.999        C   33 0.987
   107  H   0.994        C   39 0.969
   108  H   0.993        C   39 0.964
   109  H   0.998        C   40 0.967
   110  H   0.998        C   41 0.968
   111  H   0.997        C   41 0.972
   112  H   0.999        C   42 0.988
   113  H   0.999        C   42 0.987
   114  H   0.999        C   42 0.985
   115  H   0.999        C   43 0.975
   116  H   0.999        C   43 0.974
   117  H   0.999        C   44 0.969
   118  H   0.999        C   44 0.977
   119  H   0.999        C   45 0.978
   120  H   0.999        C   45 0.977
   121  H   0.999        C   46 0.988
   122  H   0.998        C   46 0.987
   123  H   0.999        C   46 0.987
   124  H   0.996        C   52 0.949
   125  H   0.996        C   52 0.962
   126  H   0.998        C   53 0.958
   127  H   0.998        C   54 0.967
   128  H   0.999        C   54 0.970
   129  H   0.999        C   55 0.987
   130  H   0.998        C   55 0.986
   131  H   0.999        C   55 0.983
   132  H   0.999        C   56 0.973
   133  H   0.999        C   56 0.972
   134  H   0.998        C   57 0.965
   135  H   0.999        C   57 0.974
   136  H   0.999        C   58 0.978
   137  H   0.999        C   58 0.976
   138  H   0.999        C   59 0.988
   139  H   0.999        C   59 0.987
   140  H   0.998        C   59 0.985
   141  H   0.996        C   67 0.960
   142  H   0.991        C   68 0.944
   143  H   0.996        C   77 0.962
   144  H   0.997        C   78 0.970
   145  H   0.997        C   79 0.970
   146  H   0.996        C   80 0.966

molecular dipole:
                 x           y           z       tot (Debye)
 q only:        0.311      -0.657       0.319
   full:        0.799      -0.671       0.183       2.694
molecular quadrupole (traceless):
                xx          xy          yy          xz          yz          zz
 q only:       80.060       6.419     -51.099      -9.061      18.324     -28.961
  q+dip:       61.669      -9.130     -20.831      -8.081      32.138     -40.838
   full:       54.836      -8.818     -23.653      -6.383      23.693     -31.183


           -------------------------------------------------
          | TOTAL ENERGY             -225.087324352978 Eh   |
          | GRADIENT NORM               0.118455601197 Eh/α |
          | HOMO-LUMO GAP               1.004636574990 eV   |
           -------------------------------------------------

------------------------------------------------------------------------
 * finished run on 2021/04/12 at 13:53:50.730     
------------------------------------------------------------------------
 total:
 * wall-time:     0 d,  0 h,  0 min,  1.338 sec
 *  cpu-time:     0 d,  0 h,  0 min,  1.325 sec
 * ratio c/w:     0.990 speedup
 SCF:
 * wall-time:     0 d,  0 h,  0 min,  1.010 sec
 *  cpu-time:     0 d,  0 h,  0 min,  1.007 sec
 * ratio c/w:     0.998 speedup

