      -----------------------------------------------------------      
     |                   =====================                   |     
     |                           x T B                           |     
     |                   =====================                   |     
     |                         S. Grimme                         |     
     |          Mulliken Center for Theoretical Chemistry        |     
     |                    University of Bonn                     |     
     |                Version 6.2 RC2 (SAW190805)                |     
      -----------------------------------------------------------      

   This program is distributed in the hope that it will be useful,
   but WITHOUT ANY WARRANTY; without even the implied warranty of
   MERCHANTABILITY or FITNESS FOR A PARTICULAR PURPOSE.
   
   FOR NON-COMMERCIAL, ACADEMIA USE ONLY.
   
   Cite this work as:
   * S. Grimme, C. Bannwarth, P. Shushkov, J. Chem. Theory Comput., 2017,
     13, 1989-2009. DOI: 10.1021/acs.jctc.7b00118
   * C. Bannwarth, S. Ehlert and S. Grimme., J. Chem. Theory Comput., 2019,
     15, 1652-1671. DOI: 10.1021/acs.jctc.8b01176
   * P. Pracht, E. Caldeweyher, S. Ehlert, S. Grimme, ChemRxiv, 2019, preprint.
     DOI: 10.26434/chemrxiv.8326202.v1
   
   for DFT-D4:
   * E. Caldeweyher, C. Bannwarth and S. Grimme, J. Chem. Phys., 2017,
     147, 034112. DOI: 10.1063/1.4993215
   * E. Caldeweyher, S. Ehlert, A. Hansen, H. Neugebauer, S. Spicher,
     C. Bannwarth and S. Grimme, J. Chem. Phys., 2019, 150, 154122.
     DOI: 10.1063/1.5090222
   
   for sTDA-xTB:
   * S. Grimme and C. Bannwarth, J. Chem. Phys., 2016, 145, 054103.
     DOI: 10.1063/1.4959605
   
   in the mass-spec context:
   * V. Asgeirsson, C. Bauer and S. Grimme, Chem. Sci., 2017, 8, 4879.
     DOI: 10.1039/c7sc00601b
   
   for metadynamics refer to:
   * S. Grimme, J. Chem. Theory Comput., 2019, 155, 2847-2862
     DOI: 10.1021/acs.jctc.9b00143
   
   with help from (in alphabetical order)
   C. Bannwarth, F. Bohle, G. Brandenburg, E. Caldeweyher, M. Checinski,
   S. Dohm, S. Ehlert, S. Ehrlich, F. März, H. Neugebauer, J. Pisarek,
   P. Pracht, P. Shushkov, and S. Spicher.
   
 * started run on 2021/04/12 at 13:52:53.544     

           -------------------------------------------------
          |                Calculation Setup                |
           -------------------------------------------------

          program call               : /ihome/ghutchison/geoffh/xtb/xtb Y11.xyz -sp
          hostname                   : smp-n149
          coordinate file            : Y11.xyz
          omp threads                :                     1
          number of atoms            :                   104
          number of electrons        :                   356
          charge                     :                     0
          spin                       :                   0.0
          first test random number   :      0.82679181046658


########################################################################
# WARNING! Please study the warnings concerning your input carefully
#  - XTBPATH is not set, using XTBHOME instead
#  - the use of '-sp' is discouraged, please use '--sp' next time
########################################################################

           ------------------------------------------------- 
          |                 G F N 2 - x T B                 |
          | Geometry, Frequencies, Noncovalent interactions |
          |            JCTC 2019 parametrisation            |
           ------------------------------------------------- 
             KAB for C  - Si     :                1.0500
             KAB for H  - Pd     :                0.9500
             k(s)              :                1.8500
             k(p)              :                2.2300
             k(d)              :                2.2300
             k(f)              :                2.0000
             kEN (H0ij)        :               -2.0000
             D4 a1             :                0.5200
             D4 a2             :                5.0000
             D4 s6             :                1.0000
             D4 s8             :                2.7000
             D4 s9             :                5.0000
             alphaj            :                2.0000

  Z AO/shell   Hii/eV     exponent
  1     Wed Apr 25 08:07:45 CEST 2018   EN: 2.200 GM2: 0.406  GM3: 0.0800  RAES: 1.40
     1s    -10.707211    1.230000
  6     Wed Apr 25 08:07:45 CEST 2018   EN: 2.550 GM2: 0.538  GM3: 0.1500  RAES: 3.00
     2s    -13.970922    2.096432
     2p    -10.063292    1.800000
  7     Wed Apr 25 08:07:45 CEST 2018   EN: 3.040 GM2: 0.461  GM3:-0.0640  RAES: 1.90
     2s    -16.686243    2.339881
     2p    -12.523956    2.014332
  8     Wed Apr 25 08:07:45 CEST 2018   EN: 3.440 GM2: 0.452  GM3:-0.0517  RAES: 1.80
     2s    -20.229985    2.439742
     2p    -15.503117    2.137023
  9     Mon Apr 23 13:58:50 CEST 2018   EN: 3.980 GM2: 0.532  GM3: 0.1426  RAES: 2.40
     2s    -23.458179    2.416361
     2p    -15.746583    2.308399
 16     Tue Apr 24 11:44:34 CEST 2018   EN: 2.580 GM2: 0.340  GM3:-0.0502  RAES: 3.10
     3s    -20.029654    1.981333
     3p    -11.377694    2.025643
     3d     -0.420282    1.702555

           ------------------------------------------------- 
          |        Self-Consistent Charge Iterations        |
           ------------------------------------------------- 

          ...................................................
          :                      SETUP                      :
          :.................................................:
          :  # basis functions                 347          :
          :  # atomic orbitals                 343          :
          :  # shells                          181          :
          :  # electrons                       356          :
          :  max. iterations                   250          :
          :  Hamiltonian                  GFN2-xTB          :
          :  restarted?                      false          :
          :  GBSA solvation                  false          :
          :  PC potential                    false          :
          :  electronic temp.          300.0000000     K    :
          :  accuracy                    1.0000000          :
          :  -> integral cutoff          0.2500000E+02      :
          :  -> integral neglect         0.1000000E-07      :
          :  -> SCF convergence          0.1000000E-05 Eh   :
          :  -> wf. convergence          0.1000000E-03 e    :
          :  Broyden damping             0.4000000          :
          ...................................................

 iter      E             dE          RMSdq      gap      omega  full diag
   1   -199.9641138 -0.199964E+03  0.477E+00    1.31       0.0  T
   2   -200.1204060 -0.156292E+00  0.317E+00    0.99       1.0  T
   3   -200.0842117  0.361943E-01  0.205E+00    0.98       1.0  T
   4   -200.3048513 -0.220640E+00  0.842E-01    1.20       1.0  T
   5   -200.3750071 -0.701559E-01  0.239E-01    0.95       1.0  T
   6   -200.3785724 -0.356527E-02  0.124E-01    1.06       1.0  T
   7   -200.3796531 -0.108069E-02  0.559E-02    1.02       1.0  T
   8   -200.3798737 -0.220576E-03  0.209E-02    1.03       1.0  T
   9   -200.3798894 -0.157585E-04  0.117E-02    1.03       1.0  T
  10   -200.3799003 -0.109289E-04  0.482E-03    1.03       2.0  T
  11   -200.3799014 -0.101658E-05  0.238E-03    1.03       4.1  T
  12   -200.3799017 -0.309879E-06  0.121E-03    1.03       8.1  T
  13   -200.3799018 -0.103112E-06  0.562E-04    1.03      17.4  T
  14   -200.3799018 -0.104609E-07  0.279E-04    1.03      35.1  T

   *** convergence criteria satisfied after 14 iterations ***

         #    Occupation            Energy/Eh            Energy/eV
      -------------------------------------------------------------
         1        2.0000           -0.8495910             -23.1185
       ...           ...                  ...                  ...
       172        2.0000           -0.4151226             -11.2961
       173        2.0000           -0.4135479             -11.2532
       174        2.0000           -0.4107041             -11.1758
       175        2.0000           -0.3997703             -10.8783
       176        2.0000           -0.3931691             -10.6987
       177        2.0000           -0.3851801             -10.4813
       178        2.0000           -0.3804404             -10.3523 (HOMO)
       179                         -0.3426988              -9.3253 (LUMO)
       180                         -0.3390638              -9.2264
       181                         -0.3296915              -8.9714
       182                         -0.3263660              -8.8809
       183                         -0.2936773              -7.9914
       ...                                ...                  ...
       343                          1.0637521              28.9462
      -------------------------------------------------------------
                  HL-Gap            0.0377416 Eh            1.0270 eV
             Fermi-level           -0.3615766 Eh           -9.8390 eV

 SCC (total)                   0 d,  0 h,  0 min,  0.665 sec
 SCC setup                      ...        0 min,  0.003 sec (  0.389%)
 Dispersion                     ...        0 min,  0.006 sec (  0.839%)
 integral evaluation            ...        0 min,  0.216 sec ( 32.385%)
 zeroth order Hamiltonian       ...        0 min,  0.001 sec (  0.202%)
 iterations                     ...        0 min,  0.274 sec ( 41.149%)
 molecular gradient             ...        0 min,  0.164 sec ( 24.673%)
 printout                       ...        0 min,  0.002 sec (  0.356%)

         :::::::::::::::::::::::::::::::::::::::::::::::::::::
         ::                     SUMMARY                     ::
         :::::::::::::::::::::::::::::::::::::::::::::::::::::
         :: total energy            -197.702046716696 Eh    ::
         :: gradient norm              0.108477808575 Eh/a0 ::
         :: HOMO-LUMO gap              1.027001661964 eV    ::
         ::.................................................::
         :: SCC energy              -200.379901784150 Eh    ::
         :: -> isotropic ES            0.144997347051 Eh    ::
         :: -> anisotropic ES          0.011517568039 Eh    ::
         :: -> anisotropic XC          0.111020685425 Eh    ::
         :: -> dispersion             -0.161365908919 Eh    ::
         :: repulsion energy           2.679338082353 Eh    ::
         :: add. restraining           0.000000000000 Eh    ::
         :::::::::::::::::::::::::::::::::::::::::::::::::::::

           -------------------------------------------------
          |                Property Printout                |
           -------------------------------------------------

    * Orbital Energies and Occupations

         #    Occupation            Energy/Eh            Energy/eV
      -------------------------------------------------------------
         1        2.0000           -0.8495910             -23.1185
       ...           ...                  ...                  ...
       166        2.0000           -0.4293829             -11.6841
       167        2.0000           -0.4272960             -11.6273
       168        2.0000           -0.4268788             -11.6160
       169        2.0000           -0.4259671             -11.5912
       170        2.0000           -0.4196028             -11.4180
       171        2.0000           -0.4174044             -11.3582
       172        2.0000           -0.4151226             -11.2961
       173        2.0000           -0.4135479             -11.2532
       174        2.0000           -0.4107041             -11.1758
       175        2.0000           -0.3997703             -10.8783
       176        2.0000           -0.3931691             -10.6987
       177        2.0000           -0.3851801             -10.4813
       178        2.0000           -0.3804404             -10.3523 (HOMO)
       179                         -0.3426988              -9.3253 (LUMO)
       180                         -0.3390638              -9.2264
       181                         -0.3296915              -8.9714
       182                         -0.3263660              -8.8809
       183                         -0.2936773              -7.9914
       184                         -0.2836676              -7.7190
       185                         -0.2780180              -7.5653
       186                         -0.2634252              -7.1682
       187                         -0.2597389              -7.0679
       188                         -0.2527369              -6.8773
       189                         -0.2524386              -6.8692
       ...                                ...                  ...
       343                          1.0637521              28.9462
      -------------------------------------------------------------
                  HL-Gap            0.0377416 Eh            1.0270 eV
             Fermi-level           -0.3615766 Eh           -9.8390 eV

     #   Z        covCN         q      C6AA      α(0)
     1   6 C      2.863     0.225    23.272     7.907
     2   8 O      0.869    -0.359    20.881     6.127
     3   6 C      3.027    -0.020    28.475     8.753
     4   6 C      2.907    -0.038    28.950     8.822
     5   6 C      2.777     0.160    24.530     8.112
     6   9 F      0.787    -0.183    11.064     3.929
     7   6 C      2.775     0.162    24.489     8.105
     8   9 F      0.788    -0.181    11.040     3.925
     9   6 C      2.908    -0.051    29.257     8.869
    10   6 C      3.015     0.005    27.897     8.664
    11   6 C      3.001     0.029    27.336     8.577
    12   6 C      2.943     0.007    27.866     8.658
    13   6 C      1.914     0.119    28.171     8.572
    14   7 N      0.911    -0.237    26.206     7.404
    15   6 C      1.915     0.118    28.187     8.574
    16   7 N      0.911    -0.227    25.965     7.370
    17   6 C      2.985    -0.040    28.991     8.832
    18   6 C      2.908    -0.015    28.392     8.737
    19   6 C      2.976     0.014    27.687     8.631
    20  16 S      2.184     0.015   140.436    19.945
    21   6 C      3.086     0.000    27.928     8.663
    22   6 C      3.137     0.008    27.605     8.599
    23   6 C      3.061     0.006    27.831     8.651
    24   6 C      3.799    -0.053    21.532     6.607
    25   6 C      3.745    -0.097    22.427     6.755
    26  16 S      2.146    -0.031   142.337    20.080
    27   6 C      3.058     0.008    27.793     8.646
    28   6 C      3.211     0.030    26.701     8.411
    29   7 N      2.780    -0.052    22.247     7.005
    30   6 C      3.742    -0.010    20.826     6.511
    31   6 C      3.746    -0.105    22.575     6.777
    32   6 C      3.033     0.028    27.350     8.578
    33   6 C      3.059    -0.028    28.633     8.775
    34   6 C      3.124     0.056    26.576     8.442
    35   7 N      1.964    -0.241    27.113     7.722
    36   7 N      3.253     0.191    18.066     6.313
    37   6 C      3.737    -0.018    20.982     6.537
    38   6 C      3.746    -0.108    22.642     6.787
    39   7 N      1.964    -0.242    27.136     7.725
    40   6 C      3.125     0.056    26.559     8.439
    41   6 C      3.061    -0.029    28.674     8.781
    42   6 C      3.030     0.027    27.377     8.582
    43   7 N      2.786    -0.042    22.059     6.976
    44   6 C      3.737     0.003    20.607     6.478
    45   6 C      3.746    -0.117    22.815     6.813
    46   6 C      3.200     0.027    26.853     8.445
    47   6 C      3.063     0.005    27.838     8.652
    48  16 S      2.156    -0.021   141.928    20.051
    49   6 C      3.144     0.007    27.599     8.596
    50   6 C      3.086     0.011    27.674     8.623
    51  16 S      2.246    -0.040   142.689    20.105
    52   6 C      2.977     0.019    27.573     8.613
    53   6 C      3.052     0.019    27.538     8.606
    54   6 C      3.799    -0.052    21.510     6.603
    55   6 C      3.745    -0.103    22.538     6.772
    56   6 C      2.961    -0.010    28.257     8.719
    57   6 C      2.985    -0.041    29.021     8.837
    58   6 C      3.002     0.029    27.344     8.578
    59   6 C      2.944     0.008    27.831     8.652
    60   6 C      1.916     0.118    28.185     8.574
    61   7 N      0.911    -0.225    25.926     7.364
    62   6 C      1.915     0.117    28.211     8.578
    63   7 N      0.911    -0.233    26.104     7.389
    64   6 C      3.012     0.004    27.919     8.667
    65   6 C      2.908    -0.051    29.264     8.870
    66   6 C      2.775     0.162    24.494     8.106
    67   9 F      0.787    -0.182    11.049     3.926
    68   6 C      2.777     0.160    24.529     8.112
    69   9 F      0.787    -0.183    11.058     3.928
    70   6 C      2.906    -0.039    28.959     8.824
    71   6 C      3.026    -0.020    28.488     8.755
    72   6 C      2.854     0.224    23.301     7.912
    73   8 O      0.856    -0.371    21.117     6.161
    74   1 H      0.924     0.091     1.870     2.138
    75   1 H      0.925     0.090     1.875     2.142
    76   1 H      0.925     0.075     2.031     2.228
    77   1 H      0.923     0.056     2.252     2.347
    78   1 H      0.924     0.053     2.279     2.361
    79   1 H      0.923     0.043     2.409     2.427
    80   1 H      0.923     0.053     2.287     2.365
    81   1 H      0.923     0.042     2.416     2.431
    82   1 H      0.925     0.070     2.090     2.261
    83   1 H      0.923     0.067     2.122     2.278
    84   1 H      0.923     0.043     2.411     2.428
    85   1 H      0.923     0.054     2.274     2.358
    86   1 H      0.923     0.048     2.341     2.393
    87   1 H      0.923     0.074     2.039     2.233
    88   1 H      0.923     0.074     2.041     2.234
    89   1 H      0.923     0.057     2.237     2.339
    90   1 H      0.923     0.056     2.243     2.342
    91   1 H      0.923     0.057     2.238     2.340
    92   1 H      0.923     0.059     2.213     2.326
    93   1 H      0.924     0.055     2.256     2.349
    94   1 H      0.923     0.060     2.197     2.318
    95   1 H      0.923     0.054     2.276     2.359
    96   1 H      0.924     0.056     2.250     2.346
    97   1 H      0.923     0.096     1.827     2.114
    98   1 H      0.923     0.047     2.353     2.399
    99   1 H      0.923     0.052     2.292     2.368
   100   1 H      0.923     0.045     2.386     2.416
   101   1 H      0.923     0.043     2.406     2.426
   102   1 H      0.924     0.068     2.105     2.269
   103   1 H      0.925     0.089     1.885     2.147
   104   1 H      0.924     0.091     1.870     2.138

 Mol. C6AA /au·bohr⁶  :     190461.576197
 Mol. C8AA /au·bohr⁸  :    5211307.069930
 Mol. α(0) /au        :        688.806697


Wiberg/Mayer (AO) data.
largest (>0.10) Wiberg bond orders for each atom
          total WBO             WBO to atom ...
     1  C   3.922        O    2 1.735    C   17 1.058    C    3 1.016
     2  O   2.082        C    1 1.735
     3  C   3.975        C    4 1.407    C   10 1.314    C    1 1.016
     4  C   3.977        C    3 1.407    C    5 1.393    H   74 0.959
     5  C   3.866        C    4 1.393    C    7 1.318    F    6 0.993
     6  F   1.133        C    5 0.993
     7  C   3.887        C    9 1.397    C    5 1.318    F    8 0.996
     8  F   1.138        C    7 0.996
     9  C   3.971        C    7 1.397    C   10 1.392    H   75 0.954
    10  C   3.980        C    9 1.392    C    3 1.314    C   11 1.071
    11  C   3.968        C   12 1.482    C   17 1.151    C   10 1.071
    12  C   3.925        C   11 1.482    C   13 1.097    C   15 1.094
    13  C   3.941        N   14 2.754    C   12 1.097
    14  N   2.967        C   13 2.754
    15  C   3.941        N   16 2.770    C   12 1.094
    16  N   2.969        C   15 2.770
    17  C   3.949        C   18 1.476    C   11 1.151    C    1 1.058
    18  C   3.942        C   17 1.476    C   19 1.322    H   76 0.927
    19  C   3.926        C   23 1.325    C   18 1.322    S   20 1.074
    20  S   2.659        C   21 1.159    C   19 1.074
    21  C   3.939        C   22 1.295    C   28 1.253    S   20 1.159
    22  C   3.928        C   23 1.360    C   21 1.295    S   26 1.076
    23  C   3.948        C   22 1.360    C   19 1.325    C   24 1.018
    24  C   3.991        C   23 1.018    C   25 0.995    H   78 0.963    H   77 0.959
    25  C   3.988        C   24 0.995    H   81 0.988    H   79 0.987    H   80 0.984
    26  S   2.478        C   27 1.100    C   22 1.076
    27  C   3.912        C   28 1.313    C   33 1.277    S   26 1.100
    28  C   3.937        C   27 1.313    C   21 1.253    N   29 1.149
    29  N   3.528        C   32 1.152    C   28 1.149    C   30 0.973
    30  C   3.959        C   31 1.009    N   29 0.973    H   83 0.963    H   82 0.949
    31  C   3.990        C   30 1.009    H   86 0.985    H   84 0.984    H   85 0.981
    32  C   3.919        C   33 1.276    C   42 1.232    N   29 1.152
    33  C   3.945        C   27 1.277    C   32 1.276    C   34 1.166
    34  C   3.971        N   35 1.381    C   40 1.229    C   33 1.166
    35  N   2.978        C   34 1.381    N   36 1.269    N   39 0.204
    36  N   3.721        N   35 1.269    N   39 1.268    C   37 0.976
    37  C   3.961        C   38 1.005    N   36 0.976    H   87 0.967    H   88 0.967
    38  C   3.986        C   37 1.005    H   91 0.985    H   89 0.985    H   90 0.982
    39  N   2.978        C   40 1.381    N   36 1.268    N   35 0.204
    40  C   3.971        N   39 1.381    C   34 1.229    C   41 1.167
    41  C   3.946        C   47 1.279    C   42 1.271    C   40 1.167
    42  C   3.919        C   41 1.271    C   32 1.232    N   43 1.160
    43  N   3.552        C   42 1.160    C   46 1.155    C   44 0.980
    44  C   3.965        C   45 1.009    N   43 0.980    H   92 0.965    H   93 0.957
    45  C   3.986        C   44 1.009    H   95 0.982    H   94 0.979    H   96 0.977
    46  C   3.936        C   47 1.303    C   50 1.255    N   43 1.155
    47  C   3.915        C   46 1.303    C   41 1.279    S   48 1.106
    48  S   2.506        C   47 1.106    C   49 1.080
    49  C   3.925        C   53 1.327    C   50 1.308    S   48 1.080
    50  C   3.926        C   49 1.308    C   46 1.255    S   51 1.141
    51  S   2.546        C   50 1.141    C   52 1.061
    52  C   3.920        C   53 1.347    C   56 1.307    S   51 1.061
    53  C   3.946        C   52 1.347    C   49 1.327    C   54 1.032
    54  C   3.990        C   53 1.032    C   55 1.016    H   98 0.955    H   97 0.919
    55  C   3.993        C   54 1.016    H  101 0.985    H  100 0.984    H   99 0.978
    56  C   3.945        C   57 1.482    C   52 1.307    H  102 0.939
    57  C   3.950        C   56 1.482    C   58 1.146    C   72 1.048
    58  C   3.970        C   59 1.487    C   57 1.146    C   64 1.076
    59  C   3.926        C   58 1.487    C   62 1.094    C   60 1.093
    60  C   3.941        N   61 2.770    C   59 1.093
    61  N   2.970        C   60 2.770
    62  C   3.942        N   63 2.761    C   59 1.094
    63  N   2.963        C   62 2.761
    64  C   3.981        C   65 1.389    C   71 1.314    C   58 1.076
    65  C   3.972        C   66 1.399    C   64 1.389    H  103 0.954
    66  C   3.887        C   65 1.399    C   68 1.318    F   67 0.995
    67  F   1.137        C   66 0.995
    68  C   3.864        C   70 1.391    C   66 1.318    F   69 0.993
    69  F   1.134        C   68 0.993
    70  C   3.976        C   71 1.410    C   68 1.391    H  104 0.960
    71  C   3.976        C   70 1.410    C   64 1.314    C   72 1.009
    72  C   3.925        O   73 1.747    C   57 1.048    C   71 1.009
    73  O   2.042        C   72 1.747
    74  H   0.991        C    4 0.959
    75  H   0.991        C    9 0.954
    76  H   0.993        C   18 0.927
    77  H   0.994        C   24 0.959
    78  H   0.997        C   24 0.963
    79  H   0.998        C   25 0.987
    80  H   0.996        C   25 0.984
    81  H   0.998        C   25 0.988
    82  H   0.994        C   30 0.949
    83  H   0.995        C   30 0.963
    84  H   0.998        C   31 0.984
    85  H   0.996        C   31 0.981
    86  H   0.998        C   31 0.985
    87  H   0.993        C   37 0.967
    88  H   0.993        C   37 0.967
    89  H   0.997        C   38 0.985
    90  H   0.996        C   38 0.982
    91  H   0.997        C   38 0.985
    92  H   0.995        C   44 0.965
    93  H   0.996        C   44 0.957
    94  H   0.996        C   45 0.979
    95  H   0.996        C   45 0.982
    96  H   0.997        C   45 0.977
    97  H   0.987        C   54 0.919
    98  H   0.996        C   54 0.955
    99  H   0.997        C   55 0.978
   100  H   0.997        C   55 0.984
   101  H   0.997        C   55 0.985
   102  H   0.993        C   56 0.939
   103  H   0.992        C   65 0.954
   104  H   0.991        C   70 0.960

molecular dipole:
                 x           y           z       tot (Debye)
 q only:       -0.480      -2.920       2.252
   full:       -0.071      -2.313       2.127       7.989
molecular quadrupole (traceless):
                xx          xy          yy          xz          yz          zz
 q only:     -181.419     -71.849      99.734      64.435      15.177      81.685
  q+dip:     -159.553     -55.946      90.498      75.382      21.531      69.055
   full:     -168.926     -56.215      97.152      75.324      30.547      71.774


           -------------------------------------------------
          | TOTAL ENERGY             -197.702046716696 Eh   |
          | GRADIENT NORM               0.108477808575 Eh/α |
          | HOMO-LUMO GAP               1.027001661964 eV   |
           -------------------------------------------------

------------------------------------------------------------------------
 * finished run on 2021/04/12 at 13:52:54.434     
------------------------------------------------------------------------
 total:
 * wall-time:     0 d,  0 h,  0 min,  0.890 sec
 *  cpu-time:     0 d,  0 h,  0 min,  0.887 sec
 * ratio c/w:     0.997 speedup
 SCF:
 * wall-time:     0 d,  0 h,  0 min,  0.666 sec
 *  cpu-time:     0 d,  0 h,  0 min,  0.665 sec
 * ratio c/w:     0.998 speedup

