      -----------------------------------------------------------      
     |                   =====================                   |     
     |                           x T B                           |     
     |                   =====================                   |     
     |                         S. Grimme                         |     
     |          Mulliken Center for Theoretical Chemistry        |     
     |                    University of Bonn                     |     
     |                Version 6.2 RC2 (SAW190805)                |     
      -----------------------------------------------------------      

   This program is distributed in the hope that it will be useful,
   but WITHOUT ANY WARRANTY; without even the implied warranty of
   MERCHANTABILITY or FITNESS FOR A PARTICULAR PURPOSE.
   
   FOR NON-COMMERCIAL, ACADEMIA USE ONLY.
   
   Cite this work as:
   * S. Grimme, C. Bannwarth, P. Shushkov, J. Chem. Theory Comput., 2017,
     13, 1989-2009. DOI: 10.1021/acs.jctc.7b00118
   * C. Bannwarth, S. Ehlert and S. Grimme., J. Chem. Theory Comput., 2019,
     15, 1652-1671. DOI: 10.1021/acs.jctc.8b01176
   * P. Pracht, E. Caldeweyher, S. Ehlert, S. Grimme, ChemRxiv, 2019, preprint.
     DOI: 10.26434/chemrxiv.8326202.v1
   
   for DFT-D4:
   * E. Caldeweyher, C. Bannwarth and S. Grimme, J. Chem. Phys., 2017,
     147, 034112. DOI: 10.1063/1.4993215
   * E. Caldeweyher, S. Ehlert, A. Hansen, H. Neugebauer, S. Spicher,
     C. Bannwarth and S. Grimme, J. Chem. Phys., 2019, 150, 154122.
     DOI: 10.1063/1.5090222
   
   for sTDA-xTB:
   * S. Grimme and C. Bannwarth, J. Chem. Phys., 2016, 145, 054103.
     DOI: 10.1063/1.4959605
   
   in the mass-spec context:
   * V. Asgeirsson, C. Bauer and S. Grimme, Chem. Sci., 2017, 8, 4879.
     DOI: 10.1039/c7sc00601b
   
   for metadynamics refer to:
   * S. Grimme, J. Chem. Theory Comput., 2019, 155, 2847-2862
     DOI: 10.1021/acs.jctc.9b00143
   
   with help from (in alphabetical order)
   C. Bannwarth, F. Bohle, G. Brandenburg, E. Caldeweyher, M. Checinski,
   S. Dohm, S. Ehlert, S. Ehrlich, F. März, H. Neugebauer, J. Pisarek,
   P. Pracht, P. Shushkov, and S. Spicher.
   
 * started run on 2020/11/20 at 13:46:01.097     

           -------------------------------------------------
          |                Calculation Setup                |
           -------------------------------------------------

          program call               : /ihome/ghutchison/geoffh/xtb/xtb Y11.xyz -sp
          hostname                   : smp-n106
          coordinate file            : Y11.xyz
          omp threads                :                     1
          number of atoms            :                   104
          number of electrons        :                   356
          charge                     :                     0
          spin                       :                   0.0
          first test random number   :      0.08634121033317


########################################################################
# WARNING! Please study the warnings concerning your input carefully
#  - XTBPATH is not set, using XTBHOME instead
#  - the use of '-sp' is discouraged, please use '--sp' next time
########################################################################

           ------------------------------------------------- 
          |                 G F N 2 - x T B                 |
          | Geometry, Frequencies, Noncovalent interactions |
          |            JCTC 2019 parametrisation            |
           ------------------------------------------------- 
             KAB for C  - Si     :                1.0500
             KAB for H  - Pd     :                0.9500
             k(s)              :                1.8500
             k(p)              :                2.2300
             k(d)              :                2.2300
             k(f)              :                2.0000
             kEN (H0ij)        :               -2.0000
             D4 a1             :                0.5200
             D4 a2             :                5.0000
             D4 s6             :                1.0000
             D4 s8             :                2.7000
             D4 s9             :                5.0000
             alphaj            :                2.0000

  Z AO/shell   Hii/eV     exponent
  1     Wed Apr 25 08:07:45 CEST 2018   EN: 2.200 GM2: 0.406  GM3: 0.0800  RAES: 1.40
     1s    -10.707211    1.230000
  6     Wed Apr 25 08:07:45 CEST 2018   EN: 2.550 GM2: 0.538  GM3: 0.1500  RAES: 3.00
     2s    -13.970922    2.096432
     2p    -10.063292    1.800000
  7     Wed Apr 25 08:07:45 CEST 2018   EN: 3.040 GM2: 0.461  GM3:-0.0640  RAES: 1.90
     2s    -16.686243    2.339881
     2p    -12.523956    2.014332
  8     Wed Apr 25 08:07:45 CEST 2018   EN: 3.440 GM2: 0.452  GM3:-0.0517  RAES: 1.80
     2s    -20.229985    2.439742
     2p    -15.503117    2.137023
  9     Mon Apr 23 13:58:50 CEST 2018   EN: 3.980 GM2: 0.532  GM3: 0.1426  RAES: 2.40
     2s    -23.458179    2.416361
     2p    -15.746583    2.308399
 16     Tue Apr 24 11:44:34 CEST 2018   EN: 2.580 GM2: 0.340  GM3:-0.0502  RAES: 3.10
     3s    -20.029654    1.981333
     3p    -11.377694    2.025643
     3d     -0.420282    1.702555

           ------------------------------------------------- 
          |        Self-Consistent Charge Iterations        |
           ------------------------------------------------- 

          ...................................................
          :                      SETUP                      :
          :.................................................:
          :  # basis functions                 347          :
          :  # atomic orbitals                 343          :
          :  # shells                          181          :
          :  # electrons                       356          :
          :  max. iterations                   250          :
          :  Hamiltonian                  GFN2-xTB          :
          :  restarted?                      false          :
          :  GBSA solvation                  false          :
          :  PC potential                    false          :
          :  electronic temp.          300.0000000     K    :
          :  accuracy                    1.0000000          :
          :  -> integral cutoff          0.2500000E+02      :
          :  -> integral neglect         0.1000000E-07      :
          :  -> SCF convergence          0.1000000E-05 Eh   :
          :  -> wf. convergence          0.1000000E-03 e    :
          :  Broyden damping             0.4000000          :
          ...................................................

 iter      E             dE          RMSdq      gap      omega  full diag
   1   -199.5807348 -0.199581E+03  0.492E+00    0.97       0.0  T
   2   -199.7471303 -0.166396E+00  0.328E+00    0.47       1.0  T
   3   -199.7726178 -0.254875E-01  0.212E+00    0.52       1.0  T
   4   -199.8921896 -0.119572E+00  0.121E+00    0.34       1.0  T
   5   -200.0495893 -0.157400E+00  0.536E-01    0.42       1.0  T
   6   -200.0806493 -0.310601E-01  0.239E-01    0.58       1.0  T
   7   -200.0823578 -0.170846E-02  0.128E-01    0.59       1.0  T
   8   -200.0828732 -0.515415E-03  0.108E-01    0.61       1.0  T
   9   -200.0838016 -0.928383E-03  0.393E-02    0.59       1.0  T
  10   -200.0839332 -0.131617E-03  0.171E-02    0.60       1.0  T
  11   -200.0839491 -0.159139E-04  0.103E-02    0.59       1.0  T
  12   -200.0839579 -0.879976E-05  0.314E-03    0.59       3.1  T
  13   -200.0839585 -0.533213E-06  0.151E-03    0.60       6.5  T
  14   -200.0839586 -0.900014E-07  0.822E-04    0.60      11.9  T
  15   -200.0839586 -0.290609E-07  0.415E-04    0.60      23.7  T

   *** convergence criteria satisfied after 15 iterations ***

         #    Occupation            Energy/Eh            Energy/eV
      -------------------------------------------------------------
         1        2.0000           -0.8594396             -23.3865
       ...           ...                  ...                  ...
       172        2.0000           -0.4168475             -11.3430
       173        2.0000           -0.4086744             -11.1206
       174        2.0000           -0.4020958             -10.9416
       175        2.0000           -0.3952516             -10.7553
       176        2.0000           -0.3790361             -10.3141
       177        2.0000           -0.3729261             -10.1478
       178        2.0000           -0.3711544             -10.0996 (HOMO)
       179        0.0000           -0.3492770              -9.5043 (LUMO)
       180        0.0000           -0.3476578              -9.4603
       181                         -0.3382693              -9.2048
       182                         -0.3348083              -9.1106
       183                         -0.3252080              -8.8494
       ...                                ...                  ...
       343                          1.0610135              28.8716
      -------------------------------------------------------------
                  HL-Gap            0.0218775 Eh            0.5953 eV
             Fermi-level           -0.3602266 Eh           -9.8023 eV

 SCC (total)                   0 d,  0 h,  0 min,  0.810 sec
 SCC setup                      ...        0 min,  0.003 sec (  0.345%)
 Dispersion                     ...        0 min,  0.008 sec (  0.982%)
 integral evaluation            ...        0 min,  0.240 sec ( 29.554%)
 zeroth order Hamiltonian       ...        0 min,  0.002 sec (  0.202%)
 iterations                     ...        0 min,  0.352 sec ( 43.392%)
 molecular gradient             ...        0 min,  0.204 sec ( 25.159%)
 printout                       ...        0 min,  0.003 sec (  0.354%)

         :::::::::::::::::::::::::::::::::::::::::::::::::::::
         ::                     SUMMARY                     ::
         :::::::::::::::::::::::::::::::::::::::::::::::::::::
         :: total energy            -197.435007181696 Eh    ::
         :: gradient norm              0.115786572674 Eh/a0 ::
         :: HOMO-LUMO gap              0.595316214642 eV    ::
         ::.................................................::
         :: SCC energy              -200.083958582790 Eh    ::
         :: -> isotropic ES            0.144697564808 Eh    ::
         :: -> anisotropic ES          0.008036126703 Eh    ::
         :: -> anisotropic XC          0.116300940270 Eh    ::
         :: -> dispersion             -0.168402137855 Eh    ::
         :: repulsion energy           2.646115090667 Eh    ::
         :: add. restraining           0.000000000000 Eh    ::
         :::::::::::::::::::::::::::::::::::::::::::::::::::::

           -------------------------------------------------
          |                Property Printout                |
           -------------------------------------------------

    * Orbital Energies and Occupations

         #    Occupation            Energy/Eh            Energy/eV
      -------------------------------------------------------------
         1        2.0000           -0.8594396             -23.3865
       ...           ...                  ...                  ...
       166        2.0000           -0.4334880             -11.7958
       167        2.0000           -0.4318193             -11.7504
       168        2.0000           -0.4283964             -11.6573
       169        2.0000           -0.4270179             -11.6197
       170        2.0000           -0.4219048             -11.4806
       171        2.0000           -0.4189524             -11.4003
       172        2.0000           -0.4168475             -11.3430
       173        2.0000           -0.4086744             -11.1206
       174        2.0000           -0.4020958             -10.9416
       175        2.0000           -0.3952516             -10.7553
       176        2.0000           -0.3790361             -10.3141
       177        2.0000           -0.3729261             -10.1478
       178        2.0000           -0.3711544             -10.0996 (HOMO)
       179        0.0000           -0.3492770              -9.5043 (LUMO)
       180        0.0000           -0.3476578              -9.4603
       181                         -0.3382693              -9.2048
       182                         -0.3348083              -9.1106
       183                         -0.3252080              -8.8494
       184                         -0.3145069              -8.5582
       185                         -0.2893320              -7.8731
       186                         -0.2803324              -7.6282
       187                         -0.2726803              -7.4200
       188                         -0.2720053              -7.4016
       189                         -0.2643423              -7.1931
       ...                                ...                  ...
       343                          1.0610135              28.8716
      -------------------------------------------------------------
                  HL-Gap            0.0218775 Eh            0.5953 eV
             Fermi-level           -0.3602266 Eh           -9.8023 eV

     #   Z        covCN         q      C6AA      α(0)
     1   6 C      2.862     0.226    23.252     7.904
     2   8 O      0.856    -0.353    20.758     6.108
     3   6 C      3.025    -0.019    28.457     8.750
     4   6 C      2.906    -0.037    28.921     8.818
     5   6 C      2.778     0.162    24.494     8.106
     6   9 F      0.787    -0.179    11.025     3.922
     7   6 C      2.776     0.163    24.463     8.101
     8   9 F      0.788    -0.179    11.020     3.921
     9   6 C      2.907    -0.050    29.241     8.867
    10   6 C      3.016     0.006    27.875     8.661
    11   6 C      2.999     0.035    27.214     8.557
    12   6 C      2.944     0.011    27.781     8.645
    13   6 C      1.913     0.120    28.157     8.570
    14   7 N      0.911    -0.235    26.146     7.395
    15   6 C      1.913     0.117    28.217     8.579
    16   7 N      0.911    -0.226    25.937     7.366
    17   6 C      2.989    -0.034    28.842     8.810
    18   6 C      2.921    -0.006    28.182     8.706
    19   6 C      2.987     0.019    27.567     8.613
    20  16 S      2.208    -0.048   143.051    20.130
    21   6 C      3.083     0.009    27.732     8.633
    22   6 C      3.160     0.013    27.402     8.557
    23   6 C      3.068     0.012    27.685     8.628
    24   6 C      3.799    -0.051    21.484     6.599
    25   6 C      3.746    -0.100    22.482     6.763
    26  16 S      2.143    -0.003   141.194    19.999
    27   6 C      3.079     0.006    27.791     8.643
    28   6 C      3.193     0.031    26.802     8.442
    29   7 N      2.789    -0.035    21.918     6.953
    30   6 C      3.734     0.005    20.573     6.473
    31   6 C      3.746    -0.109    22.655     6.789
    32   6 C      3.050     0.022    27.464     8.595
    33   6 C      3.058    -0.024    28.534     8.760
    34   6 C      3.129     0.057    26.523     8.432
    35   7 N      1.968    -0.231    26.880     7.689
    36   7 N      3.248     0.185    18.157     6.329
    37   6 C      3.737    -0.018    20.979     6.536
    38   6 C      3.747    -0.107    22.617     6.784
    39   7 N      1.969    -0.243    27.169     7.730
    40   6 C      3.115     0.054    26.636     8.454
    41   6 C      4.102     0.018    20.187     6.382
    42   6 C      3.181     0.036    26.772     8.446
    43   7 N      2.900    -0.019    21.619     6.906
    44   6 C      3.731     0.004    20.597     6.478
    45   6 C      3.747    -0.107    22.609     6.782
    46   6 C      3.583    -0.090    22.980     6.956
    47   6 C      3.623     0.031    20.482     6.523
    48  16 S      2.351    -0.156   147.654    20.451
    49   6 C      3.167     0.055    26.419     8.399
    50   6 C      3.414    -0.044    24.734     7.638
    51  16 S      1.121    -0.197   147.555    20.541
    52   6 C      2.944     0.095    25.891     8.345
    53   6 C      2.980     0.019    27.588     8.616
    54   6 C      3.805    -0.050    21.458     6.595
    55   6 C      3.746    -0.095    22.390     6.750
    56   6 C      2.998    -0.002    28.058     8.689
    57   6 C      2.986    -0.017    28.436     8.747
    58   6 C      2.996     0.037    27.159     8.549
    59   6 C      2.944     0.020    27.568     8.611
    60   6 C      1.913     0.122    28.110     8.562
    61   7 N      0.911    -0.217    25.725     7.336
    62   6 C      1.912     0.122    28.108     8.562
    63   7 N      0.911    -0.211    25.591     7.317
    64   6 C      3.014     0.012    27.733     8.639
    65   6 C      2.908    -0.049    29.212     8.862
    66   6 C      2.777     0.164    24.454     8.099
    67   9 F      0.787    -0.185    11.081     3.932
    68   6 C      2.781     0.163    24.472     8.103
    69   9 F      0.787    -0.185    11.083     3.933
    70   6 C      2.906    -0.031    28.764     8.794
    71   6 C      3.026    -0.011    28.257     8.719
    72   6 C      2.855     0.236    23.066     7.872
    73   8 O      0.856    -0.343    20.572     6.081
    74   1 H      0.924     0.095     1.832     2.117
    75   1 H      0.925     0.090     1.881     2.145
    76   1 H      0.923     0.083     1.944     2.181
    77   1 H      0.923     0.054     2.265     2.354
    78   1 H      0.923     0.046     2.370     2.408
    79   1 H      0.923     0.051     2.308     2.376
    80   1 H      0.923     0.046     2.369     2.407
    81   1 H      0.923     0.051     2.308     2.376
    82   1 H      0.923     0.060     2.193     2.316
    83   1 H      0.923     0.051     2.303     2.373
    84   1 H      0.923     0.054     2.273     2.358
    85   1 H      0.923     0.053     2.278     2.360
    86   1 H      0.923     0.054     2.276     2.359
    87   1 H      0.924     0.081     1.969     2.194
    88   1 H      0.924     0.074     2.047     2.237
    89   1 H      0.923     0.055     2.257     2.350
    90   1 H      0.923     0.067     2.122     2.278
    91   1 H      0.923     0.048     2.347     2.396
    92   1 H      0.924     0.052     2.290     2.367
    93   1 H      0.923     0.050     2.322     2.383
    94   1 H      0.923     0.052     2.299     2.371
    95   1 H      0.923     0.052     2.296     2.370
    96   1 H      0.923     0.062     2.177     2.308
    97   1 H      0.923     0.069     2.097     2.265
    98   1 H      0.923     0.053     2.285     2.364
    99   1 H      0.923     0.049     2.338     2.391
   100   1 H      0.923     0.045     2.389     2.417
   101   1 H      0.923     0.033     2.544     2.494
   102   1 H      0.924     0.088     1.894     2.152
   103   1 H      0.925     0.092     1.859     2.132
   104   1 H      0.924     0.099     1.795     2.095

 Mol. C6AA /au·bohr⁶  :     188062.515520
 Mol. C8AA /au·bohr⁸  :    5147686.696948
 Mol. α(0) /au        :        681.225754


Wiberg/Mayer (AO) data.
largest (>0.10) Wiberg bond orders for each atom
          total WBO             WBO to atom ...
     1  C   3.925        O    2 1.784    C    3 1.014    C   17 1.014
     2  O   2.058        C    1 1.784
     3  C   3.973        C    4 1.405    C   10 1.310    C    1 1.014
     4  C   3.977        C    3 1.405    C    5 1.395    H   74 0.959
     5  C   3.881        C    4 1.395    C    7 1.314    F    6 0.996
     6  F   1.138        C    5 0.996
     7  C   3.888        C    9 1.400    C    5 1.314    F    8 0.997
     8  F   1.141        C    7 0.997
     9  C   3.972        C    7 1.400    C   10 1.390    H   75 0.955
    10  C   3.981        C    9 1.390    C    3 1.310    C   11 1.072
    11  C   3.970        C   12 1.484    C   17 1.142    C   10 1.072
    12  C   3.964        C   11 1.484    C   13 1.095    C   15 1.095
    13  C   3.942        N   14 2.769    C   12 1.095
    14  N   2.982        C   13 2.769
    15  C   3.942        N   16 2.770    C   12 1.095
    16  N   2.970        C   15 2.770
    17  C   3.954        C   18 1.551    C   11 1.142    C    1 1.014
    18  C   3.934        C   17 1.551    C   19 1.234    H   76 0.936
    19  C   3.918        C   23 1.405    C   18 1.234    S   20 1.073
    20  S   2.533        C   21 1.122    C   19 1.073
    21  C   3.934        C   22 1.326    C   28 1.251    S   20 1.122
    22  C   3.924        C   21 1.326    C   23 1.304    S   26 1.092
    23  C   3.964        C   19 1.405    C   22 1.304    C   24 1.016
    24  C   3.991        C   23 1.016    C   25 0.995    H   78 0.970    H   77 0.961
    25  C   3.988        C   24 0.995    H   81 0.986    H   79 0.984    H   80 0.984
    26  S   2.505        C   27 1.105    C   22 1.092
    27  C   3.920        C   33 1.313    C   28 1.279    S   26 1.105
    28  C   3.922        C   27 1.279    C   21 1.251    N   29 1.171
    29  N   3.567        C   28 1.171    C   32 1.154    C   30 0.982
    30  C   3.965        C   31 1.008    N   29 0.982    H   82 0.968    H   83 0.960
    31  C   3.988        C   30 1.008    H   85 0.985    H   84 0.982    H   86 0.982
    32  C   3.920        C   33 1.265    C   42 1.239    N   29 1.154
    33  C   3.963        C   27 1.313    C   32 1.265    C   34 1.127
    34  C   3.970        N   35 1.401    C   40 1.258    C   33 1.127
    35  N   2.986        C   34 1.401    N   36 1.268    N   39 0.186
    36  N   3.715        N   35 1.268    N   39 1.256    C   37 0.973
    37  C   3.956        C   38 1.006    N   36 0.973    H   87 0.967    H   88 0.960
    38  C   3.986        C   37 1.006    H   89 0.986    H   91 0.984    H   90 0.980
    39  N   2.986        C   40 1.431    N   36 1.256    N   35 0.186
    40  C   3.971        N   39 1.431    C   34 1.258    C   41 1.058
    41  C   3.949        C   40 1.058    C   42 1.029    C   47 0.952    C   46 0.714
    42  C   3.926        N   43 1.295    C   32 1.239    C   41 1.029    C   46 0.121
    43  N   3.579        C   42 1.295    C   46 1.070    C   44 0.976
    44  C   3.967        C   45 1.015    N   43 0.976    H   92 0.958    H   93 0.958
    45  C   3.988        C   44 1.015    H   94 0.985    H   95 0.983    H   96 0.979
    46  C   3.206        N   43 1.070    C   50 0.931    C   41 0.714    C   47 0.163    C   42 0.121
    47  C   3.802        C   50 1.464    S   48 0.980    C   41 0.952    C   46 0.163
    48  S   2.292        C   47 0.980    C   49 0.977    C   50 0.102
    49  C   3.942        C   53 1.579    C   50 1.117    S   48 0.977    S   51 0.118
    50  C   3.812        C   47 1.464    C   49 1.117    C   46 0.931    S   48 0.102
    51  S   1.951        C   52 1.583    C   49 0.118
    52  C   3.959        S   51 1.583    C   53 1.177    C   56 1.079
    53  C   3.967        C   49 1.579    C   52 1.177    C   54 0.990
    54  C   3.989        C   55 0.999    C   53 0.990    H   97 0.966    H   98 0.964
    55  C   3.992        C   54 0.999    H  101 0.988    H   99 0.986    H  100 0.984
    56  C   3.951        C   57 1.652    C   52 1.079    H  102 0.935
    57  C   3.980        C   56 1.652    C   58 1.102    C   72 1.000
    58  C   3.981        C   59 1.520    C   57 1.102    C   64 1.083
    59  C   3.940        C   58 1.520    C   60 1.089    C   62 1.088
    60  C   3.943        N   61 2.778    C   59 1.089
    61  N   2.978        C   60 2.778
    62  C   3.944        N   63 2.778    C   59 1.088
    63  N   2.988        C   62 2.778
    64  C   3.983        C   65 1.378    C   71 1.312    C   58 1.083
    65  C   3.971        C   66 1.409    C   64 1.378    H  103 0.954
    66  C   3.889        C   65 1.409    C   68 1.311    F   67 0.990
    67  F   1.131        C   66 0.990
    68  C   3.862        C   70 1.401    C   66 1.311    F   69 0.989
    69  F   1.130        C   68 0.989
    70  C   3.978        C   68 1.401    C   71 1.400    H  104 0.958
    71  C   3.975        C   70 1.400    C   64 1.312    C   72 1.020
    72  C   3.930        O   73 1.802    C   71 1.020    C   57 1.000
    73  O   2.085        C   72 1.802
    74  H   0.990        C    4 0.959
    75  H   0.991        C    9 0.955
    76  H   0.990        C   18 0.936
    77  H   0.994        C   24 0.961
    78  H   0.997        C   24 0.970
    79  H   0.997        C   25 0.984
    80  H   0.996        C   25 0.984
    81  H   0.997        C   25 0.986
    82  H   0.995        C   30 0.968
    83  H   0.996        C   30 0.960
    84  H   0.997        C   31 0.982
    85  H   0.997        C   31 0.985
    86  H   0.996        C   31 0.982
    87  H   0.993        C   37 0.967
    88  H   0.993        C   37 0.960
    89  H   0.997        C   38 0.986
    90  H   0.995        C   38 0.980
    91  H   0.998        C   38 0.984
    92  H   0.997        C   44 0.958
    93  H   0.991        C   44 0.958
    94  H   0.997        C   45 0.985
    95  H   0.997        C   45 0.983
    96  H   0.996        C   45 0.979
    97  H   0.995        C   54 0.966
    98  H   0.997        C   54 0.964
    99  H   0.998        C   55 0.986
   100  H   0.996        C   55 0.984
   101  H   0.999        C   55 0.988
   102  H   0.991        C   56 0.935
   103  H   0.991        C   65 0.954
   104  H   0.990        C   70 0.958

molecular dipole:
                 x           y           z       tot (Debye)
 q only:       -0.440       0.406      -1.136
   full:       -1.024       0.855      -1.779       5.652
molecular quadrupole (traceless):
                xx          xy          yy          xz          yz          zz
 q only:      -18.866     100.210     -23.822     -63.607      15.155      42.688
  q+dip:      -40.781     111.142     -20.644     -76.526      16.548      61.426
   full:      -41.825     108.527     -25.741     -76.748      18.346      67.565


           -------------------------------------------------
          | TOTAL ENERGY             -197.435007181696 Eh   |
          | GRADIENT NORM               0.115786572674 Eh/α |
          | HOMO-LUMO GAP               0.595316214642 eV   |
           -------------------------------------------------

------------------------------------------------------------------------
 * finished run on 2020/11/20 at 13:46:02.163     
------------------------------------------------------------------------
 total:
 * wall-time:     0 d,  0 h,  0 min,  1.066 sec
 *  cpu-time:     0 d,  0 h,  0 min,  1.063 sec
 * ratio c/w:     0.997 speedup
 SCF:
 * wall-time:     0 d,  0 h,  0 min,  0.812 sec
 *  cpu-time:     0 d,  0 h,  0 min,  0.811 sec
 * ratio c/w:     1.000 speedup

