      -----------------------------------------------------------      
     |                   =====================                   |     
     |                           x T B                           |     
     |                   =====================                   |     
     |                         S. Grimme                         |     
     |          Mulliken Center for Theoretical Chemistry        |     
     |                    University of Bonn                     |     
     |                Version 6.2 RC2 (SAW190805)                |     
      -----------------------------------------------------------      

   This program is distributed in the hope that it will be useful,
   but WITHOUT ANY WARRANTY; without even the implied warranty of
   MERCHANTABILITY or FITNESS FOR A PARTICULAR PURPOSE.
   
   FOR NON-COMMERCIAL, ACADEMIA USE ONLY.
   
   Cite this work as:
   * S. Grimme, C. Bannwarth, P. Shushkov, J. Chem. Theory Comput., 2017,
     13, 1989-2009. DOI: 10.1021/acs.jctc.7b00118
   * C. Bannwarth, S. Ehlert and S. Grimme., J. Chem. Theory Comput., 2019,
     15, 1652-1671. DOI: 10.1021/acs.jctc.8b01176
   * P. Pracht, E. Caldeweyher, S. Ehlert, S. Grimme, ChemRxiv, 2019, preprint.
     DOI: 10.26434/chemrxiv.8326202.v1
   
   for DFT-D4:
   * E. Caldeweyher, C. Bannwarth and S. Grimme, J. Chem. Phys., 2017,
     147, 034112. DOI: 10.1063/1.4993215
   * E. Caldeweyher, S. Ehlert, A. Hansen, H. Neugebauer, S. Spicher,
     C. Bannwarth and S. Grimme, J. Chem. Phys., 2019, 150, 154122.
     DOI: 10.1063/1.5090222
   
   for sTDA-xTB:
   * S. Grimme and C. Bannwarth, J. Chem. Phys., 2016, 145, 054103.
     DOI: 10.1063/1.4959605
   
   in the mass-spec context:
   * V. Asgeirsson, C. Bauer and S. Grimme, Chem. Sci., 2017, 8, 4879.
     DOI: 10.1039/c7sc00601b
   
   for metadynamics refer to:
   * S. Grimme, J. Chem. Theory Comput., 2019, 155, 2847-2862
     DOI: 10.1021/acs.jctc.9b00143
   
   with help from (in alphabetical order)
   C. Bannwarth, F. Bohle, G. Brandenburg, E. Caldeweyher, M. Checinski,
   S. Dohm, S. Ehlert, S. Ehrlich, F. März, H. Neugebauer, J. Pisarek,
   P. Pracht, P. Shushkov, and S. Spicher.
   
 * started run on 2020/11/20 at 13:46:02.182     

           -------------------------------------------------
          |                Calculation Setup                |
           -------------------------------------------------

          program call               : /ihome/ghutchison/geoffh/xtb/xtb Y14.xyz -sp
          hostname                   : smp-n106
          coordinate file            : Y14.xyz
          omp threads                :                     1
          number of atoms            :                   122
          number of electrons        :                   380
          charge                     :                     0
          spin                       :                   0.0
          first test random number   :      0.71814105289149


########################################################################
# WARNING! Please study the warnings concerning your input carefully
#  - XTBPATH is not set, using XTBHOME instead
#  - the use of '-sp' is discouraged, please use '--sp' next time
########################################################################

           ------------------------------------------------- 
          |                 G F N 2 - x T B                 |
          | Geometry, Frequencies, Noncovalent interactions |
          |            JCTC 2019 parametrisation            |
           ------------------------------------------------- 
             KAB for C  - Si     :                1.0500
             KAB for H  - Pd     :                0.9500
             k(s)              :                1.8500
             k(p)              :                2.2300
             k(d)              :                2.2300
             k(f)              :                2.0000
             kEN (H0ij)        :               -2.0000
             D4 a1             :                0.5200
             D4 a2             :                5.0000
             D4 s6             :                1.0000
             D4 s8             :                2.7000
             D4 s9             :                5.0000
             alphaj            :                2.0000

  Z AO/shell   Hii/eV     exponent
  1     Wed Apr 25 08:07:45 CEST 2018   EN: 2.200 GM2: 0.406  GM3: 0.0800  RAES: 1.40
     1s    -10.707211    1.230000
  6     Wed Apr 25 08:07:45 CEST 2018   EN: 2.550 GM2: 0.538  GM3: 0.1500  RAES: 3.00
     2s    -13.970922    2.096432
     2p    -10.063292    1.800000
  7     Wed Apr 25 08:07:45 CEST 2018   EN: 3.040 GM2: 0.461  GM3:-0.0640  RAES: 1.90
     2s    -16.686243    2.339881
     2p    -12.523956    2.014332
  8     Wed Apr 25 08:07:45 CEST 2018   EN: 3.440 GM2: 0.452  GM3:-0.0517  RAES: 1.80
     2s    -20.229985    2.439742
     2p    -15.503117    2.137023
  9     Mon Apr 23 13:58:50 CEST 2018   EN: 3.980 GM2: 0.532  GM3: 0.1426  RAES: 2.40
     2s    -23.458179    2.416361
     2p    -15.746583    2.308399
 16     Tue Apr 24 11:44:34 CEST 2018   EN: 2.580 GM2: 0.340  GM3:-0.0502  RAES: 3.10
     3s    -20.029654    1.981333
     3p    -11.377694    2.025643
     3d     -0.420282    1.702555

           ------------------------------------------------- 
          |        Self-Consistent Charge Iterations        |
           ------------------------------------------------- 

          ...................................................
          :                      SETUP                      :
          :.................................................:
          :  # basis functions                 377          :
          :  # atomic orbitals                 373          :
          :  # shells                          203          :
          :  # electrons                       380          :
          :  max. iterations                   250          :
          :  Hamiltonian                  GFN2-xTB          :
          :  restarted?                      false          :
          :  GBSA solvation                  false          :
          :  PC potential                    false          :
          :  electronic temp.          300.0000000     K    :
          :  accuracy                    1.0000000          :
          :  -> integral cutoff          0.2500000E+02      :
          :  -> integral neglect         0.1000000E-07      :
          :  -> SCF convergence          0.1000000E-05 Eh   :
          :  -> wf. convergence          0.1000000E-03 e    :
          :  Broyden damping             0.4000000          :
          ...................................................

 iter      E             dE          RMSdq      gap      omega  full diag
   1   -210.7009316 -0.210701E+03  0.474E+00    1.28       0.0  T
   2   -210.8876432 -0.186712E+00  0.303E+00    1.13       1.0  T
   3   -210.7561344  0.131509E+00  0.207E+00    0.25       1.0  T
   4   -211.0582687 -0.302134E+00  0.928E-01    0.93       1.0  T
   5   -211.1445906 -0.863220E-01  0.222E-01    0.55       1.0  T
   6   -211.1467825 -0.219187E-02  0.124E-01    0.58       1.0  T
   7   -211.1477477 -0.965187E-03  0.562E-02    0.57       1.0  T
   8   -211.1480093 -0.261576E-03  0.214E-02    0.58       1.0  T
   9   -211.1480345 -0.252478E-04  0.107E-02    0.58       1.0  T
  10   -211.1480425 -0.802561E-05  0.440E-03    0.58       2.1  T
  11   -211.1480433 -0.704487E-06  0.223E-03    0.58       4.1  T
  12   -211.1480436 -0.395077E-06  0.102E-03    0.58       8.9  T
  13   -211.1480437 -0.882319E-07  0.466E-04    0.58      19.4  T
  14   -211.1480437 -0.924149E-08  0.225E-04    0.58      40.3  T

   *** convergence criteria satisfied after 14 iterations ***

         #    Occupation            Energy/Eh            Energy/eV
      -------------------------------------------------------------
         1        2.0000           -0.8490379             -23.1035
       ...           ...                  ...                  ...
       184        2.0000           -0.4097341             -11.1494
       185        2.0000           -0.4085848             -11.1182
       186        2.0000           -0.4008474             -10.9076
       187        2.0000           -0.3886089             -10.5746
       188        2.0000           -0.3820745             -10.3968
       189        2.0000           -0.3755608             -10.2195
       190        2.0000           -0.3633976              -9.8886 (HOMO)
       191        0.0000           -0.3422411              -9.3129 (LUMO)
       192                         -0.3356182              -9.1326
       193                         -0.3312734              -9.0144
       194                         -0.3242039              -8.8220
       195                         -0.3120899              -8.4924
       ...                                ...                  ...
       373                          1.0674194              29.0460
      -------------------------------------------------------------
                  HL-Gap            0.0211565 Eh            0.5757 eV
             Fermi-level           -0.3528198 Eh           -9.6007 eV

 SCC (total)                   0 d,  0 h,  0 min,  0.950 sec
 SCC setup                      ...        0 min,  0.003 sec (  0.365%)
 Dispersion                     ...        0 min,  0.010 sec (  1.012%)
 integral evaluation            ...        0 min,  0.273 sec ( 28.694%)
 zeroth order Hamiltonian       ...        0 min,  0.002 sec (  0.225%)
 iterations                     ...        0 min,  0.398 sec ( 41.876%)
 molecular gradient             ...        0 min,  0.261 sec ( 27.464%)
 printout                       ...        0 min,  0.003 sec (  0.356%)

         :::::::::::::::::::::::::::::::::::::::::::::::::::::
         ::                     SUMMARY                     ::
         :::::::::::::::::::::::::::::::::::::::::::::::::::::
         :: total energy            -208.171606221479 Eh    ::
         :: gradient norm              0.119860035168 Eh/a0 ::
         :: HOMO-LUMO gap              0.575698805253 eV    ::
         ::.................................................::
         :: SCC energy              -211.148043744023 Eh    ::
         :: -> isotropic ES            0.135582556247 Eh    ::
         :: -> anisotropic ES          0.009784470513 Eh    ::
         :: -> anisotropic XC          0.140195639345 Eh    ::
         :: -> dispersion             -0.204896924406 Eh    ::
         :: repulsion energy           2.967863877071 Eh    ::
         :: add. restraining           0.000000000000 Eh    ::
         :::::::::::::::::::::::::::::::::::::::::::::::::::::

           -------------------------------------------------
          |                Property Printout                |
           -------------------------------------------------

    * Orbital Energies and Occupations

         #    Occupation            Energy/Eh            Energy/eV
      -------------------------------------------------------------
         1        2.0000           -0.8490379             -23.1035
       ...           ...                  ...                  ...
       178        2.0000           -0.4248371             -11.5604
       179        2.0000           -0.4236837             -11.5290
       180        2.0000           -0.4213166             -11.4646
       181        2.0000           -0.4197364             -11.4216
       182        2.0000           -0.4165332             -11.3344
       183        2.0000           -0.4158689             -11.3164
       184        2.0000           -0.4097341             -11.1494
       185        2.0000           -0.4085848             -11.1182
       186        2.0000           -0.4008474             -10.9076
       187        2.0000           -0.3886089             -10.5746
       188        2.0000           -0.3820745             -10.3968
       189        2.0000           -0.3755608             -10.2195
       190        2.0000           -0.3633976              -9.8886 (HOMO)
       191        0.0000           -0.3422411              -9.3129 (LUMO)
       192                         -0.3356182              -9.1326
       193                         -0.3312734              -9.0144
       194                         -0.3242039              -8.8220
       195                         -0.3120899              -8.4924
       196                         -0.2819422              -7.6720
       197                         -0.2781936              -7.5700
       198                         -0.2731187              -7.4319
       199                         -0.2549729              -6.9382
       200                         -0.2540364              -6.9127
       201                         -0.2489687              -6.7748
       ...                                ...                  ...
       373                          1.0674194              29.0460
      -------------------------------------------------------------
                  HL-Gap            0.0211565 Eh            0.5757 eV
             Fermi-level           -0.3528198 Eh           -9.6007 eV

     #   Z        covCN         q      C6AA      α(0)
     1   6 C      2.862     0.224    23.297     7.912
     2   8 O      0.871    -0.364    20.976     6.141
     3   6 C      3.029    -0.015    28.361     8.735
     4   6 C      2.904    -0.036    28.885     8.812
     5   6 C      2.781     0.177    24.194     8.056
     6   6 C      2.910    -0.041    29.022     8.834
     7   6 C      2.909    -0.026    28.662     8.779
     8   6 C      3.011     0.002    27.958     8.673
     9   6 C      3.001     0.029    27.351     8.579
    10   6 C      2.943     0.004    27.926     8.667
    11   6 C      1.916     0.119    28.180     8.573
    12   7 N      0.911    -0.233    26.109     7.390
    13   6 C      1.915     0.118    28.191     8.575
    14   7 N      0.911    -0.241    26.284     7.415
    15   6 C      2.986    -0.040    28.989     8.832
    16   6 C      2.908    -0.016    28.402     8.739
    17   6 C      2.979     0.013    27.707     8.634
    18  16 S      2.190     0.023   140.128    19.923
    19   6 C      3.082    -0.000    27.949     8.667
    20   6 C      3.145     0.009    27.554     8.588
    21   6 C      3.063     0.005    27.859     8.655
    22   6 C      3.799    -0.053    21.529     6.606
    23   6 C      3.746    -0.096    22.402     6.751
    24  16 S      2.133    -0.032   142.386    20.083
    25   6 C      3.070     0.006    27.816     8.648
    26   6 C      3.180     0.031    26.886     8.465
    27   7 N      2.783    -0.037    21.950     6.958
    28   6 C      3.737    -0.011    20.852     6.516
    29   6 C      3.844    -0.021    20.913     6.505
    30   6 C      3.027     0.021    27.506     8.603
    31   6 C      3.064    -0.033    28.759     8.794
    32   6 C      3.128     0.053    26.628     8.449
    33   7 N      1.965    -0.244    27.202     7.734
    34   7 N      3.249     0.191    18.074     6.314
    35   6 C      3.736    -0.021    21.033     6.545
    36   6 C      3.747    -0.107    22.608     6.782
    37   7 N      1.967    -0.243    27.176     7.731
    38   6 C      3.123     0.054    26.614     8.448
    39   6 C      3.063    -0.037    28.858     8.809
    40   6 C      3.023     0.027    27.370     8.582
    41   7 N      2.786    -0.029    21.794     6.934
    42   6 C      3.738    -0.012    20.875     6.520
    43   6 C      3.844    -0.014    20.793     6.486
    44   6 C      3.155     0.021    27.242     8.535
    45   6 C      3.055     0.022    27.467     8.595
    46  16 S      2.064    -0.116   145.934    20.332
    47   6 C      3.958     0.042    19.797     6.322
    48   6 C      2.981     0.057    26.726     8.480
    49  16 S      1.030    -0.349   154.304    21.009
    50   6 C      2.950     0.019    27.577     8.613
    51   6 C      2.945     0.048    26.916     8.509
    52   6 C      3.798    -0.042    21.330     6.576
    53   6 C      3.748    -0.103    22.527     6.770
    54   6 C      2.892     0.006    27.890     8.659
    55   6 C      2.992    -0.027    28.673     8.784
    56   6 C      2.999     0.035    27.206     8.556
    57   6 C      2.944     0.021    27.527     8.605
    58   6 C      1.912     0.127    27.983     8.543
    59   7 N      0.911    -0.229    26.019     7.377
    60   6 C      1.912     0.123    28.077     8.557
    61   7 N      0.911    -0.222    25.841     7.352
    62   6 C      3.012     0.003    27.928     8.669
    63   6 C      2.909    -0.022    28.561     8.763
    64   6 C      2.910    -0.039    28.975     8.827
    65   6 C      2.781     0.177    24.186     8.055
    66   6 C      2.904    -0.036    28.885     8.812
    67   6 C      3.027    -0.016    28.376     8.738
    68   6 C      2.856     0.227    23.232     7.900
    69   8 O      0.856    -0.345    20.614     6.087
    70   9 F      0.787    -0.201    11.245     3.961
    71   9 F      0.787    -0.204    11.278     3.967
    72   6 C      3.797    -0.058    21.615     6.620
    73   6 C      3.744    -0.093    22.348     6.744
    74   6 C      3.751    -0.108    22.623     6.783
    75   6 C      3.797    -0.057    21.607     6.619
    76   6 C      3.745    -0.094    22.358     6.745
    77   6 C      3.749    -0.113    22.719     6.798
    78   1 H      0.924     0.080     1.977     2.199
    79   1 H      0.924     0.072     2.068     2.249
    80   1 H      0.925     0.068     2.105     2.269
    81   1 H      0.925     0.075     2.027     2.226
    82   1 H      0.923     0.055     2.265     2.353
    83   1 H      0.923     0.054     2.272     2.357
    84   1 H      0.923     0.040     2.444     2.445
    85   1 H      0.923     0.054     2.266     2.354
    86   1 H      0.923     0.040     2.443     2.444
    87   1 H      0.924     0.059     2.207     2.323
    88   1 H      0.923     0.061     2.189     2.314
    89   1 H      0.923     0.042     2.422     2.434
    90   1 H      0.924     0.090     1.875     2.142
    91   1 H      0.923     0.076     2.022     2.224
    92   1 H      0.923     0.055     2.255     2.348
    93   1 H      0.923     0.056     2.241     2.341
    94   1 H      0.923     0.054     2.270     2.356
    95   1 H      0.924     0.060     2.200     2.319
    96   1 H      0.923     0.071     2.079     2.255
    97   1 H      0.923     0.033     2.545     2.495
    98   1 H      0.922     0.076     2.019     2.222
    99   1 H      0.923     0.074     2.044     2.236
   100   1 H      0.923     0.052     2.299     2.371
   101   1 H      0.923     0.050     2.315     2.379
   102   1 H      0.923     0.051     2.304     2.374
   103   1 H      0.924     0.099     1.795     2.095
   104   1 H      0.925     0.064     2.157     2.297
   105   1 H      0.924     0.079     1.987     2.204
   106   1 H      0.924     0.085     1.928     2.171
   107   1 H      0.923     0.039     2.458     2.452
   108   1 H      0.923     0.048     2.341     2.393
   109   1 H      0.923     0.026     2.644     2.543
   110   1 H      0.923     0.036     2.509     2.477
   111   1 H      0.923     0.024     2.672     2.556
   112   1 H      0.923     0.055     2.253     2.348
   113   1 H      0.923     0.041     2.430     2.438
   114   1 H      0.923     0.032     2.553     2.499
   115   1 H      0.923     0.043     2.416     2.431
   116   1 H      0.923     0.039     2.458     2.452
   117   1 H      0.923     0.028     2.612     2.527
   118   1 H      0.923     0.045     2.388     2.417
   119   1 H      0.924     0.019     2.748     2.592
   120   1 H      0.923     0.057     2.230     2.335
   121   1 H      0.923     0.044     2.391     2.418
   122   1 H      0.923     0.035     2.515     2.480

 Mol. C6AA /au·bohr⁶  :     230471.726331
 Mol. C8AA /au·bohr⁸  :    6173477.401670
 Mol. α(0) /au        :        754.863198


Wiberg/Mayer (AO) data.
largest (>0.10) Wiberg bond orders for each atom
          total WBO             WBO to atom ...
     1  C   3.922        O    2 1.732    C   15 1.060    C    3 1.014
     2  O   2.084        C    1 1.732
     3  C   3.975        C    4 1.422    C    8 1.306    C    1 1.014
     4  C   3.979        C    3 1.422    C    5 1.378    H   78 0.961
     5  C   3.858        C    6 1.382    C    4 1.378    F   71 0.979
     6  C   3.977        C    7 1.440    C    5 1.382    H   79 0.965
     7  C   3.974        C    6 1.440    C    8 1.394    H   80 0.960
     8  C   3.979        C    7 1.394    C    3 1.306    C    9 1.075
     9  C   3.969        C   10 1.483    C   15 1.145    C    8 1.075
    10  C   3.925        C    9 1.483    C   13 1.097    C   11 1.094
    11  C   3.940        N   12 2.768    C   10 1.094
    12  N   2.969        C   11 2.768
    13  C   3.940        N   14 2.752    C   10 1.097
    14  N   2.967        C   13 2.752
    15  C   3.952        C   16 1.486    C    9 1.145    C    1 1.060
    16  C   3.941        C   15 1.486    C   17 1.314    H   81 0.928
    17  C   3.926        C   21 1.331    C   16 1.314    S   18 1.076
    18  S   2.672        C   19 1.158    C   17 1.076
    19  C   3.939        C   20 1.298    C   26 1.244    S   18 1.158
    20  C   3.928        C   21 1.359    C   19 1.298    S   24 1.076
    21  C   3.953        C   20 1.359    C   17 1.331    C   22 1.017
    22  C   3.991        C   21 1.017    C   23 0.993    H   82 0.965    H   83 0.962
    23  C   3.989        C   22 0.993    H   84 0.988    H   86 0.987    H   85 0.983
    24  S   2.481        C   25 1.099    C   20 1.076
    25  C   3.913        C   26 1.303    C   31 1.292    S   24 1.099
    26  C   3.930        C   25 1.303    C   19 1.244    N   27 1.160
    27  N   3.560        C   30 1.163    C   26 1.160    C   28 0.977
    28  C   3.955        N   27 0.977    C   29 0.974    H   88 0.963    H   87 0.957
    29  C   3.987        C   77 1.006    C   75 0.997    C   28 0.974    H   89 0.955
    30  C   3.917        C   31 1.273    C   40 1.213    N   27 1.163
    31  C   3.951        C   25 1.292    C   30 1.273    C   32 1.159
    32  C   3.972        N   33 1.382    C   38 1.236    C   31 1.159
    33  N   2.976        C   32 1.382    N   34 1.266    N   37 0.199
    34  N   3.721        N   37 1.269    N   33 1.266    C   35 0.973
    35  C   3.954        C   36 1.005    N   34 0.973    H   91 0.967    H   90 0.961
    36  C   3.986        C   35 1.005    H   92 0.985    H   94 0.985    H   93 0.981
    37  N   2.981        C   38 1.384    N   34 1.269    N   33 0.199
    38  C   3.971        N   37 1.384    C   32 1.236    C   39 1.156
    39  C   3.956        C   45 1.316    C   40 1.248    C   38 1.156
    40  C   3.947        C   39 1.248    C   30 1.213    N   41 1.198
    41  N   3.578        C   40 1.198    C   44 1.142    C   42 0.978
    42  C   3.952        N   41 0.978    C   43 0.974    H   96 0.958    H   95 0.956
    43  C   3.987        C   74 1.006    C   72 0.997    C   42 0.974    H   97 0.953
    44  C   3.936        C   45 1.287    C   48 1.262    N   41 1.142
    45  C   3.953        C   39 1.316    C   44 1.287    S   46 1.103
    46  S   2.398        C   45 1.103    C   47 0.930
    47  C   3.877        C   48 1.009    C   51 0.934    S   46 0.930    C   50 0.812
    48  C   3.955        S   49 1.513    C   44 1.262    C   47 1.009
    49  S   1.922        C   48 1.513
    50  C   3.931        C   51 1.725    C   54 1.169    C   47 0.812
    51  C   3.919        C   50 1.725    C   52 1.042    C   47 0.934
    52  C   3.986        C   51 1.042    C   53 1.006    H   99 0.949    H   98 0.936
    53  C   3.988        C   52 1.006    H  102 0.987    H  100 0.986    H  101 0.984
    54  C   3.957        C   55 1.608    C   50 1.169    H  103 0.929
    55  C   3.972        C   54 1.608    C   56 1.115    C   68 0.996
    56  C   3.979        C   57 1.515    C   55 1.115    C   62 1.082
    57  C   3.976        C   56 1.515    C   58 1.089    C   60 1.089
    58  C   3.941        N   59 2.775    C   57 1.089
    59  N   2.977        C   58 2.775
    60  C   3.944        N   61 2.781    C   57 1.089
    61  N   2.985        C   60 2.781
    62  C   3.983        C   63 1.388    C   67 1.301    C   56 1.082
    63  C   3.977        C   64 1.445    C   62 1.388    H  104 0.961
    64  C   3.977        C   63 1.445    C   65 1.377    H  105 0.964
    65  C   3.876        C   66 1.381    C   64 1.377    F   70 0.981
    66  C   3.980        C   67 1.417    C   65 1.381    H  106 0.960
    67  C   3.975        C   66 1.417    C   62 1.301    C   68 1.011
    68  C   3.933        O   69 1.798    C   67 1.011    C   55 0.996
    69  O   2.079        C   68 1.798
    70  F   1.116        C   65 0.981
    71  F   1.114        C    5 0.979
    72  C   3.993        C   73 1.021    C   43 0.997    H  107 0.974    H  108 0.970
    73  C   3.997        C   72 1.021    H  111 0.987    H  110 0.986    H  109 0.986
    74  C   3.993        C   43 1.006    H  113 0.985    H  114 0.984    H  112 0.982
    75  C   3.994        C   76 1.020    C   29 0.997    H  115 0.974    H  116 0.972
    76  C   3.996        C   75 1.020    H  117 0.985    H  118 0.984    H  119 0.983
    77  C   3.991        C   29 1.006    H  122 0.985    H  121 0.985    H  120 0.981
    78  H   0.993        C    4 0.961
    79  H   0.994        C    6 0.965
    80  H   0.995        C    7 0.960
    81  H   0.993        C   16 0.928
    82  H   0.995        C   22 0.965
    83  H   0.996        C   22 0.962
    84  H   0.998        C   23 0.988
    85  H   0.995        C   23 0.983
    86  H   0.998        C   23 0.987
    87  H   0.995        C   28 0.957
    88  H   0.994        C   28 0.963
    89  H   0.998        C   29 0.955
    90  H   0.990        C   35 0.961
    91  H   0.993        C   35 0.967
    92  H   0.997        C   36 0.985
    93  H   0.996        C   36 0.981
    94  H   0.997        C   36 0.985
    95  H   0.995        C   42 0.956
    96  H   0.993        C   42 0.958
    97  H   0.999        C   43 0.953
    98  H   0.989        C   52 0.936
    99  H   0.990        C   52 0.949
   100  H   0.997        C   53 0.986
   101  H   0.996        C   53 0.984
   102  H   0.997        C   53 0.987
   103  H   0.989        C   54 0.929
   104  H   0.995        C   63 0.961
   105  H   0.993        C   64 0.964
   106  H   0.992        C   66 0.960
   107  H   0.998        C   72 0.974
   108  H   0.997        C   72 0.970
   109  H   0.999        C   73 0.986
   110  H   0.998        C   73 0.986
   111  H   0.999        C   73 0.987
   112  H   0.996        C   74 0.982
   113  H   0.998        C   74 0.985
   114  H   0.999        C   74 0.984
   115  H   0.998        C   75 0.974
   116  H   0.998        C   75 0.972
   117  H   0.999        C   76 0.985
   118  H   0.998        C   76 0.984
   119  H   1.000        C   76 0.983
   120  H   0.996        C   77 0.981
   121  H   0.997        C   77 0.985
   122  H   0.998        C   77 0.985

molecular dipole:
                 x           y           z       tot (Debye)
 q only:       -0.809      -1.258       0.932
   full:        0.002      -1.205       0.624       3.449
molecular quadrupole (traceless):
                xx          xy          yy          xz          yz          zz
 q only:        4.640       8.784       1.831     -21.162     -28.637      -6.471
  q+dip:      -16.332      -8.532       2.290      -9.450     -24.962      14.042
   full:      -17.462      -9.043      -7.509      -2.969     -23.181      24.971


           -------------------------------------------------
          | TOTAL ENERGY             -208.171606221479 Eh   |
          | GRADIENT NORM               0.119860035168 Eh/α |
          | HOMO-LUMO GAP               0.575698805253 eV   |
           -------------------------------------------------

------------------------------------------------------------------------
 * finished run on 2020/11/20 at 13:46:03.439     
------------------------------------------------------------------------
 total:
 * wall-time:     0 d,  0 h,  0 min,  1.257 sec
 *  cpu-time:     0 d,  0 h,  0 min,  1.247 sec
 * ratio c/w:     0.992 speedup
 SCF:
 * wall-time:     0 d,  0 h,  0 min,  0.951 sec
 *  cpu-time:     0 d,  0 h,  0 min,  0.951 sec
 * ratio c/w:     1.000 speedup

