      -----------------------------------------------------------      
     |                   =====================                   |     
     |                           x T B                           |     
     |                   =====================                   |     
     |                         S. Grimme                         |     
     |          Mulliken Center for Theoretical Chemistry        |     
     |                    University of Bonn                     |     
     |                Version 6.2 RC2 (SAW190805)                |     
      -----------------------------------------------------------      

   This program is distributed in the hope that it will be useful,
   but WITHOUT ANY WARRANTY; without even the implied warranty of
   MERCHANTABILITY or FITNESS FOR A PARTICULAR PURPOSE.
   
   FOR NON-COMMERCIAL, ACADEMIA USE ONLY.
   
   Cite this work as:
   * S. Grimme, C. Bannwarth, P. Shushkov, J. Chem. Theory Comput., 2017,
     13, 1989-2009. DOI: 10.1021/acs.jctc.7b00118
   * C. Bannwarth, S. Ehlert and S. Grimme., J. Chem. Theory Comput., 2019,
     15, 1652-1671. DOI: 10.1021/acs.jctc.8b01176
   * P. Pracht, E. Caldeweyher, S. Ehlert, S. Grimme, ChemRxiv, 2019, preprint.
     DOI: 10.26434/chemrxiv.8326202.v1
   
   for DFT-D4:
   * E. Caldeweyher, C. Bannwarth and S. Grimme, J. Chem. Phys., 2017,
     147, 034112. DOI: 10.1063/1.4993215
   * E. Caldeweyher, S. Ehlert, A. Hansen, H. Neugebauer, S. Spicher,
     C. Bannwarth and S. Grimme, J. Chem. Phys., 2019, 150, 154122.
     DOI: 10.1063/1.5090222
   
   for sTDA-xTB:
   * S. Grimme and C. Bannwarth, J. Chem. Phys., 2016, 145, 054103.
     DOI: 10.1063/1.4959605
   
   in the mass-spec context:
   * V. Asgeirsson, C. Bauer and S. Grimme, Chem. Sci., 2017, 8, 4879.
     DOI: 10.1039/c7sc00601b
   
   for metadynamics refer to:
   * S. Grimme, J. Chem. Theory Comput., 2019, 155, 2847-2862
     DOI: 10.1021/acs.jctc.9b00143
   
   with help from (in alphabetical order)
   C. Bannwarth, F. Bohle, G. Brandenburg, E. Caldeweyher, M. Checinski,
   S. Dohm, S. Ehlert, S. Ehrlich, F. März, H. Neugebauer, J. Pisarek,
   P. Pracht, P. Shushkov, and S. Spicher.
   
 * started run on 2021/04/12 at 13:52:55.596     

           -------------------------------------------------
          |                Calculation Setup                |
           -------------------------------------------------

          program call               : /ihome/ghutchison/geoffh/xtb/xtb Y15.xyz -sp
          hostname                   : smp-n149
          coordinate file            : Y15.xyz
          omp threads                :                     1
          number of atoms            :                   104
          number of electrons        :                   356
          charge                     :                     0
          spin                       :                   0.0
          first test random number   :      0.75800823440342


########################################################################
# WARNING! Please study the warnings concerning your input carefully
#  - XTBPATH is not set, using XTBHOME instead
#  - the use of '-sp' is discouraged, please use '--sp' next time
########################################################################

           ------------------------------------------------- 
          |                 G F N 2 - x T B                 |
          | Geometry, Frequencies, Noncovalent interactions |
          |            JCTC 2019 parametrisation            |
           ------------------------------------------------- 
             KAB for C  - Si     :                1.0500
             KAB for H  - Pd     :                0.9500
             k(s)              :                1.8500
             k(p)              :                2.2300
             k(d)              :                2.2300
             k(f)              :                2.0000
             kEN (H0ij)        :               -2.0000
             D4 a1             :                0.5200
             D4 a2             :                5.0000
             D4 s6             :                1.0000
             D4 s8             :                2.7000
             D4 s9             :                5.0000
             alphaj            :                2.0000

  Z AO/shell   Hii/eV     exponent
  1     Wed Apr 25 08:07:45 CEST 2018   EN: 2.200 GM2: 0.406  GM3: 0.0800  RAES: 1.40
     1s    -10.707211    1.230000
  6     Wed Apr 25 08:07:45 CEST 2018   EN: 2.550 GM2: 0.538  GM3: 0.1500  RAES: 3.00
     2s    -13.970922    2.096432
     2p    -10.063292    1.800000
  7     Wed Apr 25 08:07:45 CEST 2018   EN: 3.040 GM2: 0.461  GM3:-0.0640  RAES: 1.90
     2s    -16.686243    2.339881
     2p    -12.523956    2.014332
  8     Wed Apr 25 08:07:45 CEST 2018   EN: 3.440 GM2: 0.452  GM3:-0.0517  RAES: 1.80
     2s    -20.229985    2.439742
     2p    -15.503117    2.137023
 16     Tue Apr 24 11:44:34 CEST 2018   EN: 2.580 GM2: 0.340  GM3:-0.0502  RAES: 3.10
     3s    -20.029654    1.981333
     3p    -11.377694    2.025643
     3d     -0.420282    1.702555
 17     Mon Apr 23 14:09:22 CEST 2018   EN: 3.160 GM2: 0.249  GM3: 0.1495  RAES: 2.50
     3s    -29.278781    2.485265
     3p    -12.673758    2.199650
     3d     -0.240338    2.476089

           ------------------------------------------------- 
          |        Self-Consistent Charge Iterations        |
           ------------------------------------------------- 

          ...................................................
          :                      SETUP                      :
          :.................................................:
          :  # basis functions                 371          :
          :  # atomic orbitals                 363          :
          :  # shells                          185          :
          :  # electrons                       356          :
          :  max. iterations                   250          :
          :  Hamiltonian                  GFN2-xTB          :
          :  restarted?                      false          :
          :  GBSA solvation                  false          :
          :  PC potential                    false          :
          :  electronic temp.          300.0000000     K    :
          :  accuracy                    1.0000000          :
          :  -> integral cutoff          0.2500000E+02      :
          :  -> integral neglect         0.1000000E-07      :
          :  -> SCF convergence          0.1000000E-05 Eh   :
          :  -> wf. convergence          0.1000000E-03 e    :
          :  Broyden damping             0.4000000          :
          ...................................................

 iter      E             dE          RMSdq      gap      omega  full diag
   1   -199.2614632 -0.199261E+03  0.473E+00    1.28       0.0  T
   2   -199.4150323 -0.153569E+00  0.310E+00    0.95       1.0  T
   3   -199.3674558  0.475766E-01  0.200E+00    1.02       1.0  T
   4   -199.5863456 -0.218890E+00  0.823E-01    1.20       1.0  T
   5   -199.6523744 -0.660289E-01  0.248E-01    0.95       1.0  T
   6   -199.6565916 -0.421714E-02  0.129E-01    1.07       1.0  T
   7   -199.6577058 -0.111420E-02  0.669E-02    1.03       1.0  T
   8   -199.6579524 -0.246658E-03  0.371E-02    1.04       1.0  T
   9   -199.6579863 -0.338668E-04  0.272E-02    1.03       1.0  T
  10   -199.6580099 -0.235790E-04  0.199E-02    1.04       1.0  T
  11   -199.6580221 -0.122199E-04  0.131E-02    1.04       1.0  T
  12   -199.6580290 -0.686815E-05  0.757E-03    1.04       1.3  T
  13   -199.6580320 -0.308123E-05  0.398E-03    1.04       2.5  T
  14   -199.6580329 -0.858725E-06  0.168E-03    1.04       5.9  T
  15   -199.6580330 -0.121749E-06  0.873E-04    1.04      11.2  T
  16   -199.6580330 -0.298421E-07  0.558E-04    1.04      17.6  T

   *** convergence criteria satisfied after 16 iterations ***

         #    Occupation            Energy/Eh            Energy/eV
      -------------------------------------------------------------
         1        2.0000           -1.0735864             -29.2138
       ...           ...                  ...                  ...
       172        2.0000           -0.4109852             -11.1835
       173        2.0000           -0.4093452             -11.1388
       174        2.0000           -0.4079762             -11.1016
       175        2.0000           -0.3968882             -10.7999
       176        2.0000           -0.3910370             -10.6407
       177        2.0000           -0.3831238             -10.4253
       178        2.0000           -0.3774001             -10.2696 (HOMO)
       179                         -0.3393075              -9.2330 (LUMO)
       180                         -0.3352211              -9.1218
       181                         -0.3255425              -8.8585
       182                         -0.3225238              -8.7763
       183                         -0.2910587              -7.9201
       ...                                ...                  ...
       363                          1.0671587              29.0389
      -------------------------------------------------------------
                  HL-Gap            0.0380926 Eh            1.0366 eV
             Fermi-level           -0.3583591 Eh           -9.7514 eV

 SCC (total)                   0 d,  0 h,  0 min,  0.825 sec
 SCC setup                      ...        0 min,  0.003 sec (  0.334%)
 Dispersion                     ...        0 min,  0.005 sec (  0.660%)
 integral evaluation            ...        0 min,  0.239 sec ( 29.000%)
 zeroth order Hamiltonian       ...        0 min,  0.001 sec (  0.175%)
 iterations                     ...        0 min,  0.379 sec ( 45.941%)
 molecular gradient             ...        0 min,  0.194 sec ( 23.533%)
 printout                       ...        0 min,  0.003 sec (  0.349%)

         :::::::::::::::::::::::::::::::::::::::::::::::::::::
         ::                     SUMMARY                     ::
         :::::::::::::::::::::::::::::::::::::::::::::::::::::
         :: total energy            -197.006102130738 Eh    ::
         :: gradient norm              0.105193734146 Eh/a0 ::
         :: HOMO-LUMO gap              1.036551398847 eV    ::
         ::.................................................::
         :: SCC energy              -199.658033048535 Eh    ::
         :: -> isotropic ES            0.119056862870 Eh    ::
         :: -> anisotropic ES          0.005155733226 Eh    ::
         :: -> anisotropic XC          0.129652984432 Eh    ::
         :: -> dispersion             -0.169081329416 Eh    ::
         :: repulsion energy           2.653572021858 Eh    ::
         :: add. restraining           0.000000000000 Eh    ::
         :::::::::::::::::::::::::::::::::::::::::::::::::::::

           -------------------------------------------------
          |                Property Printout                |
           -------------------------------------------------

    * Orbital Energies and Occupations

         #    Occupation            Energy/Eh            Energy/eV
      -------------------------------------------------------------
         1        2.0000           -1.0735864             -29.2138
       ...           ...                  ...                  ...
       166        2.0000           -0.4253779             -11.5751
       167        2.0000           -0.4237654             -11.5312
       168        2.0000           -0.4174595             -11.3597
       169        2.0000           -0.4146437             -11.2830
       170        2.0000           -0.4133268             -11.2472
       171        2.0000           -0.4127375             -11.2312
       172        2.0000           -0.4109852             -11.1835
       173        2.0000           -0.4093452             -11.1388
       174        2.0000           -0.4079762             -11.1016
       175        2.0000           -0.3968882             -10.7999
       176        2.0000           -0.3910370             -10.6407
       177        2.0000           -0.3831238             -10.4253
       178        2.0000           -0.3774001             -10.2696 (HOMO)
       179                         -0.3393075              -9.2330 (LUMO)
       180                         -0.3352211              -9.1218
       181                         -0.3255425              -8.8585
       182                         -0.3225238              -8.7763
       183                         -0.2910587              -7.9201
       184                         -0.2804124              -7.6304
       185                         -0.2750072              -7.4833
       186                         -0.2603785              -7.0853
       187                         -0.2562636              -6.9733
       188                         -0.2500196              -6.8034
       189                         -0.2496165              -6.7924
       ...                                ...                  ...
       363                          1.0671587              29.0389
      -------------------------------------------------------------
                  HL-Gap            0.0380926 Eh            1.0366 eV
             Fermi-level           -0.3583591 Eh           -9.7514 eV

     #   Z        covCN         q      C6AA      α(0)
     1   6 C      2.862     0.225    23.273     7.907
     2   8 O      0.865    -0.361    20.916     6.132
     3   6 C      3.024    -0.017    28.419     8.744
     4   6 C      2.940    -0.026    28.646     8.778
     5   6 C      2.904     0.090    25.997     8.360
     6  17 Cl     0.965    -0.121   102.930    15.521
     7   6 C      2.901     0.092    25.958     8.354
     8  17 Cl     0.970    -0.119   102.861    15.516
     9   6 C      2.945    -0.039    28.958     8.826
    10   6 C      3.014     0.007    27.850     8.657
    11   6 C      3.000     0.029    27.334     8.576
    12   6 C      2.943     0.005    27.905     8.664
    13   6 C      1.915     0.119    28.176     8.572
    14   7 N      0.911    -0.240    26.277     7.414
    15   6 C      1.916     0.118    28.187     8.574
    16   7 N      0.911    -0.230    26.030     7.379
    17   6 C      2.988    -0.039    28.973     8.829
    18   6 C      2.908    -0.017    28.425     8.742
    19   6 C      2.978     0.015    27.662     8.627
    20  16 S      2.176     0.016   140.401    19.943
    21   6 C      3.080    -0.000    27.948     8.667
    22   6 C      3.142     0.008    27.588     8.595
    23   6 C      3.064     0.005    27.847     8.653
    24   6 C      3.799    -0.055    21.562     6.612
    25   6 C      3.746    -0.096    22.399     6.751
    26  16 S      2.139    -0.031   142.334    20.080
    27   6 C      3.065     0.009    27.761     8.640
    28   6 C      3.197     0.029    26.823     8.443
    29   7 N      2.781    -0.053    22.256     7.007
    30   6 C      3.740    -0.009    20.807     6.508
    31   6 C      3.746    -0.105    22.581     6.778
    32   6 C      3.033     0.027    27.359     8.579
    33   6 C      3.058    -0.028    28.652     8.778
    34   6 C      3.126     0.056    26.568     8.440
    35   7 N      1.965    -0.242    27.130     7.724
    36   7 N      3.254     0.192    18.060     6.312
    37   6 C      3.737    -0.018    20.981     6.536
    38   6 C      3.746    -0.108    22.635     6.786
    39   7 N      1.965    -0.241    27.128     7.724
    40   6 C      3.125     0.056    26.561     8.439
    41   6 C      3.060    -0.030    28.680     8.782
    42   6 C      3.031     0.026    27.387     8.584
    43   7 N      2.785    -0.043    22.075     6.978
    44   6 C      3.737     0.003    20.616     6.479
    45   6 C      3.746    -0.114    22.750     6.804
    46   6 C      3.193     0.026    26.911     8.460
    47   6 C      3.067     0.007    27.793     8.645
    48  16 S      2.145    -0.027   142.181    20.069
    49   6 C      3.173     0.007    27.475     8.561
    50   6 C      3.077     0.010    27.717     8.631
    51  16 S      2.265    -0.041   142.744    20.109
    52   6 C      2.978     0.023    27.480     8.599
    53   6 C      3.054     0.019    27.522     8.604
    54   6 C      3.801    -0.060    21.656     6.626
    55   6 C      3.746    -0.093    22.340     6.742
    56   6 C      2.964    -0.008    28.223     8.714
    57   6 C      2.983    -0.038    28.932     8.823
    58   6 C      3.002     0.030    27.329     8.575
    59   6 C      2.943     0.008    27.836     8.653
    60   6 C      1.916     0.119    28.171     8.572
    61   7 N      0.911    -0.227    25.965     7.370
    62   6 C      1.915     0.119    28.183     8.574
    63   7 N      0.911    -0.233    26.107     7.390
    64   6 C      3.010     0.006    27.870     8.660
    65   6 C      2.944    -0.039    28.960     8.826
    66   6 C      2.901     0.092    25.964     8.355
    67  17 Cl     0.971    -0.119   102.869    15.517
    68   6 C      2.906     0.091    25.988     8.359
    69  17 Cl     0.968    -0.120   102.900    15.519
    70   6 C      2.941    -0.026    28.657     8.780
    71   6 C      3.026    -0.018    28.421     8.745
    72   6 C      2.860     0.225    23.284     7.909
    73   8 O      0.856    -0.372    21.125     6.162
    74   1 H      0.924     0.090     1.882     2.145
    75   1 H      0.925     0.088     1.897     2.154
    76   1 H      0.925     0.078     2.001     2.212
    77   1 H      0.923     0.059     2.211     2.325
    78   1 H      0.923     0.055     2.260     2.351
    79   1 H      0.923     0.038     2.479     2.462
    80   1 H      0.923     0.054     2.267     2.354
    81   1 H      0.923     0.040     2.450     2.448
    82   1 H      0.925     0.069     2.100     2.266
    83   1 H      0.923     0.064     2.149     2.293
    84   1 H      0.923     0.043     2.405     2.425
    85   1 H      0.923     0.053     2.288     2.366
    86   1 H      0.923     0.049     2.335     2.390
    87   1 H      0.923     0.075     2.031     2.229
    88   1 H      0.923     0.073     2.049     2.239
    89   1 H      0.923     0.055     2.254     2.348
    90   1 H      0.923     0.056     2.248     2.345
    91   1 H      0.923     0.058     2.226     2.333
    92   1 H      0.923     0.059     2.207     2.323
    93   1 H      0.924     0.056     2.244     2.342
    94   1 H      0.923     0.059     2.216     2.328
    95   1 H      0.923     0.054     2.271     2.357
    96   1 H      0.923     0.052     2.292     2.368
    97   1 H      0.923     0.054     2.275     2.359
    98   1 H      0.923     0.098     1.799     2.098
    99   1 H      0.923     0.039     2.464     2.455
   100   1 H      0.923     0.044     2.391     2.418
   101   1 H      0.923     0.032     2.557     2.501
   102   1 H      0.924     0.070     2.088     2.260
   103   1 H      0.925     0.088     1.898     2.154
   104   1 H      0.924     0.090     1.877     2.143

 Mol. C6AA /au·bohr⁶  :     215930.676794
 Mol. C8AA /au·bohr⁸  :    6222525.031293
 Mol. α(0) /au        :        736.134677


Wiberg/Mayer (AO) data.
largest (>0.10) Wiberg bond orders for each atom
          total WBO             WBO to atom ...
     1  C   3.922        O    2 1.737    C   17 1.057    C    3 1.015
     2  O   2.075        C    1 1.737
     3  C   3.975        C    4 1.419    C   10 1.297    C    1 1.015
     4  C   3.975        C    3 1.419    C    5 1.386    H   74 0.959
     5  C   3.897        C    4 1.386    C    7 1.345    Cl   6 1.008
     6  Cl  1.156        C    5 1.008
     7  C   3.919        C    9 1.392    C    5 1.345    Cl   8 1.011
     8  Cl  1.158        C    7 1.011
     9  C   3.969        C   10 1.402    C    7 1.392    H   75 0.954
    10  C   3.980        C    9 1.402    C    3 1.297    C   11 1.073
    11  C   3.965        C   12 1.478    C   17 1.152    C   10 1.073
    12  C   3.922        C   11 1.478    C   13 1.098    C   15 1.094
    13  C   3.940        N   14 2.750    C   12 1.098
    14  N   2.966        C   13 2.750
    15  C   3.941        N   16 2.767    C   12 1.094
    16  N   2.968        C   15 2.767
    17  C   3.950        C   18 1.477    C   11 1.152    C    1 1.057
    18  C   3.936        C   17 1.477    C   19 1.322    H   76 0.927
    19  C   3.925        C   23 1.323    C   18 1.322    S   20 1.074
    20  S   2.646        C   21 1.157    C   19 1.074
    21  C   3.937        C   22 1.289    C   28 1.256    S   20 1.157
    22  C   3.927        C   23 1.367    C   21 1.289    S   26 1.076
    23  C   3.952        C   22 1.367    C   19 1.323    C   24 1.018
    24  C   3.991        C   23 1.018    C   25 0.994    H   78 0.968    H   77 0.956
    25  C   3.990        C   24 0.994    H   81 0.988    H   79 0.986    H   80 0.984
    26  S   2.486        C   27 1.103    C   22 1.076
    27  C   3.912        C   28 1.309    C   33 1.279    S   26 1.103
    28  C   3.931        C   27 1.309    C   21 1.256    N   29 1.148
    29  N   3.528        C   32 1.151    C   28 1.148    C   30 0.974
    30  C   3.960        C   31 1.009    N   29 0.974    H   83 0.965    H   82 0.949
    31  C   3.989        C   30 1.009    H   86 0.986    H   84 0.985    H   85 0.982
    32  C   3.919        C   33 1.276    C   42 1.232    N   29 1.151
    33  C   3.950        C   27 1.279    C   32 1.276    C   34 1.166
    34  C   3.971        N   35 1.379    C   40 1.232    C   33 1.166
    35  N   2.978        C   34 1.379    N   36 1.269    N   39 0.205
    36  N   3.721        N   35 1.269    N   39 1.268    C   37 0.976
    37  C   3.961        C   38 1.005    N   36 0.976    H   87 0.968    H   88 0.966
    38  C   3.986        C   37 1.005    H   89 0.986    H   91 0.985    H   90 0.982
    39  N   2.978        C   40 1.380    N   36 1.268    N   35 0.205
    40  C   3.971        N   39 1.380    C   34 1.232    C   41 1.166
    41  C   3.950        C   47 1.283    C   42 1.270    C   40 1.166
    42  C   3.919        C   41 1.270    C   32 1.232    N   43 1.159
    43  N   3.551        C   42 1.159    C   46 1.155    C   44 0.979
    44  C   3.965        C   45 1.009    N   43 0.979    H   92 0.964    H   93 0.956
    45  C   3.987        C   44 1.009    H   95 0.982    H   94 0.982    H   96 0.979
    46  C   3.935        C   47 1.304    C   50 1.250    N   43 1.155
    47  C   3.914        C   46 1.304    C   41 1.283    S   48 1.104
    48  S   2.497        C   47 1.104    C   49 1.082
    49  C   3.926        C   53 1.328    C   50 1.310    S   48 1.082
    50  C   3.931        C   49 1.310    C   46 1.250    S   51 1.143
    51  S   2.541        C   50 1.143    C   52 1.054
    52  C   3.917        C   53 1.364    C   56 1.293    S   51 1.054
    53  C   3.951        C   52 1.364    C   49 1.328    C   54 1.024
    54  C   3.985        C   53 1.024    C   55 1.000    H   97 0.968    H   98 0.919
    55  C   3.993        C   54 1.000    H   99 0.987    H  101 0.986    H  100 0.985
    56  C   3.943        C   57 1.498    C   52 1.293    H  102 0.939
    57  C   3.952        C   56 1.498    C   58 1.140    C   72 1.049
    58  C   3.966        C   59 1.489    C   57 1.140    C   64 1.075
    59  C   3.923        C   58 1.489    C   62 1.095    C   60 1.092
    60  C   3.941        N   61 2.770    C   59 1.092
    61  N   2.970        C   60 2.770
    62  C   3.941        N   63 2.760    C   59 1.095
    63  N   2.965        C   62 2.760
    64  C   3.980        C   65 1.397    C   71 1.299    C   58 1.075
    65  C   3.970        C   64 1.397    C   66 1.395    H  103 0.954
    66  C   3.919        C   65 1.395    C   68 1.342    Cl  67 1.011
    67  Cl  1.158        C   66 1.011
    68  C   3.896        C   70 1.388    C   66 1.342    Cl  69 1.009
    69  Cl  1.157        C   68 1.009
    70  C   3.974        C   71 1.417    C   68 1.388    H  104 0.959
    71  C   3.977        C   70 1.417    C   64 1.299    C   72 1.015
    72  C   3.926        O   73 1.737    C   57 1.049    C   71 1.015
    73  O   2.046        C   72 1.737
    74  H   0.991        C    4 0.959
    75  H   0.992        C    9 0.954
    76  H   0.993        C   18 0.927
    77  H   0.995        C   24 0.956
    78  H   0.996        C   24 0.968
    79  H   0.999        C   25 0.986
    80  H   0.996        C   25 0.984
    81  H   0.998        C   25 0.988
    82  H   0.994        C   30 0.949
    83  H   0.995        C   30 0.965
    84  H   0.998        C   31 0.985
    85  H   0.996        C   31 0.982
    86  H   0.998        C   31 0.986
    87  H   0.993        C   37 0.968
    88  H   0.993        C   37 0.966
    89  H   0.997        C   38 0.986
    90  H   0.996        C   38 0.982
    91  H   0.997        C   38 0.985
    92  H   0.995        C   44 0.964
    93  H   0.996        C   44 0.956
    94  H   0.996        C   45 0.982
    95  H   0.996        C   45 0.982
    96  H   0.997        C   45 0.979
    97  H   0.997        C   54 0.968
    98  H   0.988        C   54 0.919
    99  H   0.998        C   55 0.987
   100  H   0.997        C   55 0.985
   101  H   0.999        C   55 0.986
   102  H   0.992        C   56 0.939
   103  H   0.992        C   65 0.954
   104  H   0.991        C   70 0.959

molecular dipole:
                 x           y           z       tot (Debye)
 q only:       -2.519      -2.406       0.416
   full:       -1.372      -2.039       0.337       6.306
molecular quadrupole (traceless):
                xx          xy          yy          xz          yz          zz
 q only:     -136.847      76.063      29.959      16.809      -3.246     106.888
  q+dip:     -102.404      55.319      33.782      38.073     -25.583      68.623
   full:     -105.840      60.104      31.430      45.476     -19.581      74.409


           -------------------------------------------------
          | TOTAL ENERGY             -197.006102130738 Eh   |
          | GRADIENT NORM               0.105193734146 Eh/α |
          | HOMO-LUMO GAP               1.036551398847 eV   |
           -------------------------------------------------

------------------------------------------------------------------------
 * finished run on 2021/04/12 at 13:52:56.681     
------------------------------------------------------------------------
 total:
 * wall-time:     0 d,  0 h,  0 min,  1.085 sec
 *  cpu-time:     0 d,  0 h,  0 min,  1.074 sec
 * ratio c/w:     0.990 speedup
 SCF:
 * wall-time:     0 d,  0 h,  0 min,  0.826 sec
 *  cpu-time:     0 d,  0 h,  0 min,  0.824 sec
 * ratio c/w:     0.998 speedup

