      -----------------------------------------------------------      
     |                   =====================                   |     
     |                           x T B                           |     
     |                   =====================                   |     
     |                         S. Grimme                         |     
     |          Mulliken Center for Theoretical Chemistry        |     
     |                    University of Bonn                     |     
     |                Version 6.2 RC2 (SAW190805)                |     
      -----------------------------------------------------------      

   This program is distributed in the hope that it will be useful,
   but WITHOUT ANY WARRANTY; without even the implied warranty of
   MERCHANTABILITY or FITNESS FOR A PARTICULAR PURPOSE.
   
   FOR NON-COMMERCIAL, ACADEMIA USE ONLY.
   
   Cite this work as:
   * S. Grimme, C. Bannwarth, P. Shushkov, J. Chem. Theory Comput., 2017,
     13, 1989-2009. DOI: 10.1021/acs.jctc.7b00118
   * C. Bannwarth, S. Ehlert and S. Grimme., J. Chem. Theory Comput., 2019,
     15, 1652-1671. DOI: 10.1021/acs.jctc.8b01176
   * P. Pracht, E. Caldeweyher, S. Ehlert, S. Grimme, ChemRxiv, 2019, preprint.
     DOI: 10.26434/chemrxiv.8326202.v1
   
   for DFT-D4:
   * E. Caldeweyher, C. Bannwarth and S. Grimme, J. Chem. Phys., 2017,
     147, 034112. DOI: 10.1063/1.4993215
   * E. Caldeweyher, S. Ehlert, A. Hansen, H. Neugebauer, S. Spicher,
     C. Bannwarth and S. Grimme, J. Chem. Phys., 2019, 150, 154122.
     DOI: 10.1063/1.5090222
   
   for sTDA-xTB:
   * S. Grimme and C. Bannwarth, J. Chem. Phys., 2016, 145, 054103.
     DOI: 10.1063/1.4959605
   
   in the mass-spec context:
   * V. Asgeirsson, C. Bauer and S. Grimme, Chem. Sci., 2017, 8, 4879.
     DOI: 10.1039/c7sc00601b
   
   for metadynamics refer to:
   * S. Grimme, J. Chem. Theory Comput., 2019, 155, 2847-2862
     DOI: 10.1021/acs.jctc.9b00143
   
   with help from (in alphabetical order)
   C. Bannwarth, F. Bohle, G. Brandenburg, E. Caldeweyher, M. Checinski,
   S. Dohm, S. Ehlert, S. Ehrlich, F. März, H. Neugebauer, J. Pisarek,
   P. Pracht, P. Shushkov, and S. Spicher.
   
 * started run on 2020/11/20 at 13:46:07.528     

           -------------------------------------------------
          |                Calculation Setup                |
           -------------------------------------------------

          program call               : /ihome/ghutchison/geoffh/xtb/xtb Y6.xyz -sp
          hostname                   : smp-n106
          coordinate file            : Y6.xyz
          omp threads                :                     1
          number of atoms            :                    97
          number of electrons        :                   344
          charge                     :                     0
          spin                       :                   0.0
          first test random number   :      0.24690412449969


########################################################################
# WARNING! Please study the warnings concerning your input carefully
#  - XTBPATH is not set, using XTBHOME instead
#  - the use of '-sp' is discouraged, please use '--sp' next time
########################################################################

           ------------------------------------------------- 
          |                 G F N 2 - x T B                 |
          | Geometry, Frequencies, Noncovalent interactions |
          |            JCTC 2019 parametrisation            |
           ------------------------------------------------- 
             KAB for C  - Si     :                1.0500
             KAB for H  - Pd     :                0.9500
             k(s)              :                1.8500
             k(p)              :                2.2300
             k(d)              :                2.2300
             k(f)              :                2.0000
             kEN (H0ij)        :               -2.0000
             D4 a1             :                0.5200
             D4 a2             :                5.0000
             D4 s6             :                1.0000
             D4 s8             :                2.7000
             D4 s9             :                5.0000
             alphaj            :                2.0000

  Z AO/shell   Hii/eV     exponent
  1     Wed Apr 25 08:07:45 CEST 2018   EN: 2.200 GM2: 0.406  GM3: 0.0800  RAES: 1.40
     1s    -10.707211    1.230000
  6     Wed Apr 25 08:07:45 CEST 2018   EN: 2.550 GM2: 0.538  GM3: 0.1500  RAES: 3.00
     2s    -13.970922    2.096432
     2p    -10.063292    1.800000
  7     Wed Apr 25 08:07:45 CEST 2018   EN: 3.040 GM2: 0.461  GM3:-0.0640  RAES: 1.90
     2s    -16.686243    2.339881
     2p    -12.523956    2.014332
  8     Wed Apr 25 08:07:45 CEST 2018   EN: 3.440 GM2: 0.452  GM3:-0.0517  RAES: 1.80
     2s    -20.229985    2.439742
     2p    -15.503117    2.137023
  9     Mon Apr 23 13:58:50 CEST 2018   EN: 3.980 GM2: 0.532  GM3: 0.1426  RAES: 2.40
     2s    -23.458179    2.416361
     2p    -15.746583    2.308399
 16     Tue Apr 24 11:44:34 CEST 2018   EN: 2.580 GM2: 0.340  GM3:-0.0502  RAES: 3.10
     3s    -20.029654    1.981333
     3p    -11.377694    2.025643
     3d     -0.420282    1.702555

           ------------------------------------------------- 
          |        Self-Consistent Charge Iterations        |
           ------------------------------------------------- 

          ...................................................
          :                      SETUP                      :
          :.................................................:
          :  # basis functions                 340          :
          :  # atomic orbitals                 335          :
          :  # shells                          173          :
          :  # electrons                       344          :
          :  max. iterations                   250          :
          :  Hamiltonian                  GFN2-xTB          :
          :  restarted?                      false          :
          :  GBSA solvation                  false          :
          :  PC potential                    false          :
          :  electronic temp.          300.0000000     K    :
          :  accuracy                    1.0000000          :
          :  -> integral cutoff          0.2500000E+02      :
          :  -> integral neglect         0.1000000E-07      :
          :  -> SCF convergence          0.1000000E-05 Eh   :
          :  -> wf. convergence          0.1000000E-03 e    :
          :  Broyden damping             0.4000000          :
          ...................................................

 iter      E             dE          RMSdq      gap      omega  full diag
   1   -193.3768156 -0.193377E+03  0.508E+00    1.32       0.0  T
   2   -193.5048225 -0.128007E+00  0.335E+00    1.06       1.0  T
   3   -193.4178063  0.870162E-01  0.218E+00    0.98       1.0  T
   4   -193.6828383 -0.265032E+00  0.875E-01    1.22       1.0  T
   5   -193.7481131 -0.652748E-01  0.257E-01    1.00       1.0  T
   6   -193.7516541 -0.354097E-02  0.139E-01    1.11       1.0  T
   7   -193.7528201 -0.116605E-02  0.605E-02    1.06       1.0  T
   8   -193.7530926 -0.272486E-03  0.210E-02    1.07       1.0  T
   9   -193.7531051 -0.124868E-04  0.117E-02    1.07       1.0  T
  10   -193.7531131 -0.801145E-05  0.514E-03    1.07       2.0  T
  11   -193.7531142 -0.107534E-05  0.242E-03    1.07       4.2  T
  12   -193.7531144 -0.260046E-06  0.123E-03    1.07       8.3  T
  13   -193.7531145 -0.715206E-07  0.649E-04    1.07      15.6  T
  14   -193.7531145 -0.137312E-07  0.319E-04    1.07      31.8  T

   *** convergence criteria satisfied after 14 iterations ***

         #    Occupation            Energy/Eh            Energy/eV
      -------------------------------------------------------------
         1        2.0000           -0.8525466             -23.1990
       ...           ...                  ...                  ...
       166        2.0000           -0.4185494             -11.3893
       167        2.0000           -0.4179191             -11.3722
       168        2.0000           -0.4149216             -11.2906
       169        2.0000           -0.4040607             -10.9951
       170        2.0000           -0.3980813             -10.8323
       171        2.0000           -0.3917924             -10.6612
       172        2.0000           -0.3852121             -10.4822 (HOMO)
       173                         -0.3457890              -9.4094 (LUMO)
       174                         -0.3421454              -9.3102
       175                         -0.3334782              -9.0744
       176                         -0.3304853              -8.9930
       177                         -0.3147855              -8.5657
       ...                                ...                  ...
       335                          1.0641078              28.9558
      -------------------------------------------------------------
                  HL-Gap            0.0394231 Eh            1.0728 eV
             Fermi-level           -0.3655102 Eh           -9.9460 eV

 SCC (total)                   0 d,  0 h,  0 min,  0.736 sec
 SCC setup                      ...        0 min,  0.003 sec (  0.367%)
 Dispersion                     ...        0 min,  0.007 sec (  0.895%)
 integral evaluation            ...        0 min,  0.228 sec ( 30.964%)
 zeroth order Hamiltonian       ...        0 min,  0.002 sec (  0.208%)
 iterations                     ...        0 min,  0.312 sec ( 42.341%)
 molecular gradient             ...        0 min,  0.183 sec ( 24.842%)
 printout                       ...        0 min,  0.003 sec (  0.371%)

         :::::::::::::::::::::::::::::::::::::::::::::::::::::
         ::                     SUMMARY                     ::
         :::::::::::::::::::::::::::::::::::::::::::::::::::::
         :: total energy            -191.185998101606 Eh    ::
         :: gradient norm              0.109145818491 Eh/a0 ::
         :: HOMO-LUMO gap              1.072758045077 eV    ::
         ::.................................................::
         :: SCC energy              -193.753114531876 Eh    ::
         :: -> isotropic ES            0.145374086177 Eh    ::
         :: -> anisotropic ES          0.010738149455 Eh    ::
         :: -> anisotropic XC          0.103991269975 Eh    ::
         :: -> dispersion             -0.160051126219 Eh    ::
         :: repulsion energy           2.567757131704 Eh    ::
         :: add. restraining           0.000000000000 Eh    ::
         :::::::::::::::::::::::::::::::::::::::::::::::::::::

           -------------------------------------------------
          |                Property Printout                |
           -------------------------------------------------

    * Orbital Energies and Occupations

         #    Occupation            Energy/Eh            Energy/eV
      -------------------------------------------------------------
         1        2.0000           -0.8525466             -23.1990
       ...           ...                  ...                  ...
       160        2.0000           -0.4327716             -11.7763
       161        2.0000           -0.4320166             -11.7558
       162        2.0000           -0.4302452             -11.7076
       163        2.0000           -0.4298761             -11.6975
       164        2.0000           -0.4282645             -11.6537
       165        2.0000           -0.4223796             -11.4935
       166        2.0000           -0.4185494             -11.3893
       167        2.0000           -0.4179191             -11.3722
       168        2.0000           -0.4149216             -11.2906
       169        2.0000           -0.4040607             -10.9951
       170        2.0000           -0.3980813             -10.8323
       171        2.0000           -0.3917924             -10.6612
       172        2.0000           -0.3852121             -10.4822 (HOMO)
       173                         -0.3457890              -9.4094 (LUMO)
       174                         -0.3421454              -9.3102
       175                         -0.3334782              -9.0744
       176                         -0.3304853              -8.9930
       177                         -0.3147855              -8.5657
       178                         -0.2918467              -7.9416
       179                         -0.2876314              -7.8268
       180                         -0.2714991              -7.3879
       181                         -0.2646693              -7.2020
       182                         -0.2559863              -6.9657
       183                         -0.2546880              -6.9304
       ...                                ...                  ...
       335                          1.0641078              28.9558
      -------------------------------------------------------------
                  HL-Gap            0.0394231 Eh            1.0728 eV
             Fermi-level           -0.3655102 Eh           -9.9460 eV

     #   Z        covCN         q      C6AA      α(0)
     1   6 C      2.866     0.225    23.286     7.910
     2   8 O      0.856    -0.355    20.802     6.115
     3   6 C      3.022    -0.019    28.465     8.752
     4   6 C      2.906    -0.037    28.926     8.819
     5   6 C      2.777     0.161    24.506     8.108
     6   9 F      0.787    -0.181    11.040     3.925
     7   6 C      2.774     0.163    24.473     8.102
     8   9 F      0.787    -0.180    11.026     3.922
     9   6 C      2.907    -0.050    29.235     8.866
    10   6 C      3.013     0.005    27.898     8.664
    11   6 C      3.004     0.032    27.273     8.567
    12   6 C      2.944     0.011    27.769     8.643
    13   6 C      1.912     0.122    28.108     8.562
    14   7 N      0.911    -0.231    26.070     7.385
    15   6 C      1.910     0.117    28.229     8.581
    16   7 N      0.911    -0.225    25.917     7.363
    17   6 C      2.983    -0.039    28.970     8.829
    18   6 C      2.957    -0.011    28.287     8.723
    19   6 C      2.977     0.017    27.632     8.623
    20  16 S      2.253    -0.023   142.017    20.057
    21   6 C      3.083     0.011    27.684     8.626
    22   6 C      3.160     0.010    27.476     8.569
    23   6 C      3.058     0.011    27.703     8.631
    24   6 C      3.799    -0.047    21.412     6.588
    25   6 C      3.745    -0.099    22.463     6.761
    26  16 S      2.149    -0.013   141.577    20.026
    27   6 C      3.073     0.009    27.750     8.637
    28   6 C      3.192     0.027    26.893     8.457
    29   7 N      2.784    -0.042    22.053     6.975
    30   6 C      3.737    -0.007    20.792     6.507
    31   6 C      3.745    -0.107    22.621     6.784
    32   6 C      3.045     0.030    27.286     8.567
    33   6 C      3.058    -0.030    28.698     8.785
    34   6 C      3.308     0.072    24.570     7.918
    35   7 N      1.843    -0.255    27.479     7.769
    36  16 S      2.650     0.293   129.656    19.165
    37   7 N      1.843    -0.254    27.473     7.768
    38   6 C      3.308     0.071    24.593     7.923
    39   6 C      3.049    -0.029    28.686     8.784
    40   6 C      3.050     0.031    27.255     8.562
    41   7 N      2.777    -0.059    22.376     7.026
    42   6 C      3.734     0.008    20.532     6.467
    43   6 C      3.746    -0.118    22.833     6.816
    44   6 C      3.179     0.028    26.973     8.479
    45   6 C      3.077     0.010    27.705     8.630
    46  16 S      2.138    -0.015   141.684    20.034
    47   6 C      3.148     0.007    27.583     8.591
    48   6 C      3.080     0.001    27.930     8.664
    49  16 S      2.196     0.019   140.294    19.935
    50   6 C      2.977     0.015    27.677     8.630
    51   6 C      3.065     0.006    27.812     8.648
    52   6 C      3.799    -0.054    21.552     6.610
    53   6 C      3.746    -0.097    22.412     6.753
    54   6 C      2.907    -0.015    28.377     8.735
    55   6 C      2.985    -0.039    28.972     8.829
    56   6 C      3.002     0.030    27.323     8.574
    57   6 C      2.943     0.008    27.831     8.652
    58   6 C      1.915     0.118    28.185     8.574
    59   7 N      0.911    -0.224    25.905     7.361
    60   6 C      1.914     0.120    28.160     8.570
    61   7 N      0.911    -0.235    26.160     7.397
    62   6 C      3.013     0.005    27.898     8.664
    63   6 C      2.908    -0.050    29.239     8.867
    64   6 C      2.775     0.162    24.484     8.104
    65   9 F      0.788    -0.180    11.031     3.923
    66   6 C      2.779     0.161    24.510     8.109
    67   9 F      0.787    -0.182    11.048     3.926
    68   6 C      2.907    -0.038    28.953     8.823
    69   6 C      3.031    -0.020    28.469     8.752
    70   6 C      2.863     0.225    23.270     7.907
    71   8 O      0.872    -0.359    20.880     6.127
    72   1 H      0.924     0.094     1.842     2.122
    73   1 H      0.925     0.089     1.887     2.148
    74   1 H      0.923     0.087     1.905     2.159
    75   1 H      0.924     0.036     2.497     2.471
    76   1 H      0.922     0.055     2.264     2.353
    77   1 H      0.924     0.044     2.393     2.419
    78   1 H      0.923     0.044     2.394     2.420
    79   1 H      0.923     0.053     2.287     2.365
    80   1 H      0.923     0.063     2.164     2.301
    81   1 H      0.924     0.070     2.084     2.258
    82   1 H      0.923     0.048     2.351     2.398
    83   1 H      0.923     0.049     2.333     2.389
    84   1 H      0.923     0.054     2.266     2.354
    85   1 H      0.924     0.055     2.258     2.350
    86   1 H      0.923     0.052     2.293     2.368
    87   1 H      0.923     0.056     2.253     2.347
    88   1 H      0.923     0.072     2.059     2.244
    89   1 H      0.923     0.052     2.299     2.371
    90   1 H      0.923     0.056     2.242     2.342
    91   1 H      0.923     0.056     2.244     2.342
    92   1 H      0.923     0.040     2.453     2.449
    93   1 H      0.923     0.054     2.266     2.354
    94   1 H      0.923     0.042     2.422     2.434
    95   1 H      0.925     0.076     2.022     2.224
    96   1 H      0.925     0.090     1.878     2.143
    97   1 H      0.924     0.092     1.861     2.133

 Mol. C6AA /au·bohr⁶  :     181859.836332
 Mol. C8AA /au·bohr⁸  :    5126704.433784
 Mol. α(0) /au        :        675.753217


Wiberg/Mayer (AO) data.
largest (>0.10) Wiberg bond orders for each atom
          total WBO             WBO to atom ...
     1  C   3.924        O    2 1.783    C    3 1.015    C   17 1.011
     2  O   2.054        C    1 1.783
     3  C   3.974        C    4 1.406    C   10 1.311    C    1 1.015
     4  C   3.978        C    3 1.406    C    5 1.394    H   72 0.959
     5  C   3.867        C    4 1.394    C    7 1.317    F    6 0.995
     6  F   1.136        C    5 0.995
     7  C   3.888        C    9 1.396    C    5 1.317    F    8 0.997
     8  F   1.140        C    7 0.997
     9  C   3.972        C    7 1.396    C   10 1.393    H   73 0.956
    10  C   3.982        C    9 1.393    C    3 1.311    C   11 1.066
    11  C   3.974        C   12 1.472    C   17 1.158    C   10 1.066
    12  C   3.942        C   11 1.472    C   13 1.100    C   15 1.097
    13  C   3.943        N   14 2.767    C   12 1.100
    14  N   2.981        C   13 2.767
    15  C   3.943        N   16 2.772    C   12 1.097
    16  N   2.969        C   15 2.772
    17  C   3.955        C   18 1.518    C   11 1.158    C    1 1.011
    18  C   3.941        C   17 1.518    C   19 1.270    H   74 0.942
    19  C   3.921        C   23 1.382    C   18 1.270    S   20 1.064
    20  S   2.548        C   21 1.142    C   19 1.064
    21  C   3.929        C   22 1.319    C   28 1.246    S   20 1.142
    22  C   3.930        C   21 1.319    C   23 1.318    S   26 1.085
    23  C   3.960        C   19 1.382    C   22 1.318    C   24 1.015
    24  C   3.993        C   23 1.015    C   25 1.004    H   75 0.970    H   76 0.950
    25  C   3.990        C   24 1.004    H   78 0.985    H   77 0.984    H   79 0.980
    26  S   2.511        C   27 1.110    C   22 1.085
    27  C   3.920        C   28 1.310    C   33 1.274    S   26 1.110
    28  C   3.934        C   27 1.310    C   21 1.246    N   29 1.149
    29  N   3.541        C   32 1.166    C   28 1.149    C   30 0.975
    30  C   3.960        C   31 1.008    N   29 0.975    H   80 0.967    H   81 0.953
    31  C   3.989        C   30 1.008    H   82 0.986    H   83 0.985    H   84 0.981
    32  C   3.927        C   33 1.282    C   40 1.217    N   29 1.166
    33  C   3.952        C   32 1.282    C   27 1.274    C   34 1.155
    34  C   3.972        N   35 1.461    C   33 1.155    C   38 1.151    S   36 0.102
    35  N   3.072        C   34 1.461    S   36 1.358    N   37 0.146
    36  S   3.042        N   37 1.360    N   35 1.358    C   38 0.103    C   34 0.102
    37  N   3.072        C   38 1.459    S   36 1.360    N   35 0.146
    38  C   3.971        N   37 1.459    C   39 1.156    C   34 1.151    S   36 0.103
    39  C   3.954        C   40 1.295    C   45 1.261    C   38 1.156
    40  C   3.927        C   39 1.295    C   32 1.217    N   41 1.154
    41  N   3.500        C   40 1.154    C   44 1.132    C   42 0.965
    42  C   3.963        C   43 1.016    H   86 0.966    N   41 0.965    H   85 0.963
    43  C   3.986        C   42 1.016    H   87 0.981    H   89 0.979    H   88 0.970
    44  C   3.930        C   45 1.319    C   48 1.258    N   41 1.132
    45  C   3.916        C   44 1.319    C   39 1.261    S   46 1.117
    46  S   2.504        C   45 1.117    C   47 1.079
    47  C   3.927        C   51 1.358    C   48 1.293    S   46 1.079
    48  C   3.939        C   47 1.293    C   44 1.258    S   49 1.156
    49  S   2.668        C   48 1.156    C   50 1.072
    50  C   3.928        C   51 1.330    C   54 1.316    S   49 1.072
    51  C   3.953        C   47 1.358    C   50 1.330    C   52 1.018
    52  C   3.991        C   51 1.018    C   53 0.992    H   91 0.964    H   90 0.961
    53  C   3.989        C   52 0.992    H   92 0.988    H   94 0.987    H   93 0.983
    54  C   3.939        C   55 1.483    C   50 1.316    H   95 0.928
    55  C   3.950        C   54 1.483    C   56 1.146    C   70 1.058
    56  C   3.969        C   57 1.488    C   55 1.146    C   62 1.071
    57  C   3.926        C   56 1.488    C   60 1.095    C   58 1.093
    58  C   3.942        N   59 2.772    C   57 1.093
    59  N   2.971        C   58 2.772
    60  C   3.941        N   61 2.756    C   57 1.095
    61  N   2.969        C   60 2.756
    62  C   3.979        C   63 1.390    C   69 1.314    C   56 1.071
    63  C   3.971        C   64 1.398    C   62 1.390    H   96 0.955
    64  C   3.887        C   63 1.398    C   66 1.317    F   65 0.996
    65  F   1.139        C   64 0.996
    66  C   3.866        C   68 1.394    C   64 1.317    F   67 0.994
    67  F   1.135        C   66 0.994
    68  C   3.977        C   69 1.405    C   66 1.394    H   97 0.959
    69  C   3.975        C   68 1.405    C   62 1.314    C   70 1.019
    70  C   3.923        O   71 1.733    C   55 1.058    C   69 1.019
    71  O   2.084        C   70 1.733
    72  H   0.990        C    4 0.959
    73  H   0.991        C    9 0.956
    74  H   0.989        C   18 0.942
    75  H   0.998        C   24 0.970
    76  H   0.995        C   24 0.950
    77  H   0.998        C   25 0.984
    78  H   0.997        C   25 0.985
    79  H   0.997        C   25 0.980
    80  H   0.995        C   30 0.967
    81  H   0.994        C   30 0.953
    82  H   0.998        C   31 0.986
    83  H   0.998        C   31 0.985
    84  H   0.996        C   31 0.981
    85  H   0.996        C   42 0.963
    86  H   0.995        C   42 0.966
    87  H   0.996        C   43 0.981
    88  H   0.995        C   43 0.970
    89  H   0.997        C   43 0.979
    90  H   0.996        C   52 0.961
    91  H   0.995        C   52 0.964
    92  H   0.998        C   53 0.988
    93  H   0.995        C   53 0.983
    94  H   0.998        C   53 0.987
    95  H   0.993        C   54 0.928
    96  H   0.991        C   63 0.955
    97  H   0.991        C   68 0.959

molecular dipole:
                 x           y           z       tot (Debye)
 q only:        1.085      -0.663       0.844
   full:        0.460      -0.556       0.425       2.128
molecular quadrupole (traceless):
                xx          xy          yy          xz          yz          zz
 q only:       31.514      27.010      46.122     116.247     -43.106     -77.636
  q+dip:        0.360      22.057      70.872     107.378     -35.284     -71.232
   full:       -0.158      24.910      79.047     110.053     -38.618     -78.889


           -------------------------------------------------
          | TOTAL ENERGY             -191.185998101606 Eh   |
          | GRADIENT NORM               0.109145818491 Eh/α |
          | HOMO-LUMO GAP               1.072758045077 eV   |
           -------------------------------------------------

------------------------------------------------------------------------
 * finished run on 2020/11/20 at 13:46:08.516     
------------------------------------------------------------------------
 total:
 * wall-time:     0 d,  0 h,  0 min,  0.988 sec
 *  cpu-time:     0 d,  0 h,  0 min,  0.978 sec
 * ratio c/w:     0.990 speedup
 SCF:
 * wall-time:     0 d,  0 h,  0 min,  0.737 sec
 *  cpu-time:     0 d,  0 h,  0 min,  0.737 sec
 * ratio c/w:     0.999 speedup

