
                                 *****************
                                 * O   R   C   A *
                                 *****************

           --- An Ab Initio, DFT and Semiempirical electronic structure package ---

                  #######################################################
                  #                        -***-                        #
                  #          Department of theory and spectroscopy      #
                  #               Directorship: Frank Neese             #
                  #        Max Planck Institute fuer Kohlenforschung    #
                  #                Kaiser Wilhelm Platz 1               #
                  #                 D-45470 Muelheim/Ruhr               #
                  #                      Germany                        #
                  #                                                     #
                  #                  All rights reserved                #
                  #                        -***-                        #
                  #######################################################


                         Program Version 4.2.0 -  RELEASE  -


 With contributions from (in alphabetic order):
   Daniel Aravena         : Magnetic Suceptibility
   Michael Atanasov       : Ab Initio Ligand Field Theory (pilot matlab implementation)
   Alexander A. Auer      : GIAO ZORA, VPT2
   Ute Becker             : Parallelization
   Giovanni Bistoni       : ED, misc. LED, open-shell LED, HFLED
   Martin Brehm           : Molecular dynamics
   Dmytro Bykov           : SCF Hessian
   Vijay G. Chilkuri      : MRCI spin determinant printing, contributions to CSF-ICE
   Dipayan Datta          : RHF DLPNO-CCSD density
   Achintya Kumar Dutta   : EOM-CC, STEOM-CC
   Dmitry Ganyushin       : Spin-Orbit,Spin-Spin,Magnetic field MRCI
   Miquel Garcia          : C-PCM Hessian, Gaussian charge scheme
   Yang Guo               : DLPNO-NEVPT2, CIM, IAO-localization
   Andreas Hansen         : Spin unrestricted coupled pair/coupled cluster methods
   Benjamin Helmich-Paris : CASSCF linear response (MC-RPA)
   Lee Huntington         : MR-EOM, pCC
   Robert Izsak           : Overlap fitted RIJCOSX, COSX-SCS-MP3, EOM
   Christian Kollmar      : KDIIS, OOCD, Brueckner-CCSD(T), CCSD density
   Simone Kossmann        : Meta GGA functionals, TD-DFT gradient, OOMP2, MP2 Hessian
   Martin Krupicka        : AUTO-CI
   Lucas Lang             : DCDCAS
   Dagmar Lenk            : GEPOL surface, SMD
   Dimitrios Liakos       : Extrapolation schemes; Compound Job, initial MDCI parallelization
   Dimitrios Manganas     : Further ROCIS development; embedding schemes
   Dimitrios Pantazis     : SARC Basis sets
   Taras Petrenko         : DFT Hessian,TD-DFT gradient, ASA, ECA, R-Raman, ABS, FL, XAS/XES, NRVS
   Peter Pinski           : DLPNO-MP2, DLPNO-MP2 Gradient
   Christoph Reimann      : Effective Core Potentials
   Marius Retegan         : Local ZFS, SOC
   Christoph Riplinger    : Optimizer, TS searches, QM/MM, DLPNO-CCSD(T), (RO)-DLPNO pert. Triples
   Tobias Risthaus        : Range-separated hybrids, TD-DFT gradient, RPA, STAB
   Michael Roemelt        : Original ROCIS implementation
   Masaaki Saitow         : Open-shell DLPNO-CCSD energy and density
   Barbara Sandhoefer     : DKH picture change effects
   Avijit Sen             : IP-ROCIS
   Kantharuban Sivalingam : CASSCF convergence, NEVPT2, FIC-MRCI
   Bernardo de Souza      : ESD, SOC TD-DFT
   Georgi Stoychev        : AutoAux, RI-MP2 NMR
   Willem Van den Heuvel  : Paramagnetic NMR
   Boris Wezisla          : Elementary symmetry handling
   Frank Wennmohs         : Technical directorship


 We gratefully acknowledge several colleagues who have allowed us to
 interface, adapt or use parts of their codes:
   Stefan Grimme, W. Hujo, H. Kruse,             : VdW corrections, initial TS optimization,
                  C. Bannwarth                     DFT functionals, gCP, sTDA/sTD-DF
   Ed Valeev, F. Pavosevic, A. Kumar             : LibInt (2-el integral package), F12 methods
   Garnet Chan, S. Sharma, J. Yang, R. Olivares  : DMRG
   Ulf Ekstrom                                   : XCFun DFT Library
   Mihaly Kallay                                 : mrcc  (arbitrary order and MRCC methods)
   Andreas Klamt, Michael Diedenhofen            : otool_cosmo (COSMO solvation model)
   Jiri Pittner, Ondrej Demel                    : Mk-CCSD
   Frank Weinhold                                : gennbo (NPA and NBO analysis)
   Christopher J. Cramer and Donald G. Truhlar   : smd solvation model
   Lars Goerigk                                  : TD-DFT with DH, B97 family of functionals
   V. Asgeirsson, H. Jonsson                     : NEB implementation
   FAccTs GmbH                                   : IRC, NEB, NEB-TS, Multilevel, MM, QM/MM, CI optimization
   S Lehtola, MJT Oliveira, MAL Marques          : LibXC Library


 Your calculation uses the libint2 library for the computation of 2-el integrals
 For citations please refer to: http://libint.valeyev.net

 Your ORCA version has been built with support for libXC version: 4.2.3
 For citations please refer to: https://tddft.org/programs/libxc/

 This ORCA versions uses:
   CBLAS   interface :  Fast vector & matrix operations
   LAPACKE interface :  Fast linear algebra routines
   SCALAPACK package :  Parallel linear algebra routines


----- Orbital basis set information -----
Your calculation utilizes the basis: def2-TZVP
   F. Weigend and R. Ahlrichs, Phys. Chem. Chem. Phys. 7, 3297 (2005).

----- AuxJ basis set information -----
Your calculation utilizes the auxiliary basis: def2/J
   F. Weigend, Phys. Chem. Chem. Phys. 8, 1057 (2006).

================================================================================
                                        WARNINGS
                       Please study these warnings very carefully!
================================================================================

INFO   : Checking CIS options ...

WARNING: CIS/ROCIS methods need fully converged wavefunctions
  ===> : Setting SCFConvForced true
         You can overwrite this default with %scf ConvForced false 


INFO   : the flag for use of LIBINT has been found!

================================================================================
                                       INPUT FILE
================================================================================
NAME = P3HT_olig.inp
|  1> # ORCA input file
|  2> # P3HT_olig.out
|  3> ! B3LYP def2-TZVP def2/J RIJCOSX Grid4 TightSCF
|  4> %maxcore 1000
|  5> %tddft
|  6>   maxdim 5
|  7>   nroots 50
|  8>   end
|  9> * xyz 0 1
| 10>    C        0.50514        -0.17100         0.03289
| 11>    C       -0.84651        -0.47416         0.01854
| 12>    C       -1.65755         0.68218         0.01385
| 13>    C       -0.97186         1.85567         0.02502
| 14>    S        0.73226         1.56783         0.04159
| 15>    C       -1.40118        -1.86587         0.00779
| 16>    C       -2.92262        -1.94129        -0.03234
| 17>    C        1.63662        -1.04262         0.04169
| 18>    C        2.99292        -0.73835         0.03161
| 19>    C        3.80298        -1.88290         0.04676
| 20>    C        3.11352        -3.06985         0.06550
| 21>    S        1.40329        -2.77787         0.06921
| 22>    C        3.54489         0.65467         0.00024
| 23>    C        5.06634         0.72638        -0.04666
| 24>    C        6.22079        -7.30245         0.04514
| 25>    C        7.58032        -7.00424         0.02120
| 26>    C        8.38424        -8.15142         0.02322
| 27>    C        7.69014        -9.33634         0.04561
| 28>    S        5.98160        -9.03856         0.07081
| 29>    C        8.13790        -5.61412        -0.01226
| 30>    C        9.65856        -5.54924        -0.08858
| 31>    C       10.81754       -13.55426        -0.02465
| 32>    C       12.16860       -13.24938        -0.05149
| 33>    C       12.98096       -14.40472        -0.06570
| 34>    C       12.29682       -15.57906        -0.04978
| 35>    S       10.59258       -15.29336        -0.01626
| 36>    C       12.72132       -11.85692        -0.06532
| 37>    C       14.24224       -11.77952        -0.11926
| 38>    C        5.09836        -6.42599         0.05129
| 39>    C        3.73842        -6.72408         0.04176
| 40>    C        2.93485        -5.57674         0.05289
| 41>    C        3.62988        -4.39202         0.06825
| 42>    S        5.33851        -4.69011         0.07384
| 43>    C        3.18012        -8.11402         0.01404
| 44>    C        1.65877        -8.17908        -0.04565
| 45>    C        9.68527       -12.68389        -0.00388
| 46>    C        8.32917       -12.98953        -0.00106
| 47>    C        7.51825       -11.84575         0.02355
| 48>    C        8.20702       -10.65819         0.03646
| 49>    S        9.91744       -10.94854         0.02227
| 50>    C        7.77832       -14.38306        -0.02866
| 51>    C        6.25659       -14.45641        -0.06164
| 52>    C       12.83423       -16.96495        -0.06019
| 53>    C       -1.50772         3.24221         0.02160
| 54>    H       -2.73145         0.65152         0.00202
| 55>    H       -1.04470        -2.39456         0.89803
| 56>    H       -0.99865        -2.39928        -0.85957
| 57>    H       -3.35928        -1.46762         0.84375
| 58>    H       -3.23259        -2.98384        -0.04427
| 59>    H       -3.31227        -1.46090        -0.92681
| 60>    H        4.87718        -1.86432         0.04160
| 61>    H        3.19136         1.19576         0.88386
| 62>    H        3.13978         1.17455        -0.87381
| 63>    H        5.50523         0.26730         0.83595
| 64>    H        5.37861         1.76770        -0.07939
| 65>    H        5.45119         0.22745        -0.93302
| 66>    H        9.45857        -8.13789         0.00596
| 67>    H        7.80353        -5.07703         0.88134
| 68>    H        7.71804        -5.08726        -0.87516
| 69>    H       10.11266        -6.01322         0.78377
| 70>    H        9.97518        -4.50929        -0.12425
| 71>    H       10.02339        -6.04719        -0.98392
| 72>    H       14.05466       -14.37270        -0.08779
| 73>    H       12.37235       -11.33001         0.82895
| 74>    H       12.31006       -11.32277        -0.92812
| 75>    H       14.68759       -12.25407         0.75197
| 76>    H       14.55073       -10.73655        -0.13227
| 77>    H       14.62431       -12.25788        -1.01808
| 78>    H        1.86031        -5.59002         0.04688
| 79>    H        3.52426        -8.65120         0.90388
| 80>    H        3.59027        -8.64086        -0.85352
| 81>    H        1.21429        -7.71520         0.83169
| 82>    H        1.34186        -9.21907        -0.07797
| 83>    H        1.28418        -7.68104        -0.93690
| 84>    H        6.44400       -11.86534         0.02900
| 85>    H        8.14059       -14.92457         0.85116
| 86>    H        8.17584       -14.90174        -0.90688
| 87>    H        5.82530       -13.99886         0.82549
| 88>    H        5.94512       -15.49803        -0.09279
| 89>    H        5.86312       -13.95681        -0.94384
| 90>    H       13.92121       -16.94151        -0.08208
| 91>    H       12.47613       -17.51008        -0.93344
| 92>    H       12.51143       -17.51006         0.82666
| 93>    H       -2.59494         3.22007         0.01441
| 94>    H       -1.16092         3.78670        -0.85662
| 95>    H       -1.17224         3.78718         0.90380
| 96> *
| 97> 
| 98>                          ****END OF INPUT****
================================================================================

                       ****************************
                       * Single Point Calculation *
                       ****************************

---------------------------------
CARTESIAN COORDINATES (ANGSTROEM)
---------------------------------
  C      0.505140   -0.171000    0.032890
  C     -0.846510   -0.474160    0.018540
  C     -1.657550    0.682180    0.013850
  C     -0.971860    1.855670    0.025020
  S      0.732260    1.567830    0.041590
  C     -1.401180   -1.865870    0.007790
  C     -2.922620   -1.941290   -0.032340
  C      1.636620   -1.042620    0.041690
  C      2.992920   -0.738350    0.031610
  C      3.802980   -1.882900    0.046760
  C      3.113520   -3.069850    0.065500
  S      1.403290   -2.777870    0.069210
  C      3.544890    0.654670    0.000240
  C      5.066340    0.726380   -0.046660
  C      6.220790   -7.302450    0.045140
  C      7.580320   -7.004240    0.021200
  C      8.384240   -8.151420    0.023220
  C      7.690140   -9.336340    0.045610
  S      5.981600   -9.038560    0.070810
  C      8.137900   -5.614120   -0.012260
  C      9.658560   -5.549240   -0.088580
  C     10.817540  -13.554260   -0.024650
  C     12.168600  -13.249380   -0.051490
  C     12.980960  -14.404720   -0.065700
  C     12.296820  -15.579060   -0.049780
  S     10.592580  -15.293360   -0.016260
  C     12.721320  -11.856920   -0.065320
  C     14.242240  -11.779520   -0.119260
  C      5.098360   -6.425990    0.051290
  C      3.738420   -6.724080    0.041760
  C      2.934850   -5.576740    0.052890
  C      3.629880   -4.392020    0.068250
  S      5.338510   -4.690110    0.073840
  C      3.180120   -8.114020    0.014040
  C      1.658770   -8.179080   -0.045650
  C      9.685270  -12.683890   -0.003880
  C      8.329170  -12.989530   -0.001060
  C      7.518250  -11.845750    0.023550
  C      8.207020  -10.658190    0.036460
  S      9.917440  -10.948540    0.022270
  C      7.778320  -14.383060   -0.028660
  C      6.256590  -14.456410   -0.061640
  C     12.834230  -16.964950   -0.060190
  C     -1.507720    3.242210    0.021600
  H     -2.731450    0.651520    0.002020
  H     -1.044700   -2.394560    0.898030
  H     -0.998650   -2.399280   -0.859570
  H     -3.359280   -1.467620    0.843750
  H     -3.232590   -2.983840   -0.044270
  H     -3.312270   -1.460900   -0.926810
  H      4.877180   -1.864320    0.041600
  H      3.191360    1.195760    0.883860
  H      3.139780    1.174550   -0.873810
  H      5.505230    0.267300    0.835950
  H      5.378610    1.767700   -0.079390
  H      5.451190    0.227450   -0.933020
  H      9.458570   -8.137890    0.005960
  H      7.803530   -5.077030    0.881340
  H      7.718040   -5.087260   -0.875160
  H     10.112660   -6.013220    0.783770
  H      9.975180   -4.509290   -0.124250
  H     10.023390   -6.047190   -0.983920
  H     14.054660  -14.372700   -0.087790
  H     12.372350  -11.330010    0.828950
  H     12.310060  -11.322770   -0.928120
  H     14.687590  -12.254070    0.751970
  H     14.550730  -10.736550   -0.132270
  H     14.624310  -12.257880   -1.018080
  H      1.860310   -5.590020    0.046880
  H      3.524260   -8.651200    0.903880
  H      3.590270   -8.640860   -0.853520
  H      1.214290   -7.715200    0.831690
  H      1.341860   -9.219070   -0.077970
  H      1.284180   -7.681040   -0.936900
  H      6.444000  -11.865340    0.029000
  H      8.140590  -14.924570    0.851160
  H      8.175840  -14.901740   -0.906880
  H      5.825300  -13.998860    0.825490
  H      5.945120  -15.498030   -0.092790
  H      5.863120  -13.956810   -0.943840
  H     13.921210  -16.941510   -0.082080
  H     12.476130  -17.510080   -0.933440
  H     12.511430  -17.510060    0.826660
  H     -2.594940    3.220070    0.014410
  H     -1.160920    3.786700   -0.856620
  H     -1.172240    3.787180    0.903800

----------------------------
CARTESIAN COORDINATES (A.U.)
----------------------------
  NO LB      ZA    FRAG     MASS         X           Y           Z
   0 C     6.0000    0    12.011    0.954576   -0.323143    0.062153
   1 C     6.0000    0    12.011   -1.599672   -0.896033    0.035036
   2 C     6.0000    0    12.011   -3.132316    1.289133    0.026173
   3 C     6.0000    0    12.011   -1.836549    3.506708    0.047281
   4 S    16.0000    0    32.060    1.383771    2.962769    0.078594
   5 C     6.0000    0    12.011   -2.647846   -3.525983    0.014721
   6 C     6.0000    0    12.011   -5.522951   -3.668506   -0.061114
   7 C     6.0000    0    12.011    3.092764   -1.970266    0.078783
   8 C     6.0000    0    12.011    5.655799   -1.395279    0.059734
   9 C     6.0000    0    12.011    7.186591   -3.558165    0.088364
  10 C     6.0000    0    12.011    5.883700   -5.801176    0.123777
  11 S    16.0000    0    32.060    2.651834   -5.249414    0.130788
  12 C     6.0000    0    12.011    6.698871    1.237147    0.000454
  13 C     6.0000    0    12.011    9.573995    1.372659   -0.088175
  14 C     6.0000    0    12.011   11.755589  -13.799631    0.085302
  15 C     6.0000    0    12.011   14.324729  -13.236095    0.040062
  16 C     6.0000    0    12.011   15.843917  -15.403951    0.043879
  17 C     6.0000    0    12.011   14.532259  -17.643126    0.086190
  18 S    16.0000    0    32.060   11.303586  -17.080403    0.133812
  19 C     6.0000    0    12.011   15.378402  -10.609149   -0.023168
  20 C     6.0000    0    12.011   18.252033  -10.486544   -0.167392
  21 C     6.0000    0    12.011   20.442188  -25.613839   -0.046582
  22 C     6.0000    0    12.011   22.995321  -25.037700   -0.097302
  23 C     6.0000    0    12.011   24.530459  -27.220976   -0.124155
  24 C     6.0000    0    12.011   23.237622  -29.440157   -0.094071
  25 S    16.0000    0    32.060   20.017075  -28.900262   -0.030727
  26 C     6.0000    0    12.011   24.039811  -22.406332   -0.123437
  27 C     6.0000    0    12.011   26.913933  -22.260067   -0.225369
  28 C     6.0000    0    12.011    9.634504  -12.143361    0.096924
  29 C     6.0000    0    12.011    7.064590  -12.706670    0.078915
  30 C     6.0000    0    12.011    5.546063  -10.538511    0.099948
  31 C     6.0000    0    12.011    6.859479   -8.299715    0.128974
  32 S    16.0000    0    32.060   10.088322   -8.863023    0.139537
  33 C     6.0000    0    12.011    6.009556  -15.333276    0.026532
  34 C     6.0000    0    12.011    3.134621  -15.456221   -0.086266
  35 C     6.0000    0    12.011   18.302508  -23.969078   -0.007332
  36 C     6.0000    0    12.011   15.739850  -24.546654   -0.002003
  37 C     6.0000    0    12.011   14.207434  -22.385223    0.044503
  38 C     6.0000    0    12.011   15.509020  -20.141060    0.068899
  39 S    16.0000    0    32.060   18.741246  -20.689742    0.042084
  40 C     6.0000    0    12.011   14.698895  -27.180044   -0.054160
  41 C     6.0000    0    12.011   11.823242  -27.318656   -0.116483
  42 C     6.0000    0    12.011   24.253180  -32.059109   -0.113743
  43 C     6.0000    0    12.011   -2.849178    6.126889    0.040818
  44 H     1.0000    0     1.008   -5.161692    1.231194    0.003817
  45 H     1.0000    0     1.008   -1.974197   -4.525063    1.697031
  46 H     1.0000    0     1.008   -1.887175   -4.533982   -1.624352
  47 H     1.0000    0     1.008   -6.348119   -2.773400    1.594456
  48 H     1.0000    0     1.008   -6.108710   -5.638640   -0.083658
  49 H     1.0000    0     1.008   -6.259283   -2.760701   -1.751417
  50 H     1.0000    0     1.008    9.216535   -3.523054    0.078613
  51 H     1.0000    0     1.008    6.030796    2.259659    1.670253
  52 H     1.0000    0     1.008    5.933324    2.219578   -1.651262
  53 H     1.0000    0     1.008   10.403377    0.505124    1.579717
  54 H     1.0000    0     1.008   10.164100    3.340469   -0.150025
  55 H     1.0000    0     1.008   10.301256    0.429818   -1.763152
  56 H     1.0000    0     1.008   17.874107  -15.378383    0.011263
  57 H     1.0000    0     1.008   14.746535   -9.594196    1.665491
  58 H     1.0000    0     1.008   14.584982   -9.613528   -1.653813
  59 H     1.0000    0     1.008   19.110158  -11.363339    1.481111
  60 H     1.0000    0     1.008   18.850358   -8.521323   -0.234798
  61 H     1.0000    0     1.008   18.941462  -11.427533   -1.859339
  62 H     1.0000    0     1.008   26.559458  -27.160467   -0.165899
  63 H     1.0000    0     1.008   23.380353  -21.410616    1.566488
  64 H     1.0000    0     1.008   23.262642  -21.396934   -1.753893
  65 H     1.0000    0     1.008   27.755523  -23.156836    1.421017
  66 H     1.0000    0     1.008   27.496895  -20.289139   -0.249954
  67 H     1.0000    0     1.008   27.635941  -23.164036   -1.923892
  68 H     1.0000    0     1.008    3.515476  -10.563607    0.088590
  69 H     1.0000    0     1.008    6.659886  -16.348399    1.708086
  70 H     1.0000    0     1.008    6.784627  -16.328859   -1.612919
  71 H     1.0000    0     1.008    2.294676  -14.579615    1.571666
  72 H     1.0000    0     1.008    2.535748  -17.421518   -0.147342
  73 H     1.0000    0     1.008    2.426749  -14.515062   -1.770484
  74 H     1.0000    0     1.008   12.177395  -22.422243    0.054802
  75 H     1.0000    0     1.008   15.383486  -28.203350    1.608459
  76 H     1.0000    0     1.008   15.450099  -28.160208   -1.713755
  77 H     1.0000    0     1.008   11.008222  -26.454012    1.559950
  78 H     1.0000    0     1.008   11.234649  -29.287032   -0.175348
  79 H     1.0000    0     1.008   11.079691  -26.374549   -1.783599
  80 H     1.0000    0     1.008   26.307274  -32.014814   -0.155109
  81 H     1.0000    0     1.008   23.576469  -33.089256   -1.763946
  82 H     1.0000    0     1.008   23.643176  -33.089218    1.562161
  83 H     1.0000    0     1.008   -4.903726    6.085050    0.027231
  84 H     1.0000    0     1.008   -2.193821    7.155826   -1.618777
  85 H     1.0000    0     1.008   -2.215213    7.156733    1.707934

--------------------------------
INTERNAL COORDINATES (ANGSTROEM)
--------------------------------
 C      0   0   0     0.000000000000     0.00000000     0.00000000
 C      1   0   0     1.385304887236     0.00000000     0.00000000
 C      2   1   0     1.412419935182   112.40439939     0.00000000
 C      3   2   1     1.359181490861   114.65352280   359.95812069
 S      4   3   2     1.728337757760   110.71432244     0.00000000
 C      2   1   3     1.498209296293   124.37353751   179.94678528
 C      6   2   1     1.523836692989   114.56995352   181.03345620
 C      1   2   3     1.428301738009   129.75133896   179.99559461
 C      8   1   2     1.390047311893   129.74186055   178.68773086
 C      9   8   1     1.402291492023   112.63793126   179.96058496
 C     10   9   8     1.372791528856   114.56532645     0.13129831
 S     11  10   9     1.734979174918   110.46218617   359.83796675
 C      9   8   1     1.498719346042   124.26068072   359.63643639
 C     13   9   8     1.523860898048   114.33652152   181.70764390
 C     11  10   9     5.250756530492   113.55985438   179.09338458
 C     15  11  10     1.392057523452   113.91189095   359.97078920
 C     16  15  11     1.400825970347   112.64510201   179.69322054
 C     17  16  15     1.373430569232   114.61515834     0.11258134
 S     18  17  16     1.734478855449   110.48349373   359.79732055
 C     16  15  11     1.498148404665   124.23872843   359.31643673
 C     20  16  15     1.523955705524   114.33031865   182.25090233
 C     18  17  16     5.251325199795   113.06486506   179.10592861
 C     22  18  17     1.385292504708   113.84814669     0.46689862
 C     23  22  18     1.412423877347   112.40248440   179.81842810
 C     24  23  22     1.359181894229   114.65307250   359.96012937
 S     25  24  23     1.728346625536   110.71570906     0.00000000
 C     23  22  18     1.498210772522   124.36975250   359.77101006
 C     27  23  22     1.523843144815   114.56634006   181.00542027
 C     15  11  10     1.424102896212    15.73162202   180.82631876
 C     29  15  11     1.392259053697   129.64807825   179.22657666
 C     30  29  15     1.400798949671   112.63847068   179.98954376
 C     31  30  29     1.373631722442   114.59811332     0.11857498
 S     32  31  30     1.734446705177   110.50297436   359.83504401
 C     30  29  15     1.498132334609   124.24846970   359.63078939
 C     34  30  29     1.523909945568   114.35394936   182.23165551
 C     22  18  17     1.428289425397    15.89399755   180.99162886
 C     36  22  18     1.390119049578   129.74657675   179.33133823
 C     37  36  22     1.402294400937   112.63326208   179.94600448
 C     38  37  36     1.372905508256   114.55603525     0.16042774
 S     39  38  37     1.734946989104   110.47250816   359.84198756
 C     37  36  22     1.498707224043   124.26034817   359.63106547
 C     41  37  36     1.523853698949   114.34266816   181.74335866
 C     25  24  23     1.486475350721   128.57084308   179.89384274
 C      4   3   2     1.486489423979   128.56832478   179.88137711
 H      3   2   1     1.074402715233   123.40991086   179.93327020
 H      6   2   1     1.095042631179   108.79167136    59.01496285
 H      6   2   1     1.094929220817   108.79075828   303.01502959
 H      7   6   2     1.087459844132   110.98573309   298.92142587
 H      7   6   2     1.087719737938   109.40546599   179.62730723
 H      7   6   2     1.087510117424   110.94853777    60.32860286
 H     10   9   8     1.074373064629   124.29185631   179.95310260
 H     13   9   8     1.094781326750   108.87852382    59.67038754
 H     13   9   8     1.094692983900   108.77389858   303.55454962
 H     14  13   9     1.087372654889   110.98580730   298.68554165
 H     14  13   9     1.087626382633   109.42896807   179.31193574
 H     14  13   9     1.087508490542   110.90487309    59.96156231
 H     17  16  15     1.074553822477   124.29374802   179.93179982
 H     20  16  15     1.094892654556   108.86146492    60.17383472
 H     20  16  15     1.094742110819   108.74916270   304.08862038
 H     21  20  16     1.087418398272   110.99894967   298.51106984
 H     21  20  16     1.087665654418   109.43997065   179.12594547
 H     21  20  16     1.087514987023   110.88434924    59.78001275
 H     24  23  22     1.074404457595   123.40851788   179.93211211
 H     27  23  22     1.095049333090   108.79029068    58.99094156
 H     27  23  22     1.094931436255   108.79064687   302.99473844
 H     28  27  23     1.087463120248   110.99102124   298.93504014
 H     28  27  23     1.087714007035   109.40210121   179.64193607
 H     28  27  23     1.087512375516   110.95069570    60.34541779
 H     31  30  29     1.074638864968   124.29350003   179.91645444
 H     34  30  29     1.094901784454   108.84551375    60.15412453
 H     34  30  29     1.094734562211   108.75586182   304.06773703
 H     35  34  30     1.087415560124   110.99264053   298.52066056
 H     35  34  30     1.087683653734   109.44230698   179.13383872
 H     35  34  30     1.087514630798   110.88023895    59.78642753
 H     38  37  36     1.074442428937   124.29089810   179.95938807
 H     41  37  36     1.094785762330   108.87413337    59.70254476
 H     41  37  36     1.094678702268   108.77606234   303.58845422
 H     42  41  37     1.087365027716   110.98806286   298.67177843
 H     42  41  37     1.087637856917   109.43222691   179.29423009
 H     42  41  37     1.087518110608   110.90042888    59.94495028
 H     43  25  24     1.087453045469   109.96343495     0.09704288
 H     43  25  24     1.089939397123   110.67904180   239.79945254
 H     43  25  24     1.089884248258   110.70358300   120.42165697
 H     44   4   3     1.087469173862   109.96397638     0.35220898
 H     44   4   3     1.089958700364   110.67808370   240.06340598
 H     44   4   3     1.089869703818   110.70672282   120.68434961

---------------------------
INTERNAL COORDINATES (A.U.)
---------------------------
 C      0   0   0     0.000000000000     0.00000000     0.00000000
 C      1   0   0     2.617846848859     0.00000000     0.00000000
 C      2   1   0     2.669086863585   112.40439939     0.00000000
 C      3   2   1     2.568480784023   114.65352280   359.95812069
 S      4   3   2     3.266085029083   110.71432244     0.00000000
 C      2   1   3     2.831205261289   124.37353751   179.94678528
 C      6   2   1     2.879634022570   114.56995352   181.03345620
 C      1   2   3     2.699099121441   129.75133896   179.99559461
 C      8   1   2     2.626808732671   129.74186055   178.68773086
 C      9   8   1     2.649946879851   112.63793126   179.96058496
 C     10   9   8     2.594200028506   114.56532645     0.13129831
 S     11  10   9     3.278635488652   110.46218617   359.83796675
 C      9   8   1     2.832169115629   124.26068072   359.63643639
 C     13   9   8     2.879679763502   114.33652152   181.70764390
 C     11  10   9     9.922491838528   113.55985438   179.09338458
 C     15  11  10     2.630607481989   113.91189095   359.97078920
 C     16  15  11     2.647177445241   112.64510201   179.69322054
 C     17  16  15     2.595407639803   114.61515834     0.11258134
 S     18  17  16     3.277690021876   110.48349373   359.79732055
 C     16  15  11     2.831090192788   124.23872843   359.31643673
 C     20  16  15     2.879858923668   114.33031865   182.25090233
 C     18  17  16     9.923566467771   113.06486506   179.10592861
 C     22  18  17     2.617823449272   113.84814669     0.46689862
 C     23  22  18     2.669094313197   112.40248440   179.81842810
 C     24  23  22     2.568481546277   114.65307250   359.96012937
 S     25  24  23     3.266101786749   110.71570906     0.00000000
 C     23  22  18     2.831208050957   124.36975250   359.77101006
 C     27  23  22     2.879646214754   114.56634006   181.00542027
 C     15  11  10     2.691164460365    15.73162202   180.82631876
 C     29  15  11     2.630988318959   129.64807825   179.22657666
 C     30  29  15     2.647126383563   112.63847068   179.98954376
 C     31  30  29     2.595787764283   114.59811332     0.11857498
 S     32  31  30     3.277629266667   110.50297436   359.83504401
 C     30  29  15     2.831059824782   124.24846970   359.63078939
 C     34  30  29     2.879772449882   114.35394936   182.23165551
 C     22  18  17     2.699075853975    15.89399755   180.99162886
 C     36  22  18     2.626944297250   129.74657675   179.33133823
 C     37  36  22     2.649952376903   112.63326208   179.94600448
 C     38  37  36     2.594415418356   114.55603525     0.16042774
 S     39  38  37     3.278574666277   110.47250816   359.84198756
 C     37  36  22     2.832146208371   124.26034817   359.63106547
 C     41  37  36     2.879666159176   114.34266816   181.74335866
 C     25  24  23     2.809031317687   128.57084308   179.89384274
 C      4   3   2     2.809057912290   128.56832478   179.88137711
 H      3   2   1     2.030326889332   123.40991086   179.93327020
 H      6   2   1     2.069330677897   108.79167136    59.01496285
 H      6   2   1     2.069116363373   108.79075828   303.01502959
 H      7   6   2     2.055001287047   110.98573309   298.92142587
 H      7   6   2     2.055492415163   109.40546599   179.62730723
 H      7   6   2     2.055096289800   110.94853777    60.32860286
 H     10   9   8     2.030270857810   124.29185631   179.95310260
 H     13   9   8     2.068836884088   108.87852382    59.67038754
 H     13   9   8     2.068669940296   108.77389858   303.55454962
 H     14  13   9     2.054836523255   110.98580730   298.68554165
 H     14  13   9     2.055315999204   109.42896807   179.31193574
 H     14  13   9     2.055093215438   110.90487309    59.96156231
 H     17  16  15     2.030612440640   124.29374802   179.93179982
 H     20  16  15     2.069047263152   108.86146492    60.17383472
 H     20  16  15     2.068762776718   108.74916270   304.08862038
 H     21  20  16     2.054922965721   110.99894967   298.51106984
 H     21  20  16     2.055390212122   109.43997065   179.12594547
 H     21  20  16     2.055105492009   110.88434924    59.78001275
 H     24  23  22     2.030330181919   123.40851788   179.93211211
 H     27  23  22     2.069343342672   108.79029068    58.99094156
 H     27  23  22     2.069120549943   108.79064687   302.99473844
 H     28  27  23     2.055007478009   110.99102124   298.93504014
 H     28  27  23     2.055481585326   109.40210121   179.64193607
 H     28  27  23     2.055100556975   110.95069570    60.34541779
 H     31  30  29     2.030773147658   124.29350003   179.91645444
 H     34  30  29     2.069064516159   108.84551375    60.15412453
 H     34  30  29     2.068748511918   108.75586182   304.06773703
 H     35  34  30     2.054917602399   110.99264053   298.52066056
 H     35  34  30     2.055424225900   109.44230698   179.13383872
 H     35  34  30     2.055104818841   110.88023895    59.78642753
 H     38  37  36     2.030401937356   124.29089810   179.95938807
 H     41  37  36     2.068845266119   108.87413337    59.70254476
 H     41  37  36     2.068642951924   108.77606234   303.58845422
 H     42  41  37     2.054822109987   110.98806286   298.67177843
 H     42  41  37     2.055337682459   109.43222691   179.29423009
 H     42  41  37     2.055111394728   110.90042888    59.94495028
 H     43  25  24     2.054988439435   109.96343495     0.09704288
 H     43  25  24     2.059686963133   110.67904180   239.79945254
 H     43  25  24     2.059582746881   110.70358300   120.42165697
 H     44   4   3     2.055018917681   109.96397638     0.35220898
 H     44   4   3     2.059723440973   110.67808370   240.06340598
 H     44   4   3     2.059555261874   110.70672282   120.68434961

---------------------
BASIS SET INFORMATION
---------------------
There are 3 groups of distinct atoms

 Group   1 Type C   : 11s6p2d1f contracted to 5s3p2d1f pattern {62111/411/11/1}
 Group   2 Type S   : 14s9p3d1f contracted to 5s5p2d1f pattern {73211/51111/21/1}
 Group   3 Type H   : 5s1p contracted to 3s1p pattern {311/1}

Atom   0C    basis set group =>   1
Atom   1C    basis set group =>   1
Atom   2C    basis set group =>   1
Atom   3C    basis set group =>   1
Atom   4S    basis set group =>   2
Atom   5C    basis set group =>   1
Atom   6C    basis set group =>   1
Atom   7C    basis set group =>   1
Atom   8C    basis set group =>   1
Atom   9C    basis set group =>   1
Atom  10C    basis set group =>   1
Atom  11S    basis set group =>   2
Atom  12C    basis set group =>   1
Atom  13C    basis set group =>   1
Atom  14C    basis set group =>   1
Atom  15C    basis set group =>   1
Atom  16C    basis set group =>   1
Atom  17C    basis set group =>   1
Atom  18S    basis set group =>   2
Atom  19C    basis set group =>   1
Atom  20C    basis set group =>   1
Atom  21C    basis set group =>   1
Atom  22C    basis set group =>   1
Atom  23C    basis set group =>   1
Atom  24C    basis set group =>   1
Atom  25S    basis set group =>   2
Atom  26C    basis set group =>   1
Atom  27C    basis set group =>   1
Atom  28C    basis set group =>   1
Atom  29C    basis set group =>   1
Atom  30C    basis set group =>   1
Atom  31C    basis set group =>   1
Atom  32S    basis set group =>   2
Atom  33C    basis set group =>   1
Atom  34C    basis set group =>   1
Atom  35C    basis set group =>   1
Atom  36C    basis set group =>   1
Atom  37C    basis set group =>   1
Atom  38C    basis set group =>   1
Atom  39S    basis set group =>   2
Atom  40C    basis set group =>   1
Atom  41C    basis set group =>   1
Atom  42C    basis set group =>   1
Atom  43C    basis set group =>   1
Atom  44H    basis set group =>   3
Atom  45H    basis set group =>   3
Atom  46H    basis set group =>   3
Atom  47H    basis set group =>   3
Atom  48H    basis set group =>   3
Atom  49H    basis set group =>   3
Atom  50H    basis set group =>   3
Atom  51H    basis set group =>   3
Atom  52H    basis set group =>   3
Atom  53H    basis set group =>   3
Atom  54H    basis set group =>   3
Atom  55H    basis set group =>   3
Atom  56H    basis set group =>   3
Atom  57H    basis set group =>   3
Atom  58H    basis set group =>   3
Atom  59H    basis set group =>   3
Atom  60H    basis set group =>   3
Atom  61H    basis set group =>   3
Atom  62H    basis set group =>   3
Atom  63H    basis set group =>   3
Atom  64H    basis set group =>   3
Atom  65H    basis set group =>   3
Atom  66H    basis set group =>   3
Atom  67H    basis set group =>   3
Atom  68H    basis set group =>   3
Atom  69H    basis set group =>   3
Atom  70H    basis set group =>   3
Atom  71H    basis set group =>   3
Atom  72H    basis set group =>   3
Atom  73H    basis set group =>   3
Atom  74H    basis set group =>   3
Atom  75H    basis set group =>   3
Atom  76H    basis set group =>   3
Atom  77H    basis set group =>   3
Atom  78H    basis set group =>   3
Atom  79H    basis set group =>   3
Atom  80H    basis set group =>   3
Atom  81H    basis set group =>   3
Atom  82H    basis set group =>   3
Atom  83H    basis set group =>   3
Atom  84H    basis set group =>   3
Atom  85H    basis set group =>   3
---------------------------------
AUXILIARY/J BASIS SET INFORMATION
---------------------------------
There are 3 groups of distinct atoms

 Group   1 Type C   : 12s5p4d2f1g contracted to 6s4p3d1f1g pattern {711111/2111/211/2/1}
 Group   2 Type S   : 14s5p5d2f1g contracted to 8s4p3d1f1g pattern {71111111/2111/311/2/1}
 Group   3 Type H   : 5s2p1d contracted to 3s1p1d pattern {311/2/1}

Atom   0C    basis set group =>   1
Atom   1C    basis set group =>   1
Atom   2C    basis set group =>   1
Atom   3C    basis set group =>   1
Atom   4S    basis set group =>   2
Atom   5C    basis set group =>   1
Atom   6C    basis set group =>   1
Atom   7C    basis set group =>   1
Atom   8C    basis set group =>   1
Atom   9C    basis set group =>   1
Atom  10C    basis set group =>   1
Atom  11S    basis set group =>   2
Atom  12C    basis set group =>   1
Atom  13C    basis set group =>   1
Atom  14C    basis set group =>   1
Atom  15C    basis set group =>   1
Atom  16C    basis set group =>   1
Atom  17C    basis set group =>   1
Atom  18S    basis set group =>   2
Atom  19C    basis set group =>   1
Atom  20C    basis set group =>   1
Atom  21C    basis set group =>   1
Atom  22C    basis set group =>   1
Atom  23C    basis set group =>   1
Atom  24C    basis set group =>   1
Atom  25S    basis set group =>   2
Atom  26C    basis set group =>   1
Atom  27C    basis set group =>   1
Atom  28C    basis set group =>   1
Atom  29C    basis set group =>   1
Atom  30C    basis set group =>   1
Atom  31C    basis set group =>   1
Atom  32S    basis set group =>   2
Atom  33C    basis set group =>   1
Atom  34C    basis set group =>   1
Atom  35C    basis set group =>   1
Atom  36C    basis set group =>   1
Atom  37C    basis set group =>   1
Atom  38C    basis set group =>   1
Atom  39S    basis set group =>   2
Atom  40C    basis set group =>   1
Atom  41C    basis set group =>   1
Atom  42C    basis set group =>   1
Atom  43C    basis set group =>   1
Atom  44H    basis set group =>   3
Atom  45H    basis set group =>   3
Atom  46H    basis set group =>   3
Atom  47H    basis set group =>   3
Atom  48H    basis set group =>   3
Atom  49H    basis set group =>   3
Atom  50H    basis set group =>   3
Atom  51H    basis set group =>   3
Atom  52H    basis set group =>   3
Atom  53H    basis set group =>   3
Atom  54H    basis set group =>   3
Atom  55H    basis set group =>   3
Atom  56H    basis set group =>   3
Atom  57H    basis set group =>   3
Atom  58H    basis set group =>   3
Atom  59H    basis set group =>   3
Atom  60H    basis set group =>   3
Atom  61H    basis set group =>   3
Atom  62H    basis set group =>   3
Atom  63H    basis set group =>   3
Atom  64H    basis set group =>   3
Atom  65H    basis set group =>   3
Atom  66H    basis set group =>   3
Atom  67H    basis set group =>   3
Atom  68H    basis set group =>   3
Atom  69H    basis set group =>   3
Atom  70H    basis set group =>   3
Atom  71H    basis set group =>   3
Atom  72H    basis set group =>   3
Atom  73H    basis set group =>   3
Atom  74H    basis set group =>   3
Atom  75H    basis set group =>   3
Atom  76H    basis set group =>   3
Atom  77H    basis set group =>   3
Atom  78H    basis set group =>   3
Atom  79H    basis set group =>   3
Atom  80H    basis set group =>   3
Atom  81H    basis set group =>   3
Atom  82H    basis set group =>   3
Atom  83H    basis set group =>   3
Atom  84H    basis set group =>   3
Atom  85H    basis set group =>   3
------------------------------------------------------------------------------
                           ORCA GTO INTEGRAL CALCULATION
                           -- RI-GTO INTEGRALS CHOSEN --
------------------------------------------------------------------------------

                         BASIS SET STATISTICS AND STARTUP INFO

Gaussian basis set:
 # of primitive gaussian shells          ... 1174
 # of primitive gaussian functions       ... 2462
 # of contracted shells                  ...  664
 # of contracted basis functions         ... 1652
 Highest angular momentum                ...    3
 Maximum contraction depth               ...    7
Auxiliary gaussian basis set:
 # of primitive gaussian shells          ... 1410
 # of primitive gaussian functions       ... 3794
 # of contracted shells                  ...  882
 # of contracted aux-basis functions     ... 2630
 Highest angular momentum                ...    4
 Maximum contraction depth               ...    7
Ratio of auxiliary to basis functions    ...  1.59
Integral package used                  ... LIBINT
 One Electron integrals                  ... done
 Ordering auxiliary basis shells         ... done
 Integral threshhold             Thresh  ...  2.500e-11
 Primitive cut-off               TCut    ...  2.500e-12
 Pre-screening matrix                    ... done
 Shell pair data                         ... 
 Ordering of the shell pairs             ... done (   0.021 sec) 86215 of 220780 pairs
 Determination of significant pairs      ... done (   0.001 sec)
 Creation of shell pair data             ... done (   0.013 sec)
 Storage of shell pair data              ... done (   0.018 sec)
 Shell pair data done in (   0.053 sec)
 Computing two index integrals           ... done
 Cholesky decomposition of the V-matrix  ... done


Timings:
 Total evaluation time                   ...   3.598 sec (  0.060 min)
 One electron matrix time                ...   1.184 sec (  0.020 min) = 32.9%
 Schwartz matrix evaluation time         ...   1.919 sec (  0.032 min) = 53.3%
 Two index repulsion integral time       ...   0.206 sec (  0.003 min) =  5.7%
 Cholesky decomposition of V             ...   0.219 sec (  0.004 min) =  6.1%
 Three index repulsion integral time     ...   0.000 sec (  0.000 min) =  0.0%

-------------------------------------------------------------------------------
                                 ORCA SCF
-------------------------------------------------------------------------------

------------
SCF SETTINGS
------------
Hamiltonian:
 Density Functional     Method          .... DFT(GTOs)
 Exchange Functional    Exchange        .... B88
   X-Alpha parameter    XAlpha          ....  0.666667
   Becke's b parameter  XBeta           ....  0.004200
 Correlation Functional Correlation     .... LYP
 LDA part of GGA corr.  LDAOpt          .... VWN-5
 Gradients option       PostSCFGGA      .... off
 Hybrid DFT is turned on
   Fraction HF Exchange ScalHFX         ....  0.200000
   Scaling of DF-GGA-X  ScalDFX         ....  0.720000
   Scaling of DF-GGA-C  ScalDFC         ....  0.810000
   Scaling of DF-LDA-C  ScalLDAC        ....  1.000000
   Perturbative correction              ....  0.000000
   Density functional embedding theory  .... OFF
   NL short-range parameter             ....  4.800000
 RI-approximation to the Coulomb term is turned on
   Number of auxiliary basis functions  .... 2630
   RIJ-COSX (HFX calculated with COS-X)).... on


General Settings:
 Integral files         IntName         .... P3HT_olig
 Hartree-Fock type      HFTyp           .... RHF
 Total Charge           Charge          ....    0
 Multiplicity           Mult            ....    1
 Number of Electrons    NEL             ....  366
 Basis Dimension        Dim             .... 1652
 Nuclear Repulsion      ENuc            ....   6010.2293109206 Eh

Convergence Acceleration:
 DIIS                   CNVDIIS         .... on
   Start iteration      DIISMaxIt       ....    12
   Startup error        DIISStart       ....  0.200000
   # of expansion vecs  DIISMaxEq       ....     5
   Bias factor          DIISBfac        ....   1.050
   Max. coefficient     DIISMaxC        ....  10.000
 Newton-Raphson         CNVNR           .... off
 SOSCF                  CNVSOSCF        .... on
   Start iteration      SOSCFMaxIt      ....   150
   Startup grad/error   SOSCFStart      ....  0.003300
 Level Shifting         CNVShift        .... on
   Level shift para.    LevelShift      ....    0.2500
   Turn off err/grad.   ShiftErr        ....    0.0010
 Zerner damping         CNVZerner       .... off
 Static damping         CNVDamp         .... on
   Fraction old density DampFac         ....    0.7000
   Max. Damping (<1)    DampMax         ....    0.9800
   Min. Damping (>=0)   DampMin         ....    0.0000
   Turn off err/grad.   DampErr         ....    0.1000
 Fernandez-Rico         CNVRico         .... off

SCF Procedure:
 Maximum # iterations   MaxIter         ....   125
 SCF integral mode      SCFMode         .... Direct
   Integral package                     .... LIBINT
 Reset frequency        DirectResetFreq ....    20
 Integral Threshold     Thresh          ....  2.500e-11 Eh
 Primitive CutOff       TCut            ....  2.500e-12 Eh

Convergence Tolerance:
 Convergence Check Mode ConvCheckMode   .... Total+1el-Energy
 Convergence forced     ConvForced      .... 1
 Energy Change          TolE            ....  1.000e-08 Eh
 1-El. energy change                    ....  1.000e-05 Eh
 Orbital Gradient       TolG            ....  1.000e-05
 Orbital Rotation angle TolX            ....  1.000e-05
 DIIS Error             TolErr          ....  5.000e-07


Diagonalization of the overlap matrix:
Smallest eigenvalue                        ... 4.321e-06
Time for diagonalization                   ...    1.154 sec
Threshold for overlap eigenvalues          ... 1.000e-08
Number of eigenvalues below threshold      ... 0
Time for construction of square roots      ...    0.385 sec
Total time needed                          ...    1.547 sec

-------------------
DFT GRID GENERATION
-------------------

General Integration Accuracy     IntAcc      ...  4.670
Radial Grid Type                 RadialGrid  ... Gauss-Chebyshev
Angular Grid (max. acc.)         AngularGrid ... Lebedev-302
Angular grid pruning method      GridPruning ... 3 (G Style)
Weight generation scheme         WeightScheme... Becke
Basis function cutoff            BFCut       ...    1.0000e-11
Integration weight cutoff        WCut        ...    1.0000e-14
Grids for H and He will be reduced by one unit

# of grid points (after initial pruning)     ... 419680 (   0.8 sec)
# of grid points (after weights+screening)   ... 361379 (  10.6 sec)
nearest neighbour list constructed           ...    0.0 sec
Grid point re-assignment to atoms done       ...    0.1 sec
Grid point division into batches done        ...    1.2 sec
Reduced shell lists constructed in   12.9 sec

Total number of grid points                  ...   361379
Total number of batches                      ...     5692
Average number of points per batch           ...       63
Average number of grid points per atom       ...     4202
Average number of shells per batch           ...   141.67 (21.34%)
Average number of basis functions per batch  ...   342.12 (20.71%)
Average number of large shells per batch     ...    86.27 (60.89%)
Average number of large basis fcns per batch ...   213.77 (62.48%)
Maximum spatial batch extension              ...  21.71, 21.51, 40.01 au
Average spatial batch extension              ...   2.15,  2.15,  2.30 au

Time for grid setup =   24.398 sec

------------------------------
INITIAL GUESS: MODEL POTENTIAL
------------------------------
Loading Hartree-Fock densities                     ... done
Calculating cut-offs                               ... done
Setting up the integral package                    ... done
Initializing the effective Hamiltonian             ... done
Starting the Coulomb interaction                   ... done (  12.8 sec)
Reading the grid                                   ... done
Mapping shells                                     ... done
Starting the XC term evaluation                    ... done (  17.8 sec)
  promolecular density results
     # of electrons  =    365.977701315
     EX              =   -358.412500242
     EC              =    -12.989776878
     EX+EC           =   -371.402277120
Transforming the Hamiltonian                       ... done (   0.4 sec)
Diagonalizing the Hamiltonian                      ... done (   1.3 sec)
Back transforming the eigenvectors                 ... done (   0.2 sec)
Now organizing SCF variables                       ... done
                      ------------------
                      INITIAL GUESS DONE (  57.3 sec)
                      ------------------
--------------------
COSX GRID GENERATION
--------------------

General Integration Accuracy     IntAcc      ...  3.340
Radial Grid Type                 RadialGrid  ... Gauss-Chebyshev
Angular Grid (max. acc.)         AngularGrid ... Lebedev-50
Angular grid pruning method      GridPruning ... 3 (G Style)
Weight generation scheme         WeightScheme... Becke
Basis function cutoff            BFCut       ...    1.0000e-11
Integration weight cutoff        WCut        ...    1.0000e-14
Grids for H and He will be reduced by one unit

# of grid points (after initial pruning)     ...  39716 (   0.0 sec)
# of grid points (after weights+screening)   ...  35502 (   1.0 sec)
nearest neighbour list constructed           ...    0.0 sec
Grid point re-assignment to atoms done       ...    0.0 sec
Grid point division into batches done        ...    0.0 sec
Reduced shell lists constructed in    1.7 sec

Total number of grid points                  ...    35502
Total number of batches                      ...      597
Average number of points per batch           ...       59
Average number of grid points per atom       ...      413
Average number of shells per batch           ...   170.17 (25.63%)
Average number of basis functions per batch  ...   414.62 (25.10%)
Average number of large shells per batch     ...   105.28 (61.87%)
Average number of large basis fcns per batch ...   264.82 (63.87%)
Maximum spatial batch extension              ...  20.68, 17.60, 30.36 au
Average spatial batch extension              ...   4.33,  3.93,  5.13 au

Overlap Fitting                  UseSFitting ... on
Constructing numerical overlap ... done (      1.7 sec)
Inverting numerical overlap    ... done (      0.1 sec)
Obtaining analytic overlap     ... done (      0.0 sec)
Final contraction and storage  ... done (      0.2 sec)


General Integration Accuracy     IntAcc      ...  3.670
Radial Grid Type                 RadialGrid  ... Gauss-Chebyshev
Angular Grid (max. acc.)         AngularGrid ... Lebedev-50
Angular grid pruning method      GridPruning ... 3 (G Style)
Weight generation scheme         WeightScheme... Becke
Basis function cutoff            BFCut       ...    1.0000e-11
Integration weight cutoff        WCut        ...    1.0000e-14
Grids for H and He will be reduced by one unit

# of grid points (after initial pruning)     ...  50360 (   0.1 sec)
# of grid points (after weights+screening)   ...  44863 (   1.3 sec)
nearest neighbour list constructed           ...    0.0 sec
Grid point re-assignment to atoms done       ...    0.0 sec
Grid point division into batches done        ...    0.0 sec
Reduced shell lists constructed in    1.9 sec

Total number of grid points                  ...    44863
Total number of batches                      ...      739
Average number of points per batch           ...       60
Average number of grid points per atom       ...      522
Average number of shells per batch           ...   166.66 (25.10%)
Average number of basis functions per batch  ...   405.77 (24.56%)
Average number of large shells per batch     ...   102.39 (61.44%)
Average number of large basis fcns per batch ...   257.17 (63.38%)
Maximum spatial batch extension              ...  18.77, 18.67, 25.09 au
Average spatial batch extension              ...   4.09,  3.69,  4.81 au

Overlap Fitting                  UseSFitting ... on
Constructing numerical overlap ... done (      1.9 sec)
Inverting numerical overlap    ... done (      0.1 sec)
Obtaining analytic overlap     ... done (      0.0 sec)
Final contraction and storage  ... done (      0.2 sec)


General Integration Accuracy     IntAcc      ...  4.010
Radial Grid Type                 RadialGrid  ... Gauss-Chebyshev
Angular Grid (max. acc.)         AngularGrid ... Lebedev-110
Angular grid pruning method      GridPruning ... 3 (G Style)
Weight generation scheme         WeightScheme... Becke
Basis function cutoff            BFCut       ...    1.0000e-11
Integration weight cutoff        WCut        ...    1.0000e-14
Grids for H and He will be reduced by one unit

# of grid points (after initial pruning)     ...  93632 (   0.2 sec)
# of grid points (after weights+screening)   ...  82930 (   2.3 sec)
nearest neighbour list constructed           ...    0.0 sec
Grid point re-assignment to atoms done       ...    0.0 sec
Grid point division into batches done        ...    0.1 sec
Reduced shell lists constructed in    3.1 sec

Total number of grid points                  ...    82930
Total number of batches                      ...     1345
Average number of points per batch           ...       61
Average number of grid points per atom       ...      964
Average number of shells per batch           ...   159.23 (23.98%)
Average number of basis functions per batch  ...   387.61 (23.46%)
Average number of large shells per batch     ...    98.42 (61.81%)
Average number of large basis fcns per batch ...   246.54 (63.60%)
Maximum spatial batch extension              ...  20.16, 18.19, 38.07 au
Average spatial batch extension              ...   3.37,  3.30,  3.70 au

Overlap Fitting                  UseSFitting ... on
Constructing numerical overlap ... done (      3.5 sec)
Inverting numerical overlap    ... done (      0.1 sec)
Obtaining analytic overlap     ... done (      0.0 sec)
Final contraction and storage  ... done (      0.2 sec)

Time for X-Grid setup             =   19.818 sec
--------------
SCF ITERATIONS
--------------
ITER       Energy         Delta-E        Max-DP      RMS-DP      [F,P]     Damp
               ***  Starting incremental Fock matrix formation  ***
  0  -3860.3565619592   0.000000000000 0.05245760  0.00069913  0.1983981 0.7000
  1  -3861.0612017541  -0.704639794976 0.04671951  0.00048697  0.1028846 0.7000
                               ***Turning on DIIS***
  2  -3861.3267403613  -0.265538607141 0.08844239  0.00092054  0.0389291 0.0000
  3  -3861.6910023451  -0.364261983789 0.02927668  0.00035059  0.0565218 0.0000
  4  -3861.8178282612  -0.126825916122 0.01782202  0.00014998  0.0163483 0.0000
  5  -3861.8248545179  -0.007026256653 0.00512973  0.00005872  0.0048322 0.0000
                      *** Initiating the SOSCF procedure ***
                           *** Shutting down DIIS ***
                      *** Re-Reading the Fockian *** 
                      *** Removing any level shift *** 
ITER      Energy       Delta-E        Grad      Rot      Max-DP    RMS-DP
  6  -3861.82556262  -0.0007081033  0.000445  0.000445  0.002839  0.000029
               *** Restarting incremental Fock matrix formation ***
  7  -3861.82563065  -0.0000680275  0.000160  0.000916  0.010883  0.000079
  8  -3861.82563522  -0.0000045761  0.000199  0.000975  0.003868  0.000027
  9  -3861.82563801  -0.0000027881  0.000156  0.000506  0.003601  0.000026
 10  -3861.82563908  -0.0000010687  0.000074  0.000285  0.000982  0.000007
 11  -3861.82564000  -0.0000009227  0.000037  0.000224  0.001184  0.000008
 12  -3861.82564005  -0.0000000414  0.000025  0.000086  0.000130  0.000001
 13  -3861.82564007  -0.0000000270  0.000014  0.000073  0.000432  0.000003
 14  -3861.82564014  -0.0000000706  0.000009  0.000021  0.000110  0.000001
 15  -3861.82564027  -0.0000001265  0.000003  0.000020  0.000160  0.000001
 16  -3861.82564013   0.0000001424  0.000004  0.000011  0.000187  0.000001
 17  -3861.82564010   0.0000000228  0.000003  0.000011  0.000097  0.000001
                  ***Gradient check signals convergence***
              ***Rediagonalizing the Fockian in SOSCF/NRSCF***

               *****************************************************
               *                     SUCCESS                       *
               *           SCF CONVERGED AFTER  18 CYCLES          *
               *****************************************************

Setting up the final grid:

General Integration Accuracy     IntAcc      ...  5.010
Radial Grid Type                 RadialGrid  ... Gauss-Chebyshev
Angular Grid (max. acc.)         AngularGrid ... Lebedev-434
Angular grid pruning method      GridPruning ... 3 (G Style)
Weight generation scheme         WeightScheme... Becke
Basis function cutoff            BFCut       ...    1.0000e-11
Integration weight cutoff        WCut        ...    1.0000e-14
Grids for H and He will be reduced by one unit

# of grid points (after initial pruning)     ... 758028 (   1.3 sec)
# of grid points (after weights+screening)   ... 650943 (  19.1 sec)
nearest neighbour list constructed           ...    0.0 sec
Grid point re-assignment to atoms done       ...    0.1 sec
Grid point division into batches done        ...    4.0 sec
Reduced shell lists constructed in   22.6 sec

Total number of grid points                  ...   650943
Total number of batches                      ...    10210
Average number of points per batch           ...       63
Average number of grid points per atom       ...     7569
Average number of shells per batch           ...   136.39 (20.54%)
Average number of basis functions per batch  ...   328.19 (19.87%)
Average number of large shells per batch     ...    82.68 (60.62%)
Average number of large basis fcns per batch ...   204.22 (62.23%)
Maximum spatial batch extension              ...  19.74, 20.33, 22.32 au
Average spatial batch extension              ...   1.75,  1.74,  1.85 au

Final grid set up in   43.2 sec
Final integration                            ... done (  45.1 sec)
Change in XC energy                          ...    -0.000207006
Integrated number of electrons               ...   365.999999275
Previous integrated no of electrons          ...   365.999072703
Old exchange energy                            =    -72.543039263 Eh
New exchange energy                            =    -72.545371105 Eh
Exchange energy change after final integration =     -0.002331842 Eh
Total energy after final integration           =  -3861.828179118 Eh
Final COS-X integration done in                =   778.098 sec

----------------
TOTAL SCF ENERGY
----------------

Total Energy       :        -3861.82817912 Eh         -105085.68721 eV

Components:
Nuclear Repulsion  :         6010.22931092 Eh          163546.65410 eV
Electronic Energy  :        -9872.05749004 Eh         -268632.34131 eV
One Electron Energy:       -17266.43101110 Eh         -469843.47419 eV
Two Electron Energy:         7394.37352106 Eh          201211.13288 eV

Virial components:
Potential Energy   :        -7714.03776532 Eh         -209909.63919 eV
Kinetic Energy     :         3852.20958621 Eh          104823.95199 eV
Virial Ratio       :            2.00249690


DFT components:
N(Alpha)           :      182.999999637677 electrons
N(Beta)            :      182.999999637677 electrons
N(Total)           :      365.999999275354 electrons
E(X)               :     -287.949122721248 Eh       
E(C)               :      -15.270749618103 Eh       
E(XC)              :     -303.219872339350 Eh       
DFET-embed. en.    :        0.000000000000 Eh       

---------------
SCF CONVERGENCE
---------------

  Last Energy change         ...   -1.6515e-07  Tolerance :   1.0000e-08
  Last MAX-Density change    ...    3.9968e-15  Tolerance :   1.0000e-07
  Last RMS-Density change    ...    1.3451e-17  Tolerance :   5.0000e-09
  Last Orbital Gradient      ...    1.1362e-06  Tolerance :   1.0000e-05
  Last Orbital Rotation      ...    4.7031e-06  Tolerance :   1.0000e-05

             **** THE GBW FILE WAS UPDATED (P3HT_olig.gbw) ****
             **** DENSITY FILE WAS UPDATED (P3HT_olig.scfp) ****
             **** ENERGY FILE WAS UPDATED (P3HT_olig.en.tmp) ****
             **** THE GBW FILE WAS UPDATED (P3HT_olig.gbw) ****
             **** DENSITY FILE WAS UPDATED (P3HT_olig.scfp) ****
----------------
ORBITAL ENERGIES
----------------

  NO   OCC          E(Eh)            E(eV) 
   0   2.0000     -88.873393     -2418.3680 
   1   2.0000     -88.873365     -2418.3672 
   2   2.0000     -88.872803     -2418.3519 
   3   2.0000     -88.872796     -2418.3517 
   4   2.0000     -88.870484     -2418.2888 
   5   2.0000     -88.870479     -2418.2887 
   6   2.0000     -10.204489      -277.6783 
   7   2.0000     -10.204045      -277.6662 
   8   2.0000     -10.203403      -277.6487 
   9   2.0000     -10.203395      -277.6485 
  10   2.0000     -10.200707      -277.5753 
  11   2.0000     -10.200705      -277.5753 
  12   2.0000     -10.200153      -277.5603 
  13   2.0000     -10.200131      -277.5597 
  14   2.0000     -10.199149      -277.5330 
  15   2.0000     -10.199146      -277.5329 
  16   2.0000     -10.194884      -277.4169 
  17   2.0000     -10.194876      -277.4167 
  18   2.0000     -10.177767      -276.9511 
  19   2.0000     -10.177733      -276.9502 
  20   2.0000     -10.176543      -276.9178 
  21   2.0000     -10.176526      -276.9173 
  22   2.0000     -10.174542      -276.8634 
  23   2.0000     -10.174538      -276.8633 
  24   2.0000     -10.174356      -276.8583 
  25   2.0000     -10.174355      -276.8583 
  26   2.0000     -10.172071      -276.7961 
  27   2.0000     -10.172061      -276.7959 
  28   2.0000     -10.171244      -276.7736 
  29   2.0000     -10.171228      -276.7732 
  30   2.0000     -10.171153      -276.7711 
  31   2.0000     -10.171146      -276.7710 
  32   2.0000     -10.165956      -276.6297 
  33   2.0000     -10.165915      -276.6286 
  34   2.0000     -10.165582      -276.6196 
  35   2.0000     -10.165544      -276.6185 
  36   2.0000     -10.162179      -276.5270 
  37   2.0000     -10.162168      -276.5267 
  38   2.0000     -10.159405      -276.4515 
  39   2.0000     -10.159393      -276.4511 
  40   2.0000     -10.159323      -276.4492 
  41   2.0000     -10.159322      -276.4492 
  42   2.0000     -10.158724      -276.4329 
  43   2.0000     -10.158718      -276.4328 
  44   2.0000      -7.950416      -216.3418 
  45   2.0000      -7.950384      -216.3410 
  46   2.0000      -7.949844      -216.3262 
  47   2.0000      -7.949833      -216.3259 
  48   2.0000      -7.947552      -216.2639 
  49   2.0000      -7.947546      -216.2637 
  50   2.0000      -5.912925      -160.8989 
  51   2.0000      -5.912894      -160.8980 
  52   2.0000      -5.912323      -160.8825 
  53   2.0000      -5.912312      -160.8822 
  54   2.0000      -5.910033      -160.8202 
  55   2.0000      -5.910027      -160.8200 
  56   2.0000      -5.909081      -160.7943 
  57   2.0000      -5.909051      -160.7935 
  58   2.0000      -5.908500      -160.7784 
  59   2.0000      -5.908489      -160.7782 
  60   2.0000      -5.906897      -160.7349 
  61   2.0000      -5.906865      -160.7340 
  62   2.0000      -5.906361      -160.7203 
  63   2.0000      -5.906350      -160.7200 
  64   2.0000      -5.906062      -160.7121 
  65   2.0000      -5.906056      -160.7120 
  66   2.0000      -5.904250      -160.6628 
  67   2.0000      -5.904245      -160.6627 
  68   2.0000      -0.901703       -24.5366 
  69   2.0000      -0.896886       -24.4055 
  70   2.0000      -0.890579       -24.2339 
  71   2.0000      -0.880534       -23.9605 
  72   2.0000      -0.871081       -23.7033 
  73   2.0000      -0.863239       -23.4899 
  74   2.0000      -0.803323       -21.8595 
  75   2.0000      -0.801040       -21.7974 
  76   2.0000      -0.796661       -21.6782 
  77   2.0000      -0.796478       -21.6733 
  78   2.0000      -0.786893       -21.4125 
  79   2.0000      -0.782348       -21.2888 
  80   2.0000      -0.773858       -21.0577 
  81   2.0000      -0.771448       -20.9922 
  82   2.0000      -0.762076       -20.7372 
  83   2.0000      -0.738418       -20.0934 
  84   2.0000      -0.732542       -19.9335 
  85   2.0000      -0.724575       -19.7167 
  86   2.0000      -0.718121       -19.5411 
  87   2.0000      -0.716688       -19.5021 
  88   2.0000      -0.713539       -19.4164 
  89   2.0000      -0.712165       -19.3790 
  90   2.0000      -0.705526       -19.1983 
  91   2.0000      -0.689579       -18.7644 
  92   2.0000      -0.674385       -18.3510 
  93   2.0000      -0.673460       -18.3258 
  94   2.0000      -0.637590       -17.3497 
  95   2.0000      -0.635904       -17.3038 
  96   2.0000      -0.633606       -17.2413 
  97   2.0000      -0.632351       -17.2072 
  98   2.0000      -0.630357       -17.1529 
  99   2.0000      -0.604418       -16.4470 
 100   2.0000      -0.592361       -16.1190 
 101   2.0000      -0.579338       -15.7646 
 102   2.0000      -0.568334       -15.4652 
 103   2.0000      -0.560451       -15.2507 
 104   2.0000      -0.552043       -15.0219 
 105   2.0000      -0.546189       -14.8626 
 106   2.0000      -0.534515       -14.5449 
 107   2.0000      -0.526024       -14.3138 
 108   2.0000      -0.519036       -14.1237 
 109   2.0000      -0.514975       -14.0132 
 110   2.0000      -0.505001       -13.7418 
 111   2.0000      -0.503703       -13.7064 
 112   2.0000      -0.498166       -13.5558 
 113   2.0000      -0.490761       -13.3543 
 114   2.0000      -0.471545       -12.8314 
 115   2.0000      -0.461460       -12.5570 
 116   2.0000      -0.460603       -12.5336 
 117   2.0000      -0.460345       -12.5266 
 118   2.0000      -0.458287       -12.4706 
 119   2.0000      -0.456452       -12.4207 
 120   2.0000      -0.455787       -12.4026 
 121   2.0000      -0.455775       -12.4023 
 122   2.0000      -0.447825       -12.1859 
 123   2.0000      -0.444210       -12.0876 
 124   2.0000      -0.429996       -11.7008 
 125   2.0000      -0.429988       -11.7006 
 126   2.0000      -0.426988       -11.6189 
 127   2.0000      -0.425766       -11.5857 
 128   2.0000      -0.421795       -11.4776 
 129   2.0000      -0.418267       -11.3816 
 130   2.0000      -0.416433       -11.3317 
 131   2.0000      -0.416162       -11.3244 
 132   2.0000      -0.411683       -11.2025 
 133   2.0000      -0.411374       -11.1940 
 134   2.0000      -0.406597       -11.0641 
 135   2.0000      -0.401210       -10.9175 
 136   2.0000      -0.400721       -10.9042 
 137   2.0000      -0.399008       -10.8576 
 138   2.0000      -0.394383       -10.7317 
 139   2.0000      -0.393804       -10.7160 
 140   2.0000      -0.393188       -10.6992 
 141   2.0000      -0.391621       -10.6565 
 142   2.0000      -0.383406       -10.4330 
 143   2.0000      -0.380370       -10.3504 
 144   2.0000      -0.380280       -10.3479 
 145   2.0000      -0.379042       -10.3142 
 146   2.0000      -0.376398       -10.2423 
 147   2.0000      -0.368271       -10.0212 
 148   2.0000      -0.364439        -9.9169 
 149   2.0000      -0.364061        -9.9066 
 150   2.0000      -0.363658        -9.8956 
 151   2.0000      -0.362078        -9.8527 
 152   2.0000      -0.360691        -9.8149 
 153   2.0000      -0.360664        -9.8142 
 154   2.0000      -0.359304        -9.7772 
 155   2.0000      -0.359059        -9.7705 
 156   2.0000      -0.358787        -9.7631 
 157   2.0000      -0.355359        -9.6698 
 158   2.0000      -0.346361        -9.4250 
 159   2.0000      -0.345335        -9.3971 
 160   2.0000      -0.345322        -9.3967 
 161   2.0000      -0.344848        -9.3838 
 162   2.0000      -0.343861        -9.3569 
 163   2.0000      -0.339628        -9.2417 
 164   2.0000      -0.336116        -9.1462 
 165   2.0000      -0.324770        -8.8374 
 166   2.0000      -0.320920        -8.7327 
 167   2.0000      -0.316809        -8.6208 
 168   2.0000      -0.316790        -8.6203 
 169   2.0000      -0.312648        -8.5076 
 170   2.0000      -0.311403        -8.4737 
 171   2.0000      -0.298734        -8.1290 
 172   2.0000      -0.275952        -7.5090 
 173   2.0000      -0.256482        -6.9792 
 174   2.0000      -0.251114        -6.8332 
 175   2.0000      -0.248625        -6.7654 
 176   2.0000      -0.245261        -6.6739 
 177   2.0000      -0.244258        -6.6466 
 178   2.0000      -0.240805        -6.5526 
 179   2.0000      -0.239842        -6.5264 
 180   2.0000      -0.215474        -5.8633 
 181   2.0000      -0.186092        -5.0638 
 182   2.0000      -0.160752        -4.3743 
 183   0.0000      -0.070724        -1.9245 
 184   0.0000      -0.047183        -1.2839 
 185   0.0000      -0.021476        -0.5844 
 186   0.0000      -0.005260        -0.1431 
 187   0.0000       0.014506         0.3947 
 188   0.0000       0.020070         0.5461 
 189   0.0000       0.020208         0.5499 
 190   0.0000       0.021845         0.5944 
 191   0.0000       0.022274         0.6061 
 192   0.0000       0.023781         0.6471 
 193   0.0000       0.025606         0.6968 
 194   0.0000       0.029847         0.8122 
 195   0.0000       0.036996         1.0067 
 196   0.0000       0.038437         1.0459 
 197   0.0000       0.040697         1.1074 
 198   0.0000       0.044890         1.2215 
 199   0.0000       0.045000         1.2245 
 200   0.0000       0.045362         1.2344 
 201   0.0000       0.047935         1.3044 
 202   0.0000       0.053597         1.4584 
 203   0.0000       0.055609         1.5132 
 204   0.0000       0.056028         1.5246 
 205   0.0000       0.061463         1.6725 
 206   0.0000       0.062445         1.6992 
 207   0.0000       0.064553         1.7566 
 208   0.0000       0.065333         1.7778 
 209   0.0000       0.073579         2.0022 
 210   0.0000       0.074359         2.0234 
 211   0.0000       0.075444         2.0529 
 212   0.0000       0.077763         2.1160 
 213   0.0000       0.079147         2.1537 
 214   0.0000       0.080657         2.1948 
 215   0.0000       0.089396         2.4326 
 216   0.0000       0.089624         2.4388 
 217   0.0000       0.091625         2.4932 
 218   0.0000       0.094044         2.5591 
 219   0.0000       0.098258         2.6737 
 220   0.0000       0.100943         2.7468 
 221   0.0000       0.106523         2.8986 
 222   0.0000       0.107351         2.9212 
 223   0.0000       0.108881         2.9628 
 224   0.0000       0.108925         2.9640 
 225   0.0000       0.109627         2.9831 
 226   0.0000       0.110282         3.0009 
 227   0.0000       0.112569         3.0632 
 228   0.0000       0.113856         3.0982 
 229   0.0000       0.113887         3.0990 
 230   0.0000       0.116197         3.1619 
 231   0.0000       0.117210         3.1894 
 232   0.0000       0.118680         3.2294 
 233   0.0000       0.121821         3.3149 
 234   0.0000       0.124398         3.3850 
 235   0.0000       0.125386         3.4119 
 236   0.0000       0.127961         3.4820 
 237   0.0000       0.130244         3.5441 
 238   0.0000       0.132384         3.6024 
 239   0.0000       0.133531         3.6336 
 240   0.0000       0.136551         3.7157 
 241   0.0000       0.136865         3.7243 
 242   0.0000       0.138628         3.7723 
 243   0.0000       0.144993         3.9454 
 244   0.0000       0.145312         3.9541 
 245   0.0000       0.146139         3.9766 
 246   0.0000       0.147301         4.0083 
 247   0.0000       0.148824         4.0497 
 248   0.0000       0.149531         4.0689 
 249   0.0000       0.149747         4.0748 
 250   0.0000       0.151989         4.1358 
 251   0.0000       0.152799         4.1579 
 252   0.0000       0.159320         4.3353 
 253   0.0000       0.162427         4.4199 
 254   0.0000       0.164667         4.4808 
 255   0.0000       0.166918         4.5421 
 256   0.0000       0.169419         4.6101 
 257   0.0000       0.170191         4.6311 
 258   0.0000       0.172311         4.6888 
 259   0.0000       0.173011         4.7079 
 260   0.0000       0.177278         4.8240 
 261   0.0000       0.180365         4.9080 
 262   0.0000       0.180952         4.9240 
 263   0.0000       0.181990         4.9522 
 264   0.0000       0.188015         5.1161 
 265   0.0000       0.189362         5.1528 
 266   0.0000       0.193645         5.2694 
 267   0.0000       0.201152         5.4736 
 268   0.0000       0.201188         5.4746 
 269   0.0000       0.202959         5.5228 
 270   0.0000       0.204418         5.5625 
 271   0.0000       0.208324         5.6688 
 272   0.0000       0.212603         5.7852 
 273   0.0000       0.215155         5.8547 
 274   0.0000       0.217398         5.9157 
 275   0.0000       0.221795         6.0354 
 276   0.0000       0.225934         6.1480 
 277   0.0000       0.227826         6.1995 
 278   0.0000       0.228419         6.2156 
 279   0.0000       0.228731         6.2241 
 280   0.0000       0.230252         6.2655 
 281   0.0000       0.230518         6.2727 
 282   0.0000       0.233133         6.3439 
 283   0.0000       0.233823         6.3627 
 284   0.0000       0.234971         6.3939 
 285   0.0000       0.235337         6.4038 
 286   0.0000       0.240059         6.5323 
 287   0.0000       0.241676         6.5763 
 288   0.0000       0.244286         6.6474 
 289   0.0000       0.245731         6.6867 
 290   0.0000       0.250715         6.8223 
 291   0.0000       0.251044         6.8313 
 292   0.0000       0.252695         6.8762 
 293   0.0000       0.253447         6.8966 
 294   0.0000       0.255973         6.9654 
 295   0.0000       0.257915         7.0182 
 296   0.0000       0.263895         7.1809 
 297   0.0000       0.264489         7.1971 
 298   0.0000       0.264778         7.2050 
 299   0.0000       0.272002         7.4016 
 300   0.0000       0.273229         7.4349 
 301   0.0000       0.277527         7.5519 
 302   0.0000       0.278244         7.5714 
 303   0.0000       0.282077         7.6757 
 304   0.0000       0.285901         7.7798 
 305   0.0000       0.286700         7.8015 
 306   0.0000       0.290223         7.8974 
 307   0.0000       0.291736         7.9385 
 308   0.0000       0.292593         7.9619 
 309   0.0000       0.297007         8.0820 
 310   0.0000       0.298920         8.1340 
 311   0.0000       0.299968         8.1625 
 312   0.0000       0.300624         8.1804 
 313   0.0000       0.303697         8.2640 
 314   0.0000       0.306516         8.3407 
 315   0.0000       0.307822         8.3763 
 316   0.0000       0.308073         8.3831 
 317   0.0000       0.309843         8.4312 
 318   0.0000       0.310003         8.4356 
 319   0.0000       0.312913         8.5148 
 320   0.0000       0.316881         8.6228 
 321   0.0000       0.318027         8.6539 
 322   0.0000       0.320674         8.7260 
 323   0.0000       0.321585         8.7508 
 324   0.0000       0.326121         8.8742 
 325   0.0000       0.329042         8.9537 
 326   0.0000       0.329968         8.9789 
 327   0.0000       0.334375         9.0988 
 328   0.0000       0.336767         9.1639 
 329   0.0000       0.337430         9.1819 
 330   0.0000       0.338206         9.2031 
 331   0.0000       0.338399         9.2083 
 332   0.0000       0.341406         9.2901 
 333   0.0000       0.342304         9.3146 
 334   0.0000       0.346853         9.4384 
 335   0.0000       0.349470         9.5096 
 336   0.0000       0.358963         9.7679 
 337   0.0000       0.359153         9.7730 
 338   0.0000       0.361458         9.8358 
 339   0.0000       0.375178        10.2091 
 340   0.0000       0.376374        10.2417 
 341   0.0000       0.377664        10.2767 
 342   0.0000       0.383691        10.4408 
 343   0.0000       0.383877        10.4458 
 344   0.0000       0.384878        10.4731 
 345   0.0000       0.387639        10.5482 
 346   0.0000       0.387756        10.5514 
 347   0.0000       0.389535        10.5998 
 348   0.0000       0.389940        10.6108 
 349   0.0000       0.391161        10.6440 
 350   0.0000       0.391366        10.6496 
 351   0.0000       0.392735        10.6869 
 352   0.0000       0.393541        10.7088 
 353   0.0000       0.395271        10.7559 
 354   0.0000       0.398427        10.8418 
 355   0.0000       0.398947        10.8559 
 356   0.0000       0.399384        10.8678 
 357   0.0000       0.403861        10.9896 
 358   0.0000       0.404792        11.0150 
 359   0.0000       0.405717        11.0401 
 360   0.0000       0.406225        11.0540 
 361   0.0000       0.406675        11.0662 
 362   0.0000       0.410912        11.1815 
 363   0.0000       0.415058        11.2943 
 364   0.0000       0.416632        11.3371 
 365   0.0000       0.418309        11.3828 
 366   0.0000       0.422290        11.4911 
 367   0.0000       0.422650        11.5009 
 368   0.0000       0.425971        11.5912 
 369   0.0000       0.428056        11.6480 
 370   0.0000       0.429198        11.6791 
 371   0.0000       0.432406        11.7664 
 372   0.0000       0.434110        11.8127 
 373   0.0000       0.435050        11.8383 
 374   0.0000       0.435560        11.8522 
 375   0.0000       0.436254        11.8711 
 376   0.0000       0.437340        11.9006 
 377   0.0000       0.438708        11.9378 
 378   0.0000       0.439481        11.9589 
 379   0.0000       0.442273        12.0349 
 380   0.0000       0.444142        12.0857 
 381   0.0000       0.444496        12.0954 
 382   0.0000       0.445052        12.1105 
 383   0.0000       0.445418        12.1204 
 384   0.0000       0.445864        12.1326 
 385   0.0000       0.448275        12.1982 
 386   0.0000       0.449289        12.2258 
 387   0.0000       0.450296        12.2532 
 388   0.0000       0.451002        12.2724 
 389   0.0000       0.451788        12.2938 
 390   0.0000       0.456927        12.4336 
 391   0.0000       0.458512        12.4767 
 392   0.0000       0.458525        12.4771 
 393   0.0000       0.459632        12.5072 
 394   0.0000       0.461189        12.5496 
 395   0.0000       0.466067        12.6823 
 396   0.0000       0.466509        12.6943 
 397   0.0000       0.467040        12.7088 
 398   0.0000       0.470931        12.8147 
 399   0.0000       0.472111        12.8468 
 400   0.0000       0.474161        12.9026 
 401   0.0000       0.474513        12.9121 
 402   0.0000       0.475504        12.9391 
 403   0.0000       0.476735        12.9726 
 404   0.0000       0.477250        12.9866 
 405   0.0000       0.477524        12.9941 
 406   0.0000       0.481600        13.1050 
 407   0.0000       0.481700        13.1077 
 408   0.0000       0.482355        13.1255 
 409   0.0000       0.485517        13.2116 
 410   0.0000       0.486044        13.2259 
 411   0.0000       0.491097        13.3634 
 412   0.0000       0.492229        13.3942 
 413   0.0000       0.492308        13.3964 
 414   0.0000       0.496374        13.5070 
 415   0.0000       0.498805        13.5732 
 416   0.0000       0.502851        13.6833 
 417   0.0000       0.503901        13.7118 
 418   0.0000       0.504793        13.7361 
 419   0.0000       0.507228        13.8024 
 420   0.0000       0.510814        13.9000 
[...]
   182a -> 191a  :     0.016884 (c=  0.12993810)
   182a -> 196a  :     0.013381 (c= -0.11567558)
   182a -> 198a  :     0.704937 (c= -0.83960501)
   182a -> 201a  :     0.055614 (c=  0.23582581)

STATE 42:  E=   0.190639 au      5.188 eV    41840.3 cm**-1
   174a -> 184a  :     0.738109 (c= -0.85913291)
   176a -> 183a  :     0.011953 (c= -0.10933021)
   177a -> 184a  :     0.041935 (c= -0.20478087)
   181a -> 187a  :     0.084375 (c= -0.29047439)
   182a -> 194a  :     0.013970 (c= -0.11819646)
   182a -> 202a  :     0.013105 (c=  0.11447711)
   182a -> 212a  :     0.015761 (c=  0.12554246)

STATE 43:  E=   0.190771 au      5.191 eV    41869.3 cm**-1
   180a -> 193a  :     0.025296 (c= -0.15904560)
   181a -> 191a  :     0.322068 (c=  0.56751026)
   181a -> 192a  :     0.177264 (c=  0.42102720)
   181a -> 198a  :     0.013744 (c=  0.11723404)
   182a -> 189a  :     0.025934 (c=  0.16103890)
   182a -> 193a  :     0.027214 (c=  0.16496702)
   182a -> 200a  :     0.365101 (c=  0.60423610)

STATE 44:  E=   0.191041 au      5.198 eV    41928.6 cm**-1
   180a -> 193a  :     0.011451 (c= -0.10701004)
   181a -> 191a  :     0.016556 (c= -0.12867174)
   181a -> 192a  :     0.669597 (c=  0.81828930)
   181a -> 198a  :     0.020166 (c= -0.14200851)
   182a -> 193a  :     0.028864 (c=  0.16989494)
   182a -> 200a  :     0.197990 (c= -0.44496023)

STATE 45:  E=   0.192759 au      5.245 eV    42305.8 cm**-1
   180a -> 191a  :     0.018260 (c= -0.13513115)
   180a -> 192a  :     0.013169 (c= -0.11475540)
   181a -> 190a  :     0.028109 (c=  0.16765861)
   181a -> 193a  :     0.569429 (c=  0.75460540)
   182a -> 191a  :     0.025934 (c=  0.16104097)
   182a -> 198a  :     0.030741 (c=  0.17532977)
   182a -> 201a  :     0.251278 (c= -0.50127682)
   182a -> 203a  :     0.012279 (c=  0.11080979)

STATE 46:  E=   0.192953 au      5.251 eV    42348.4 cm**-1
   172a -> 183a  :     0.183769 (c=  0.42868297)
   173a -> 184a  :     0.290449 (c= -0.53893294)
   174a -> 183a  :     0.016369 (c=  0.12793990)
   175a -> 184a  :     0.126918 (c= -0.35625583)
   178a -> 184a  :     0.038354 (c= -0.19584107)
   179a -> 185a  :     0.025655 (c= -0.16017279)
   180a -> 185a  :     0.011035 (c=  0.10504901)
   182a -> 199a  :     0.227371 (c=  0.47683433)
   182a -> 205a  :     0.030525 (c=  0.17471353)

STATE 47:  E=   0.193225 au      5.258 eV    42407.9 cm**-1
   172a -> 183a  :     0.414639 (c= -0.64392476)
   173a -> 184a  :     0.037118 (c=  0.19266110)
   174a -> 185a  :     0.010238 (c= -0.10118106)
   175a -> 184a  :     0.030774 (c= -0.17542614)
   178a -> 184a  :     0.017513 (c= -0.13233676)
   180a -> 185a  :     0.012026 (c= -0.10966215)
   181a -> 194a  :     0.020971 (c= -0.14481294)
   182a -> 187a  :     0.021763 (c= -0.14752247)
   182a -> 199a  :     0.355323 (c=  0.59608978)

STATE 48:  E=   0.197076 au      5.363 eV    43253.2 cm**-1
   171a -> 183a  :     0.020194 (c= -0.14210595)
   180a -> 186a  :     0.884619 (c=  0.94054177)
   182a -> 202a  :     0.031391 (c= -0.17717546)

STATE 49:  E=   0.198340 au      5.397 eV    43530.5 cm**-1
   174a -> 184a  :     0.010162 (c=  0.10080692)
   177a -> 184a  :     0.016257 (c= -0.12750162)
   178a -> 185a  :     0.041763 (c= -0.20435942)
   179a -> 184a  :     0.017303 (c= -0.13154240)
   180a -> 186a  :     0.011853 (c=  0.10887010)
   181a -> 190a  :     0.038095 (c= -0.19517921)
   181a -> 204a  :     0.020940 (c=  0.14470777)
   182a -> 202a  :     0.381232 (c=  0.61743967)
   182a -> 203a  :     0.252590 (c=  0.50258356)
   182a -> 206a  :     0.107496 (c=  0.32786550)
   182a -> 209a  :     0.020933 (c=  0.14468184)

STATE 50:  E=   0.198539 au      5.403 eV    43574.3 cm**-1
   172a -> 183a  :     0.030239 (c= -0.17389413)
   173a -> 184a  :     0.312333 (c= -0.55886765)
   178a -> 184a  :     0.019930 (c=  0.14117391)
   178a -> 186a  :     0.016970 (c=  0.13026767)
   179a -> 185a  :     0.302843 (c=  0.55031190)
   180a -> 185a  :     0.016537 (c= -0.12859469)
   181a -> 186a  :     0.016651 (c= -0.12904029)
   181a -> 194a  :     0.127191 (c= -0.35663805)
   182a -> 187a  :     0.017237 (c= -0.13128989)
   182a -> 205a  :     0.041834 (c= -0.20453478)
   182a -> 213a  :     0.011137 (c=  0.10553173)


-----------------------------
TD-DFT/TDA-EXCITATION SPECTRA
-----------------------------

Center of mass = ( 10.6972,-12.9696,  0.0177)
Calculating the Dipole integrals                  ... done
Transforming integrals                            ... done
Calculating the Linear Momentum integrals         ... done
Transforming integrals                            ... done
Calculating angular momentum integrals            ... done
Transforming integrals                            ... done

-----------------------------------------------------------------------------
         ABSORPTION SPECTRUM VIA TRANSITION ELECTRIC DIPOLE MOMENTS
-----------------------------------------------------------------------------
State   Energy    Wavelength  fosc         T2        TX        TY        TZ  
        (cm-1)      (nm)                 (au**2)    (au)      (au)      (au) 
-----------------------------------------------------------------------------
   1   18951.1    527.7   2.845209299  49.42586  -4.34944   5.52337   0.02427
   2   22048.7    453.5   0.000000285   0.00000  -0.00062   0.00108   0.00165
   3   26516.5    377.1   0.000093952   0.00117  -0.00122  -0.00171   0.03409
   4   27343.7    365.7   0.006213501   0.07481   0.16537  -0.21785  -0.00095
   5   28364.8    352.6   0.274563125   3.18668  -1.18483   1.33522   0.00649
   6   31036.2    322.2   0.000000729   0.00001   0.00007   0.00033  -0.00276
   7   32613.1    306.6   0.114041447   1.15119   0.84783  -0.65754  -0.00434
   8   33211.3    301.1   0.000003938   0.00004  -0.00028   0.00093  -0.00617
   9   33746.6    296.3   0.007845874   0.07654   0.09603  -0.25946  -0.00019
  10   34188.8    292.5   0.000083740   0.00081  -0.00042   0.00238   0.02829
  11   34215.7    292.3   0.000145352   0.00140  -0.01678   0.03338  -0.00170
  12   34463.9    290.2   0.000004261   0.00004  -0.00106  -0.00111   0.00619
  13   34908.4    286.5   0.054482229   0.51381  -0.22436  -0.68079   0.00078
  14   34992.6    285.8   0.000004032   0.00004   0.00130   0.00571  -0.00189
  15   35215.1    284.0   0.000488534   0.00457  -0.00063  -0.00174  -0.06756
  16   35321.1    283.1   0.000001287   0.00001   0.00237   0.00242   0.00073
  17   35505.3    281.6   0.000528950   0.00490   0.00027  -0.00359   0.06994
  18   35690.3    280.2   0.000012128   0.00011   0.00293   0.00715  -0.00723
  19   35694.4    280.2   0.000839711   0.00774  -0.02587  -0.08411  -0.00057
  20   35765.5    279.6   0.013567945   0.12489  -0.13605  -0.32616   0.00042
  21   36419.3    274.6   0.000001142   0.00001   0.00121   0.00272   0.00121
  22   36485.7    274.1   0.019867372   0.17926  -0.14904  -0.39630   0.00085
  23   37221.9    268.7   0.049067317   0.43398  -0.59872   0.27477   0.00301
  24   38114.4    262.4   0.000000148   0.00000  -0.00054   0.00078   0.00061
  25   38567.6    259.3   0.000011000   0.00009  -0.00076   0.00080   0.00963
  26   38699.1    258.4   0.000016922   0.00014   0.00975   0.00699  -0.00007
  27   39428.2    253.6   0.003871668   0.03233  -0.02695   0.17777   0.00065
  28   39429.7    253.6   0.048994323   0.40907  -0.09404   0.63263   0.00095
  29   39681.0    252.0   0.000125137   0.00104  -0.00014   0.00061  -0.03221
  30   40090.5    249.4   0.052262020   0.42916   0.56145  -0.33753  -0.00279
  31   40216.3    248.7   0.000002565   0.00002   0.00303   0.00343   0.00006
  32   40361.0    247.8   0.000005496   0.00004   0.00125  -0.00097   0.00651
  33   40744.1    245.4   0.005256422   0.04247   0.13166  -0.15855  -0.00053
  34   40836.3    244.9   0.000092259   0.00074   0.00087  -0.00029   0.02726
  35   40869.1    244.7   0.016255868   0.13095   0.33172  -0.14458  -0.00171
  36   41045.9    243.6   0.000057896   0.00046   0.01242  -0.01343  -0.01139
  37   41046.4    243.6   0.000164591   0.00132  -0.00295   0.00361  -0.03603
  38   41167.7    242.9   0.000695756   0.00556  -0.00087  -0.00052   0.07458
  39   41491.6    241.0   0.000018797   0.00015  -0.01204   0.00206   0.00020
  40   41548.2    240.7   0.000000043   0.00000   0.00055  -0.00015   0.00010
  41   41715.9    239.7   0.000273373   0.00216   0.00089   0.00083  -0.04643
  42   41840.3    239.0   0.000001173   0.00001   0.00051  -0.00116  -0.00276
  43   41869.3    238.8   0.000039510   0.00031   0.01684   0.00521   0.00005
  44   41928.6    238.5   0.000013183   0.00010   0.00943  -0.00383   0.00003
  45   42305.8    236.4   0.000121551   0.00095   0.01085   0.00592  -0.02816
  46   42348.4    236.1   0.042236512   0.32834  -0.51968  -0.24139   0.00180
  47   42407.9    235.8   0.020764657   0.16120  -0.26291  -0.30343   0.00098
  48   43253.2    231.2   0.000000262   0.00000  -0.00035   0.00034  -0.00132
  49   43530.5    229.7   0.000048252   0.00036  -0.01284   0.00463   0.01337
  50   43574.3    229.5   0.119659317   0.90405   0.89051  -0.33321  -0.00294

-----------------------------------------------------------------------------
         ABSORPTION SPECTRUM VIA TRANSITION VELOCITY DIPOLE MOMENTS
-----------------------------------------------------------------------------
State   Energy    Wavelength   fosc        P2         PX        PY        PZ  
        (cm-1)      (nm)                 (au**2)     (au)      (au)      (au) 
-----------------------------------------------------------------------------
   1   18951.1    527.7   0.722624243   0.09360   0.18166  -0.24616  -0.00103
   2   22048.7    453.5   0.000002844   0.00000   0.00005  -0.00005   0.00065
   3   26516.5    377.1   0.000015235   0.00000  -0.00001   0.00007   0.00166
   4   27343.7    365.7   0.004193620   0.00078  -0.01798   0.02145   0.00010
   5   28364.8    352.6   0.099351984   0.01926   0.08377  -0.11065  -0.00048
   6   31036.2    322.2   0.000000087   0.00000   0.00003  -0.00003  -0.00013
   7   32613.1    306.6   0.005303568   0.00118  -0.02667   0.02169   0.00010
   8   33211.3    301.1   0.000000156   0.00000   0.00006  -0.00003  -0.00017
   9   33746.6    296.3   0.003915559   0.00090  -0.02835   0.00998   0.00022
  10   34188.8    292.5   0.000027603   0.00001   0.00014  -0.00039   0.00251
  11   34215.7    292.3   0.000179443   0.00004   0.00108  -0.00639  -0.00013
  12   34463.9    290.2   0.000002884   0.00000  -0.00020  -0.00013   0.00079
  13   34908.4    286.5   0.034413336   0.00821  -0.08341  -0.03539   0.00045
  14   34992.6    285.8   0.000009156   0.00000   0.00057   0.00017   0.00135
  15   35215.1    284.0   0.001967784   0.00047  -0.00029  -0.00003  -0.02176
  16   35321.1    283.1   0.000016694   0.00000   0.00121   0.00158   0.00023
  17   35505.3    281.6   0.000422412   0.00010  -0.00031  -0.00003   0.01012
  18   35690.3    280.2   0.000001228   0.00000   0.00052   0.00016  -0.00003
  19   35694.4    280.2   0.000096590   0.00002  -0.00482  -0.00053   0.00007
  20   35765.5    279.6   0.002587503   0.00063  -0.02299  -0.01018   0.00009
  21   36419.3    274.6   0.000002348   0.00000   0.00068   0.00032   0.00014
  22   36485.7    274.1   0.027358044   0.00682  -0.07837  -0.02609   0.00041
  23   37221.9    268.7   0.005266446   0.00134  -0.00591  -0.03612   0.00005
  24   38114.4    262.4   0.000000448   0.00000   0.00005  -0.00010  -0.00032
  25   38567.6    259.3   0.000002408   0.00000   0.00003  -0.00008   0.00079
  26   38699.1    258.4   0.000003020   0.00000  -0.00026  -0.00085  -0.00001
  27   39428.2    253.6   0.001078959   0.00029   0.01343  -0.01050  -0.00044
  28   39429.7    253.6   0.013606051   0.00367   0.04788  -0.03706  -0.00017
  29   39681.0    252.0   0.000129486   0.00004   0.00007  -0.00006   0.00593
  30   40090.5    249.4   0.014033826   0.00385  -0.03814   0.04889   0.00019
  31   40216.3    248.7   0.000000825   0.00000  -0.00017   0.00045  -0.00001
  32   40361.0    247.8   0.000005617   0.00000  -0.00014   0.00002  -0.00124
  33   40744.1    245.4   0.003918773   0.00109   0.00307   0.03289  -0.00007
  34   40836.3    244.9   0.000198754   0.00006  -0.00019  -0.00007  -0.00745
  35   40869.1    244.7   0.006774626   0.00189  -0.04064  -0.01552   0.00026
  36   41045.9    243.6   0.000050061   0.00001  -0.00103   0.00252   0.00258
  37   41046.4    243.6   0.000265472   0.00007   0.00031  -0.00074   0.00859
  38   41167.7    242.9   0.005086897   0.00143  -0.00031  -0.00012  -0.03783
  39   41491.6    241.0   0.000022967   0.00001  -0.00088  -0.00239  -0.00018
  40   41548.2    240.7   0.000339630   0.00010  -0.00003  -0.00003   0.00982
  41   41715.9    239.7   0.000004218   0.00000   0.00007   0.00012   0.00109
  42   41840.3    239.0   0.000011670   0.00000  -0.00004   0.00010   0.00182
  43   41869.3    238.8   0.000018690   0.00001   0.00067   0.00221   0.00001
  44   41928.6    238.5   0.000035785   0.00001   0.00026   0.00319  -0.00006
  45   42305.8    236.4   0.000197062   0.00006   0.00027   0.00092  -0.00749
  46   42348.4    236.1   0.003292651   0.00095  -0.00436  -0.03056  -0.00008
  47   42407.9    235.8   0.010816328   0.00313  -0.03356  -0.04482   0.00011
  48   43253.2    231.2   0.000000034   0.00000  -0.00000  -0.00002  -0.00010
  49   43530.5    229.7   0.000334577   0.00010   0.00034  -0.00069  -0.00995
  50   43574.3    229.5   0.012275800   0.00366  -0.03139   0.05167  -0.00069

-------------------------------------------------------------------
                             CD SPECTRUM
-------------------------------------------------------------------
State  Energy     Wavelength     R         MX        MY        MZ   
       (cm-1)       (nm)     (1e40*cgs)   (au)      (au)      (au)  
-------------------------------------------------------------------
   1   18951.1    527.7     14.96349  -0.02943  -0.01743  -0.00084
   2   22048.7    453.5      0.03877   0.00022  -0.00005   0.05003
   3   26516.5    377.1     -1.52698  -0.00032  -0.00002  -0.09503
   4   27343.7    365.7     -0.03279  -0.00031   0.00008   0.00027
   5   28364.8    352.6      1.60399  -0.00764  -0.00423  -0.00032
   6   31036.2    322.2     -0.05193   0.00014  -0.00001   0.03991
   7   32613.1    306.6     -0.89129  -0.00793  -0.00735  -0.00006
   8   33211.3    301.1     -0.45828   0.00082   0.00001   0.15746
   9   33746.6    296.3     -0.80909   0.01327   0.01153   0.00035
  10   34188.8    292.5     -0.26755   0.00311   0.00322  -0.02028
  11   34215.7    292.3      0.40082   0.05055   0.05099   0.00223
  12   34463.9    290.2     -0.91469  -0.00142   0.00025  -0.31349
  13   34908.4    286.5      0.72407  -0.00116  -0.00187   0.00033
  14   34992.6    285.8      0.07246  -0.00049   0.00012  -0.08114
  15   35215.1    284.0      0.57449  -0.00043  -0.00036  -0.01802
  16   35321.1    283.1     -0.18658  -0.08351  -0.08197   0.00050
  17   35505.3    281.6     -0.17483   0.00031   0.00028  -0.00529
  18   35690.3    280.2      0.10202  -0.01250  -0.00672  -0.04165
  19   35694.4    280.2     -4.27657   0.12578   0.06919  -0.00440
  20   35765.5    279.6      4.41760  -0.02596  -0.01790   0.00101
  21   36419.3    274.6     -0.20902  -0.00190   0.00016  -0.36474
  22   36485.7    274.1      0.26948  -0.00016  -0.00139  -0.00352
  23   37221.9    268.7     -0.32034   0.00137   0.00050   0.00020
  24   38114.4    262.4      0.07247   0.00144  -0.00043   0.25406
  25   38567.6    259.3     -0.66744  -0.00076  -0.00015  -0.14711
  26   38699.1    258.4     -0.14888   0.04029  -0.10139  -0.00053
  27   39428.2    253.6      0.06218  -0.00155  -0.00013   0.17550
  28   39429.7    253.6      0.11448  -0.00913  -0.00090  -0.04897
  29   39681.0    252.0     -0.43126   0.00039  -0.00000   0.02839
  30   40090.5    249.4     -1.46203  -0.00585  -0.00054  -0.00013
  31   40216.3    248.7      0.18663   0.12023   0.00908   0.00030
  32   40361.0    247.8      0.62935   0.00077  -0.00018   0.20503
  33   40744.1    245.4      0.01494   0.00087   0.00052   0.00034
  34   40836.3    244.9     -2.71070  -0.00217  -0.00066  -0.21088
  35   40869.1    244.7     -0.06591  -0.00150  -0.00249   0.00066
  36   41045.9    243.6      0.18546  -0.08987  -0.05617  -0.06636
  37   41046.4    243.6      3.62798   0.02751   0.01813  -0.21400
  38   41167.7    242.9     -0.12794   0.00045   0.00044  -0.00363
  39   41491.6    241.0      0.57151  -0.11095  -0.05987   0.00070
  40   41548.2    240.7     -0.00017  -0.00105  -0.00041   0.00162
  41   41715.9    239.7     -0.13176   0.00021   0.00019   0.00603
  42   41840.3    239.0     -0.19523  -0.00008  -0.00087   0.15034
  43   41869.3    238.8      0.46747   0.04417   0.04753   0.00266
  44   41928.6    238.5      0.27980   0.09412   0.07667  -0.00090
  45   42305.8    236.4     -0.09459   0.00024   0.00014   0.00725
  46   42348.4    236.1      0.52708  -0.00284   0.00149   0.00004
  47   42407.9    235.8     -1.06096   0.00325   0.00460  -0.00018
  48   43253.2    231.2      0.14752  -0.00122   0.00020  -0.23597
  49   43530.5    229.7      0.77435  -0.00051  -0.00086   0.12266
  50   43574.3    229.5      7.28865   0.02171   0.01162   0.00045

Total run time:    94278.265 sec

           *** ORCA-CIS/TD-DFT FINISHED WITHOUT ERROR ***

-----------------------
CIS/TD-DFT TOTAL ENERGY
-----------------------

    E(SCF)  =  -3861.828179118 Eh
    DE(CIS) =      0.086347786 Eh (Root  1)
    ----------------------------- ---------
    E(tot)  =  -3861.741831332 Eh


-------------------------   --------------------
FINAL SINGLE POINT ENERGY     -3861.741831332381
-------------------------   --------------------


                            ***************************************
                            *     ORCA property calculations      *
                            ***************************************

                                    ---------------------
                                    Active property flags
                                    ---------------------
   (+) Dipole Moment


------------------------------------------------------------------------------
                       ORCA ELECTRIC PROPERTIES CALCULATION
------------------------------------------------------------------------------

Dipole Moment Calculation                       ... on
Quadrupole Moment Calculation                   ... off
Polarizability Calculation                      ... off
GBWName                                         ... P3HT_olig.gbw
Electron density file                           ... P3HT_olig.scfp
The origin for moment calculation is the CENTER OF MASS  = (10.697194, -12.969617  0.017693)

-------------
DIPOLE MOMENT
-------------
                                X             Y             Z
Electronic contribution:      0.00529      -0.01228       1.76864
Nuclear contribution   :     -0.00435       0.01218      -1.83873
                        -----------------------------------------
Total Dipole Moment    :      0.00094      -0.00010      -0.07009
                        -----------------------------------------
Magnitude (a.u.)       :      0.07009
Magnitude (Debye)      :      0.17816



--------------------
Rotational spectrum 
--------------------
 
Rotational constants in cm-1:     0.006266     0.000502     0.000465 
Rotational constants in MHz :   187.841884    15.036031    13.939437 

 Dipole components along the rotational axes: 
x,y,z [a.u.] :    -0.000892     0.000948    -0.070080 
x,y,z [Debye]:    -0.002267     0.002410    -0.178130 

 

Timings for individual modules:

Sum of individual times         ...   102142.667 sec (=1702.378 min)
GTO integral calculation        ...        3.650 sec (=   0.061 min)   0.0 %
SCF iterations                  ...     7859.264 sec (= 130.988 min)   7.7 %
CIS module                      ...    94279.753 sec (=1571.329 min)  92.3 %
                             ****ORCA TERMINATED NORMALLY****
TOTAL RUN TIME: 1 days 4 hours 22 minutes 23 seconds 460 msec
