
                                 *****************
                                 * O   R   C   A *
                                 *****************

           --- An Ab Initio, DFT and Semiempirical electronic structure package ---

                  #######################################################
                  #                        -***-                        #
                  #          Department of theory and spectroscopy      #
                  #               Directorship: Frank Neese             #
                  #        Max Planck Institute fuer Kohlenforschung    #
                  #                Kaiser Wilhelm Platz 1               #
                  #                 D-45470 Muelheim/Ruhr               #
                  #                      Germany                        #
                  #                                                     #
                  #                  All rights reserved                #
                  #                        -***-                        #
                  #######################################################


                         Program Version 4.2.0 -  RELEASE  -


 With contributions from (in alphabetic order):
   Daniel Aravena         : Magnetic Suceptibility
   Michael Atanasov       : Ab Initio Ligand Field Theory (pilot matlab implementation)
   Alexander A. Auer      : GIAO ZORA, VPT2
   Ute Becker             : Parallelization
   Giovanni Bistoni       : ED, misc. LED, open-shell LED, HFLED
   Martin Brehm           : Molecular dynamics
   Dmytro Bykov           : SCF Hessian
   Vijay G. Chilkuri      : MRCI spin determinant printing, contributions to CSF-ICE
   Dipayan Datta          : RHF DLPNO-CCSD density
   Achintya Kumar Dutta   : EOM-CC, STEOM-CC
   Dmitry Ganyushin       : Spin-Orbit,Spin-Spin,Magnetic field MRCI
   Miquel Garcia          : C-PCM Hessian, Gaussian charge scheme
   Yang Guo               : DLPNO-NEVPT2, CIM, IAO-localization
   Andreas Hansen         : Spin unrestricted coupled pair/coupled cluster methods
   Benjamin Helmich-Paris : CASSCF linear response (MC-RPA)
   Lee Huntington         : MR-EOM, pCC
   Robert Izsak           : Overlap fitted RIJCOSX, COSX-SCS-MP3, EOM
   Christian Kollmar      : KDIIS, OOCD, Brueckner-CCSD(T), CCSD density
   Simone Kossmann        : Meta GGA functionals, TD-DFT gradient, OOMP2, MP2 Hessian
   Martin Krupicka        : AUTO-CI
   Lucas Lang             : DCDCAS
   Dagmar Lenk            : GEPOL surface, SMD
   Dimitrios Liakos       : Extrapolation schemes; Compound Job, initial MDCI parallelization
   Dimitrios Manganas     : Further ROCIS development; embedding schemes
   Dimitrios Pantazis     : SARC Basis sets
   Taras Petrenko         : DFT Hessian,TD-DFT gradient, ASA, ECA, R-Raman, ABS, FL, XAS/XES, NRVS
   Peter Pinski           : DLPNO-MP2, DLPNO-MP2 Gradient
   Christoph Reimann      : Effective Core Potentials
   Marius Retegan         : Local ZFS, SOC
   Christoph Riplinger    : Optimizer, TS searches, QM/MM, DLPNO-CCSD(T), (RO)-DLPNO pert. Triples
   Tobias Risthaus        : Range-separated hybrids, TD-DFT gradient, RPA, STAB
   Michael Roemelt        : Original ROCIS implementation
   Masaaki Saitow         : Open-shell DLPNO-CCSD energy and density
   Barbara Sandhoefer     : DKH picture change effects
   Avijit Sen             : IP-ROCIS
   Kantharuban Sivalingam : CASSCF convergence, NEVPT2, FIC-MRCI
   Bernardo de Souza      : ESD, SOC TD-DFT
   Georgi Stoychev        : AutoAux, RI-MP2 NMR
   Willem Van den Heuvel  : Paramagnetic NMR
   Boris Wezisla          : Elementary symmetry handling
   Frank Wennmohs         : Technical directorship


 We gratefully acknowledge several colleagues who have allowed us to
 interface, adapt or use parts of their codes:
   Stefan Grimme, W. Hujo, H. Kruse,             : VdW corrections, initial TS optimization,
                  C. Bannwarth                     DFT functionals, gCP, sTDA/sTD-DF
   Ed Valeev, F. Pavosevic, A. Kumar             : LibInt (2-el integral package), F12 methods
   Garnet Chan, S. Sharma, J. Yang, R. Olivares  : DMRG
   Ulf Ekstrom                                   : XCFun DFT Library
   Mihaly Kallay                                 : mrcc  (arbitrary order and MRCC methods)
   Andreas Klamt, Michael Diedenhofen            : otool_cosmo (COSMO solvation model)
   Jiri Pittner, Ondrej Demel                    : Mk-CCSD
   Frank Weinhold                                : gennbo (NPA and NBO analysis)
   Christopher J. Cramer and Donald G. Truhlar   : smd solvation model
   Lars Goerigk                                  : TD-DFT with DH, B97 family of functionals
   V. Asgeirsson, H. Jonsson                     : NEB implementation
   FAccTs GmbH                                   : IRC, NEB, NEB-TS, Multilevel, MM, QM/MM, CI optimization
   S Lehtola, MJT Oliveira, MAL Marques          : LibXC Library


 Your calculation uses the libint2 library for the computation of 2-el integrals
 For citations please refer to: http://libint.valeyev.net

 Your ORCA version has been built with support for libXC version: 4.2.3
 For citations please refer to: https://tddft.org/programs/libxc/

 This ORCA versions uses:
   CBLAS   interface :  Fast vector & matrix operations
   LAPACKE interface :  Fast linear algebra routines
   SCALAPACK package :  Parallel linear algebra routines


----- Orbital basis set information -----
Your calculation utilizes the basis: def2-TZVP
   F. Weigend and R. Ahlrichs, Phys. Chem. Chem. Phys. 7, 3297 (2005).

----- AuxJ basis set information -----
Your calculation utilizes the auxiliary basis: def2/J
   F. Weigend, Phys. Chem. Chem. Phys. 8, 1057 (2006).

================================================================================
                                        WARNINGS
                       Please study these warnings very carefully!
================================================================================

INFO   : Checking CIS options ...

WARNING: CIS/ROCIS methods need fully converged wavefunctions
  ===> : Setting SCFConvForced true
         You can overwrite this default with %scf ConvForced false 


INFO   : the flag for use of LIBINT has been found!

================================================================================
                                       INPUT FILE
================================================================================
NAME = PBDB-T-2Cl_dimer.inp
|  1> # ORCA input file
|  2> # PBDB-T-2Cl_dimer.out
|  3> ! B3LYP def2-TZVP def2/J RIJCOSX Grid4 TightSCF
|  4> %maxcore 1000
|  5> %tddft
|  6>   maxdim 5
|  7>   nroots 50
|  8>   end
|  9> * xyz 0 1
| 10>    C        0.74401         1.64156         0.20500
| 11>    C        1.67424         0.58844         0.21862
| 12>    C        1.22474        -0.75228         0.24337
| 13>    C       -0.11965        -1.11402         0.24168
| 14>    C       -1.05272        -0.05837         0.24828
| 15>    C       -0.60114         1.28357         0.23311
| 16>    C        3.09751         0.66535         0.21268
| 17>    C        3.71174        -0.53753         0.20285
| 18>    S        2.57024        -1.86040         0.21675
| 19>    C       -2.46708        -0.13814         0.27223
| 20>    C       -3.08679         1.07797         0.23752
| 21>    S       -1.93814         2.39813         0.19613
| 22>    C        1.13312         3.03735         0.14098
| 23>    C       -0.51489        -2.50755         0.20084
| 24>    C        0.56726         4.09146         0.79915
| 25>    C        1.15588         5.32739         0.45671
| 26>    C        2.15201         5.24222        -0.47146
| 27>    S        2.39680         3.59084        -0.92302
| 28>    C        0.06654        -3.56372         0.84286
| 29>    C       -0.54072        -4.79706         0.52514
| 30>    C       -1.56762        -4.70952        -0.36889
| 31>    S       -1.81729        -3.05854        -0.81874
| 32>    C        3.00312         6.33151        -1.02425
| 33>    C        4.28562         6.49712        -0.20527
| 34>    C       -2.44871        -5.79212        -0.88651
| 35>    C       -3.73718        -5.89069        -0.06603
| 36>    C        5.16769        -0.82740         0.19226
| 37>    C       -4.48682         1.34430         0.23852
| 38>    C       -5.52561         0.44604         0.36556
| 39>    C       -6.78637         1.03734         0.30848
| 40>    C       -6.74975         2.40475         0.13371
| 41>    S       -5.09191         2.95578         0.04469
| 42>    C       -7.77817         3.39159         0.05763
| 43>    S       -7.23455         5.04592         0.09555
| 44>    C       -8.85171         5.66732         0.02607
| 45>    C       -9.77444         4.63529         0.00702
| 46>    C       -9.16696         3.33601        -0.00212
| 47>    C      -11.22452         4.84215         0.12111
| 48>    C      -11.99725         3.60639         0.18443
| 49>    C      -11.40690         2.31338         0.04673
| 50>    C       -9.96972         2.11399        -0.13959
| 51>    C      -13.35894         3.56361         0.36068
| 52>    S      -13.92166         1.92842         0.37472
| 53>    C      -12.32735         1.29884         0.13030
| 54>    C       -9.00331         7.09032        -0.01401
| 55>    C       -9.93422         7.87349        -0.64655
| 56>    C       -9.68463         9.24932        -0.50366
| 57>    S       -7.78770         8.08245         0.75485
| 58>    O      -11.75174         5.94210         0.19469
| 59>    O       -9.50253         1.01660        -0.40602
| 60>    C      -14.28837         4.71065         0.52365
| 61>    C      -15.73253         4.29198         0.75583
| 62>    C      -12.12549        -0.16818         0.00718
| 63>    C      -12.09057        -0.58902        -1.46481
| 64>    C       -8.56816         9.51273         0.22743
| 65>   Cl        0.64385         6.81693         1.15171
| 66>   Cl       -0.01317        -6.28692         1.20823
| 67>    H        3.63824         1.59363         0.22083
| 68>    H       -3.00894        -1.06354         0.31507
| 69>    H       -0.21683         3.99827         1.52711
| 70>    H        0.87451        -3.47313         1.54444
| 71>    H        2.43480         7.26366        -1.00289
| 72>    H        3.26035         6.10363        -2.06045
| 73>    H        4.04416         6.73620         0.82756
| 74>    H        4.89154         7.30029        -0.61632
| 75>    H        4.86651         5.57763        -0.22265
| 76>    H       -1.90789        -6.73901        -0.83261
| 77>    H       -2.69835        -5.59219        -1.93045
| 78>    H       -3.50543        -6.10013         0.97550
| 79>    H       -4.36616        -6.68928        -0.45038
| 80>    H       -4.29019        -4.95553        -0.11814
| 81>    H        5.73355         0.10078         0.19041
| 82>    H        5.43386        -1.40662        -0.69143
| 83>    H        5.44719        -1.41251         1.06797
| 84>    H       -5.37390        -0.60948         0.49838
| 85>    H       -7.70247         0.48362         0.37683
| 86>    H      -10.76445         7.47314        -1.19541
| 87>    H      -10.31108        10.01310        -0.92816
| 88>    H      -14.21349         5.34166        -0.36793
| 89>    H      -13.92958         5.32761         1.35356
| 90>    H      -16.10183         3.70679        -0.08407
| 91>    H      -16.36340         5.16973         0.86849
| 92>    H      -15.81631         3.68846         1.65735
| 93>    H      -12.93368        -0.69198         0.52190
| 94>    H      -11.17180        -0.43419         0.46722
| 95>    H      -13.00689        -0.29146        -1.97037
| 96>    H      -11.98347        -1.66777        -1.53889
| 97>    H      -11.24342        -0.12092        -1.95857
| 98>    H       -8.15709        10.46584         0.49572
| 99> *
|100> 
|101>                          ****END OF INPUT****
================================================================================

                       ****************************
                       * Single Point Calculation *
                       ****************************

---------------------------------
CARTESIAN COORDINATES (ANGSTROEM)
---------------------------------
  C      0.744010    1.641560    0.205000
  C      1.674240    0.588440    0.218620
  C      1.224740   -0.752280    0.243370
  C     -0.119650   -1.114020    0.241680
  C     -1.052720   -0.058370    0.248280
  C     -0.601140    1.283570    0.233110
  C      3.097510    0.665350    0.212680
  C      3.711740   -0.537530    0.202850
  S      2.570240   -1.860400    0.216750
  C     -2.467080   -0.138140    0.272230
  C     -3.086790    1.077970    0.237520
  S     -1.938140    2.398130    0.196130
  C      1.133120    3.037350    0.140980
  C     -0.514890   -2.507550    0.200840
  C      0.567260    4.091460    0.799150
  C      1.155880    5.327390    0.456710
  C      2.152010    5.242220   -0.471460
  S      2.396800    3.590840   -0.923020
  C      0.066540   -3.563720    0.842860
  C     -0.540720   -4.797060    0.525140
  C     -1.567620   -4.709520   -0.368890
  S     -1.817290   -3.058540   -0.818740
  C      3.003120    6.331510   -1.024250
  C      4.285620    6.497120   -0.205270
  C     -2.448710   -5.792120   -0.886510
  C     -3.737180   -5.890690   -0.066030
  C      5.167690   -0.827400    0.192260
  C     -4.486820    1.344300    0.238520
  C     -5.525610    0.446040    0.365560
  C     -6.786370    1.037340    0.308480
  C     -6.749750    2.404750    0.133710
  S     -5.091910    2.955780    0.044690
  C     -7.778170    3.391590    0.057630
  S     -7.234550    5.045920    0.095550
  C     -8.851710    5.667320    0.026070
  C     -9.774440    4.635290    0.007020
  C     -9.166960    3.336010   -0.002120
  C    -11.224520    4.842150    0.121110
  C    -11.997250    3.606390    0.184430
  C    -11.406900    2.313380    0.046730
  C     -9.969720    2.113990   -0.139590
  C    -13.358940    3.563610    0.360680
  S    -13.921660    1.928420    0.374720
  C    -12.327350    1.298840    0.130300
  C     -9.003310    7.090320   -0.014010
  C     -9.934220    7.873490   -0.646550
  C     -9.684630    9.249320   -0.503660
  S     -7.787700    8.082450    0.754850
  O    -11.751740    5.942100    0.194690
  O     -9.502530    1.016600   -0.406020
  C    -14.288370    4.710650    0.523650
  C    -15.732530    4.291980    0.755830
  C    -12.125490   -0.168180    0.007180
  C    -12.090570   -0.589020   -1.464810
  C     -8.568160    9.512730    0.227430
  Cl     0.643850    6.816930    1.151710
  Cl    -0.013170   -6.286920    1.208230
  H      3.638240    1.593630    0.220830
  H     -3.008940   -1.063540    0.315070
  H     -0.216830    3.998270    1.527110
  H      0.874510   -3.473130    1.544440
  H      2.434800    7.263660   -1.002890
  H      3.260350    6.103630   -2.060450
  H      4.044160    6.736200    0.827560
  H      4.891540    7.300290   -0.616320
  H      4.866510    5.577630   -0.222650
  H     -1.907890   -6.739010   -0.832610
  H     -2.698350   -5.592190   -1.930450
  H     -3.505430   -6.100130    0.975500
  H     -4.366160   -6.689280   -0.450380
  H     -4.290190   -4.955530   -0.118140
  H      5.733550    0.100780    0.190410
  H      5.433860   -1.406620   -0.691430
  H      5.447190   -1.412510    1.067970
  H     -5.373900   -0.609480    0.498380
  H     -7.702470    0.483620    0.376830
  H    -10.764450    7.473140   -1.195410
  H    -10.311080   10.013100   -0.928160
  H    -14.213490    5.341660   -0.367930
  H    -13.929580    5.327610    1.353560
  H    -16.101830    3.706790   -0.084070
  H    -16.363400    5.169730    0.868490
  H    -15.816310    3.688460    1.657350
  H    -12.933680   -0.691980    0.521900
  H    -11.171800   -0.434190    0.467220
  H    -13.006890   -0.291460   -1.970370
  H    -11.983470   -1.667770   -1.538890
  H    -11.243420   -0.120920   -1.958570
  H     -8.157090   10.465840    0.495720

----------------------------
CARTESIAN COORDINATES (A.U.)
----------------------------
  NO LB      ZA    FRAG     MASS         X           Y           Z
   0 C     6.0000    0    12.011    1.405975    3.102099    0.387394
   1 C     6.0000    0    12.011    3.163855    1.111990    0.413132
   2 C     6.0000    0    12.011    2.314423   -1.421603    0.459903
   3 C     6.0000    0    12.011   -0.226106   -2.105193    0.456709
   4 C     6.0000    0    12.011   -1.989352   -0.110303    0.469181
   5 C     6.0000    0    12.011   -1.135990    2.425596    0.440514
   6 C     6.0000    0    12.011    5.853446    1.257329    0.401907
   7 C     6.0000    0    12.011    7.014172   -1.015784    0.383331
   8 S    16.0000    0    32.060    4.857050   -3.515646    0.409598
   9 C     6.0000    0    12.011   -4.662106   -0.261047    0.514440
  10 C     6.0000    0    12.011   -5.833188    2.037068    0.448848
  11 S    16.0000    0    32.060   -3.662554    4.531809    0.370632
  12 C     6.0000    0    12.011    2.141286    5.739760    0.266414
  13 C     6.0000    0    12.011   -0.973001   -4.738583    0.379533
  14 C     6.0000    0    12.011    1.071966    7.731739    1.510175
  15 C     6.0000    0    12.011    2.184297   10.067308    0.863057
  16 C     6.0000    0    12.011    4.066710    9.906360   -0.890930
  17 S    16.0000    0    32.060    4.529296    6.785704   -1.744255
  18 C     6.0000    0    12.011    0.125742   -6.734455    1.592775
  19 C     6.0000    0    12.011   -1.021813   -9.065130    0.992371
  20 C     6.0000    0    12.011   -2.962372   -8.899703   -0.697101
  21 S    16.0000    0    32.060   -3.434180   -5.779803   -1.547194
  22 C     6.0000    0    12.011    5.675074   11.964820   -1.935552
  23 C     6.0000    0    12.011    8.098648   12.277777   -0.387904
  24 C     6.0000    0    12.011   -4.627391  -10.945521   -1.675261
  25 C     6.0000    0    12.011   -7.062247  -11.131791   -0.124779
  26 C     6.0000    0    12.011    9.765519   -1.563559    0.363319
  27 C     6.0000    0    12.011   -8.478861    2.540359    0.450737
  28 C     6.0000    0    12.011  -10.441890    0.842893    0.690808
  29 C     6.0000    0    12.011  -12.824381    1.960289    0.582943
  30 C     6.0000    0    12.011  -12.755179    4.544319    0.252675
  31 S    16.0000    0    32.060   -9.622315    5.585615    0.084452
  32 C     6.0000    0    12.011  -14.698611    6.409176    0.108905
  33 S    16.0000    0    32.060  -13.671318    9.535407    0.180563
  34 C     6.0000    0    12.011  -16.727308   10.709683    0.049265
  35 C     6.0000    0    12.011  -18.471015    8.759429    0.013266
  36 C     6.0000    0    12.011  -17.323044    6.304145   -0.004006
  37 C     6.0000    0    12.011  -21.211269    9.150337    0.228865
  38 C     6.0000    0    12.011  -22.671517    6.815089    0.348522
  39 C     6.0000    0    12.011  -21.555917    4.371655    0.088307
  40 C     6.0000    0    12.011  -18.840040    3.994862   -0.263787
  41 C     6.0000    0    12.011  -25.244738    6.734247    0.681586
  42 S    16.0000    0    32.060  -26.308125    3.644186    0.708118
  43 C     6.0000    0    12.011  -23.295315    2.454452    0.246231
  44 C     6.0000    0    12.011  -17.013790   13.398763   -0.026475
  45 C     6.0000    0    12.011  -18.772955   14.878740   -1.221802
  46 C     6.0000    0    12.011  -18.301298   17.478682   -0.951779
  47 S    16.0000    0    32.060  -14.716620   15.273617    1.426460
  48 O     8.0000    0    15.999  -22.207570   11.228942    0.367911
  49 O     8.0000    0    15.999  -17.957179    1.921096   -0.767267
  50 C     6.0000    0    12.011  -27.001106    8.901838    0.989555
  51 C     6.0000    0    12.011  -29.730173    8.110667    1.428312
  52 C     6.0000    0    12.011  -22.913855   -0.317814    0.013568
  53 C     6.0000    0    12.011  -22.847866   -1.113086   -2.768090
  54 C     6.0000    0    12.011  -16.191476   17.976454    0.429780
  55 Cl   17.0000    0    35.453    1.216700   12.882131    2.176416
  56 Cl   17.0000    0    35.453   -0.024888  -11.880557    2.283224
  57 H     1.0000    0     1.008    6.875277    3.011524    0.417308
  58 H     1.0000    0     1.008   -5.686073   -2.009799    0.595396
  59 H     1.0000    0     1.008   -0.409749    7.555635    2.885820
  60 H     1.0000    0     1.008    1.652584   -6.563265    2.918569
  61 H     1.0000    0     1.008    4.601105   13.726328   -1.895187
  62 H     1.0000    0     1.008    6.161169   11.534189   -3.893686
  63 H     1.0000    0     1.008    7.642355   12.729573    1.563862
  64 H     1.0000    0     1.008    9.243671   13.795549   -1.164676
  65 H     1.0000    0     1.008    9.196371   10.540193   -0.420748
  66 H     1.0000    0     1.008   -3.605390  -12.734883   -1.573405
  67 H     1.0000    0     1.008   -5.099143  -10.567708   -3.648022
  68 H     1.0000    0     1.008   -6.624303  -11.527575    1.843428
  69 H     1.0000    0     1.008   -8.250847  -12.640907   -0.851095
  70 H     1.0000    0     1.008   -8.107284   -9.364595   -0.223252
  71 H     1.0000    0     1.008   10.834839    0.190447    0.359823
  72 H     1.0000    0     1.008   10.268507   -2.658127   -1.306613
  73 H     1.0000    0     1.008   10.293697   -2.669257    2.018171
  74 H     1.0000    0     1.008  -10.155199   -1.151750    0.941802
  75 H     1.0000    0     1.008  -14.555559    0.913909    0.712105
  76 H     1.0000    0     1.008  -20.341862   14.122188   -2.258998
  77 H     1.0000    0     1.008  -19.485117   18.922017   -1.753968
  78 H     1.0000    0     1.008  -26.859604   10.094275   -0.695287
  79 H     1.0000    0     1.008  -26.323091   10.067724    2.557858
  80 H     1.0000    0     1.008  -30.428049    7.004818   -0.158869
  81 H     1.0000    0     1.008  -30.922345    9.769374    1.641208
  82 H     1.0000    0     1.008  -29.888494    6.970179    3.131938
  83 H     1.0000    0     1.008  -24.441113   -1.307653    0.986248
  84 H     1.0000    0     1.008  -21.111642   -0.820500    0.882918
  85 H     1.0000    0     1.008  -24.579460   -0.550780   -3.723460
  86 H     1.0000    0     1.008  -22.645476   -3.151629   -2.908081
  87 H     1.0000    0     1.008  -21.246985   -0.228506   -3.701161
  88 H     1.0000    0     1.008  -15.414666   19.777571    0.936775

--------------------------------
INTERNAL COORDINATES (ANGSTROEM)
--------------------------------
 C      0   0   0     0.000000000000     0.00000000     0.00000000
 C      1   0   0     1.405195748535     0.00000000     0.00000000
 C      2   1   0     1.414281772102   120.01552752     0.00000000
 C      3   2   1     1.392208014558   123.58741425     0.68737985
 C      4   3   2     1.408921611517   116.41209182   358.41585235
 C      1   2   3     1.392255556534   116.53181114     0.73331087
 C      2   1   3     1.425358875722   128.35584938   180.09320395
 C      7   2   1     1.350664805272   113.95823985   181.24739978
 S      3   2   1     1.743275310672   110.91707227   178.61770608
 C      5   4   3     1.416810172535   128.24364865   181.23269041
 C     10   5   4     1.365345670627   113.73592729   181.59608359
 S      6   1   2     1.741028579317   125.23407483   181.10948709
 C      1   2   3     1.450425757011   122.95972592   181.81783908
 C      4   3   2     1.449071573146   120.88340227   176.90977640
 C     13   1   2     1.365479102953   127.62154524   219.05137569
 C     15  13   1     1.411120697495   112.72451857   182.86921537
 C     16  15  13     1.364195167379   114.52020440     1.00423491
 S     17  16  15     1.729417382271   109.91473072   359.02859701
 C     14   4   3     1.365922982529   127.89680875    39.04213181
 C     19  14   4     1.410970680631   112.75824261   182.94020899
 C     20  19  14     1.364359374395   114.54468551     1.00880740
 S     21  20  19     1.729287452045   109.90028830   359.06917333
 C     17  16  15     1.488797407406   128.63677873   181.95118721
 C     23  17  16     1.530673434309   111.06870624    91.30191190
 C     21  20  19     1.488715154924   128.80241457   182.21178323
 C     25  21  20     1.530705202252   111.01696528    94.21306114
 C      8   7   2     1.484562955048   128.31176413   179.88456010
 C     11  10   5     1.425137421374   127.75777944   179.48011927
 C     28  11  10     1.379164549030   128.19070959     4.82482683
 C     29  28  11     1.393703553127   113.65670337   180.77897005
 C     30  29  28     1.379019827776   113.69462560     0.11104567
 S     28  11  10     1.732215854736   121.12705613   185.66171175
 C     31  30  29     1.427336347327   132.31350868   181.87229991
 S     33  31  30     1.741771620994   115.50800138   170.08811302
 C     34  33  31     1.733831565060    92.77572736   181.62273699
 C     35  34  33     1.384514166161   110.79445541     1.39004982
 C     33  31  30     1.391185416470   133.94309934   352.45765556
 C     36  35  34     1.469196921485   123.48868286   171.97537693
 C     38  36  35     1.458843327057   114.01009862   184.64654221
 C     39  38  36     1.428057867385   122.94414895   355.53836055
 C     40  39  38     1.462859482965   122.80829762     1.43678279
 C     39  38  36     1.373715344240   123.84847469   176.56000373
 S     42  39  38     1.729363251633   110.67279335   179.65610411
 C     40  39  38     1.372407941904   112.71858285   180.45290303
 C     35  34  33     1.431613762996   117.13774078   181.98757036
 C     45  35  34     1.371151169128   130.73414758   145.96107263
 C     46  45  35     1.405567824440   113.05634779   183.72876168
 S     45  35  34     1.747333771379   118.58037181   330.65900127
 O     38  36  35     1.221992204271   123.86522828     2.73115685
 O     41  40  39     1.222095026215   121.71779180   188.42870050
 C     42  39  38     1.485294619730   127.61153804   359.66025973
 C     51  42  39     1.521443468191   113.46580143   182.39270248
 C     44  40  39     1.485952110399   129.32124651   178.43664772
 C     53  44  40     1.531365492657   110.73543725   277.54708096
 C     47  46  45     1.360287718499   112.94999817     0.27735526
 Cl    16  15  13     1.721606555662   122.39568528   180.61015119
 Cl    20  19  14     1.721802477115   122.35442795   180.61107082
 H      7   2   1     1.074317976113   123.31065408     1.57422558
 H     10   5   4     1.073225365522   123.58946461     1.68136908
 H     15  13   1     1.073968000361   124.21368020     4.97429054
 H     19  14   4     1.073888525593   124.20172369     5.14613963
 H     23  17  16     1.091946653688   108.64995344   330.84164488
 H     23  17  16     1.091699137721   109.53598143   212.32323937
 H     24  23  17     1.087290203626   110.24085779   300.40769411
 H     24  23  17     1.086822523598   110.16461929   180.44720330
 H     24  23  17     1.087748645874   110.33071832    60.40388998
 H     25  21  20     1.091783932150   108.68445503   333.65725767
 H     25  21  20     1.091834629465   109.54844717   215.11999696
 H     26  25  21     1.087362826751   110.26863413   300.41777679
 H     26  25  21     1.086778151694   110.17692031   180.43281027
 H     26  25  21     1.087685495812   110.29929284    60.42735227
 H     27   8   7     1.087069029317   110.10855209   359.83727681
 H     27   8   7     1.089610156616   110.43547550   239.42925992
 H     27   8   7     1.089652222592   110.52853519   120.37954947
 H     29  28  11     1.074606694051   123.01026092     0.92242562
 H     30  29  28     1.072621448089   123.43414184   179.12827793
 H     46  45  35     1.072757789531   123.25053620     3.55686060
 H     47  46  45     1.075174283965   123.48704490   180.27396011
 H     51  42  39     1.094849547152   108.23658214    59.55719243
 H     51  42  39     1.094586914685   108.26192405   305.46194496
 H     52  51  42     1.088237950129   110.62884671   299.89664234
 H     52  51  42     1.086800025304   110.15550772   179.93945603
 H     52  51  42     1.088114786776   110.61873558    59.98433824
 H     53  44  40     1.092004667801   109.50952445   156.36841164
 H     53  44  40     1.091752141193   108.92334391    36.84965118
 H     54  53  44     1.088014342553   110.62704443   302.52773159
 H     54  53  44     1.086581712942   109.91429261   182.31110936
 H     54  53  44     1.086544831151   109.64533563    62.93271816
 H     55  47  46     1.072089894132   128.41498368   180.71029429

---------------------------
INTERNAL COORDINATES (A.U.)
---------------------------
 C      0   0   0     0.000000000000     0.00000000     0.00000000
 C      1   0   0     2.655435129281     0.00000000     0.00000000
 C      2   1   0     2.672605225470   120.01552752     0.00000000
 C      3   2   1     2.630891868965   123.58741425     0.68737985
 C      4   3   2     2.662475989930   116.41209182   358.41585235
 C      1   2   3     2.630981710280   116.53181114     0.73331087
 C      2   1   3     2.693537917669   128.35584938   180.09320395
 C      7   2   1     2.552386580690   113.95823985   181.24739978
 S      3   2   1     3.294312913197   110.91707227   178.61770608
 C      5   4   3     2.677383209846   128.24364865   181.23269041
 C     10   5   4     2.580129395620   113.73592729   181.59608359
 S      6   1   2     3.290067206240   125.23407483   181.10948709
 C      1   2   3     2.740907458336   122.95972592   181.81783908
 C      4   3   2     2.738348421696   120.88340227   176.90977640
 C     13   1   2     2.580381546173   127.62154524   219.05137569
 C     15  13   1     2.666631660174   112.72451857   182.86921537
 C     16  15  13     2.577955259565   114.52020440     1.00423491
 S     17  16  15     3.268125223735   109.91473072   359.02859701
 C     14   4   3     2.581220357008   127.89680875    39.04213181
 C     19  14   4     2.666348169385   112.75824261   182.94020899
 C     20  19  14     2.578265565855   114.54468551     1.00880740
 S     21  20  19     3.267879691191   109.90028830   359.06917333
 C     17  16  15     2.813419368890   128.63677873   181.95118721
 C     23  17  16     2.892553591313   111.06870624    91.30191190
 C     21  20  19     2.813263934224   128.80241457   182.21178323
 C     25  21  20     2.892613624024   111.01696528    94.21306114
 C      8   7   2     2.805417413605   128.31176413   179.88456010
 C     11  10   5     2.693119429599   127.75777944   179.48011927
 C     28  11  10     2.606243291279   128.19070959     4.82482683
 C     29  28  11     2.633718027284   113.65670337   180.77897005
 C     30  29  28     2.605969807744   113.69462560     0.11104567
 S     28  11  10     3.273413570288   121.12705613   185.66171175
 C     31  30  29     2.697274797439   132.31350868   181.87229991
 S     33  31  30     3.291471351515   115.50800138   170.08811302
 C     34  33  31     3.276466820312    92.77572736   181.62273699
 C     35  34  33     2.616352602578   110.79445541     1.39004982
 C     33  31  30     2.628959438634   133.94309934   352.45765556
 C     36  35  34     2.776379818406   123.48868286   171.97537693
 C     38  36  35     2.756814360437   114.01009862   184.64654221
 C     39  38  36     2.698638272749   122.94414895   355.53836055
 C     40  39  38     2.764403795213   122.80829762     1.43678279
 C     39  38  36     2.595945786579   123.84847469   176.56000373
 S     42  39  38     3.268022931655   110.67279335   179.65610411
 C     40  39  38     2.593475154216   112.71858285   180.45290303
 C     35  34  33     2.705357941615   117.13774078   181.98757036
 C     45  35  34     2.591100197857   130.73414758   145.96107263
 C     46  45  35     2.656138250842   113.05634779   183.72876168
 S     45  35  34     3.301982292457   118.58037181   330.65900127
 O     38  36  35     2.309230603860   123.86522828     2.73115685
 O     41  40  39     2.309424909174   121.71779180   188.42870050
 C     42  39  38     2.806800059477   127.61153804   359.66025973
 C     51  42  39     2.875111483124   113.46580143   182.39270248
 C     44  40  39     2.808042536777   129.32124651   178.43664772
 C     53  44  40     2.893861392059   110.73543725   277.54708096
 C     47  46  45     2.570571251300   112.94999817     0.27735526
 Cl    16  15  13     3.253364900566   122.39568528   180.61015119
 Cl    20  19  14     3.253735138455   122.35442795   180.61107082
 H      7   2   1     2.030166755603   123.31065408     1.57422558
 H     10   5   4     2.028102020814   123.58946461     1.68136908
 H     15  13   1     2.029505397278   124.21368020     4.97429054
 H     19  14   4     2.029355211731   124.20172369     5.14613963
 H     23  17  16     2.063480128322   108.64995344   330.84164488
 H     23  17  16     2.063012390930   109.53598143   212.32323937
 H     24  23  17     2.054680712948   110.24085779   300.40769411
 H     24  23  17     2.053796925777   110.16461929   180.44720330
 H     24  23  17     2.055547043245   110.33071832    60.40388998
 H     25  21  20     2.063172629178   108.68445503   333.65725767
 H     25  21  20     2.063268433221   109.54844717   215.11999696
 H     26  25  21     2.054817950766   110.26863413   300.41777679
 H     26  25  21     2.053713075031   110.17692031   180.43281027
 H     26  25  21     2.055427706923   110.29929284    60.42735227
 H     27   8   7     2.054262754077   110.10855209   359.83727681
 H     27   8   7     2.059064788743   110.43547550   239.42925992
 H     27   8   7     2.059144281918   110.52853519   120.37954947
 H     29  28  11     2.030712353436   123.01026092     0.92242562
 H     30  29  28     2.026960782258   123.43414184   179.12827793
 H     46  45  35     2.027218430245   123.25053620     3.55686060
 H     47  46  45     2.031784942929   123.48704490   180.27396011
 H     51  42  39     2.068965801966   108.23658214    59.55719243
 H     51  42  39     2.068469498529   108.26192405   305.46194496
 H     52  51  42     2.056471694283   110.62884671   299.89664234
 H     52  51  42     2.053754410163   110.15550772   179.93945603
 H     52  51  42     2.056238949276   110.61873558    59.98433824
 H     53  44  40     2.063589759108   109.50952445   156.36841164
 H     53  44  40     2.063112552977   108.92334391    36.84965118
 H     54  53  44     2.056049137203   110.62704443   302.52773159
 H     54  53  44     2.053341859587   109.91429261   182.31110936
 H     54  53  44     2.053272163102   109.64533563    62.93271816
 H     55  47  46     2.025956290854   128.41498368   180.71029429

---------------------
BASIS SET INFORMATION
---------------------
There are 5 groups of distinct atoms

 Group   1 Type C   : 11s6p2d1f contracted to 5s3p2d1f pattern {62111/411/11/1}
 Group   2 Type S   : 14s9p3d1f contracted to 5s5p2d1f pattern {73211/51111/21/1}
 Group   3 Type O   : 11s6p2d1f contracted to 5s3p2d1f pattern {62111/411/11/1}
 Group   4 Type Cl  : 14s9p3d1f contracted to 5s5p2d1f pattern {73211/51111/21/1}
 Group   5 Type H   : 5s1p contracted to 3s1p pattern {311/1}

Atom   0C    basis set group =>   1
Atom   1C    basis set group =>   1
Atom   2C    basis set group =>   1
Atom   3C    basis set group =>   1
Atom   4C    basis set group =>   1
Atom   5C    basis set group =>   1
Atom   6C    basis set group =>   1
Atom   7C    basis set group =>   1
Atom   8S    basis set group =>   2
Atom   9C    basis set group =>   1
Atom  10C    basis set group =>   1
Atom  11S    basis set group =>   2
Atom  12C    basis set group =>   1
Atom  13C    basis set group =>   1
Atom  14C    basis set group =>   1
Atom  15C    basis set group =>   1
Atom  16C    basis set group =>   1
Atom  17S    basis set group =>   2
Atom  18C    basis set group =>   1
Atom  19C    basis set group =>   1
Atom  20C    basis set group =>   1
Atom  21S    basis set group =>   2
Atom  22C    basis set group =>   1
Atom  23C    basis set group =>   1
Atom  24C    basis set group =>   1
Atom  25C    basis set group =>   1
Atom  26C    basis set group =>   1
Atom  27C    basis set group =>   1
Atom  28C    basis set group =>   1
Atom  29C    basis set group =>   1
Atom  30C    basis set group =>   1
Atom  31S    basis set group =>   2
Atom  32C    basis set group =>   1
Atom  33S    basis set group =>   2
Atom  34C    basis set group =>   1
Atom  35C    basis set group =>   1
Atom  36C    basis set group =>   1
Atom  37C    basis set group =>   1
Atom  38C    basis set group =>   1
Atom  39C    basis set group =>   1
Atom  40C    basis set group =>   1
Atom  41C    basis set group =>   1
Atom  42S    basis set group =>   2
Atom  43C    basis set group =>   1
Atom  44C    basis set group =>   1
Atom  45C    basis set group =>   1
Atom  46C    basis set group =>   1
Atom  47S    basis set group =>   2
Atom  48O    basis set group =>   3
Atom  49O    basis set group =>   3
Atom  50C    basis set group =>   1
Atom  51C    basis set group =>   1
Atom  52C    basis set group =>   1
Atom  53C    basis set group =>   1
Atom  54C    basis set group =>   1
Atom  55Cl   basis set group =>   4
Atom  56Cl   basis set group =>   4
Atom  57H    basis set group =>   5
Atom  58H    basis set group =>   5
Atom  59H    basis set group =>   5
Atom  60H    basis set group =>   5
Atom  61H    basis set group =>   5
Atom  62H    basis set group =>   5
Atom  63H    basis set group =>   5
Atom  64H    basis set group =>   5
Atom  65H    basis set group =>   5
Atom  66H    basis set group =>   5
Atom  67H    basis set group =>   5
Atom  68H    basis set group =>   5
Atom  69H    basis set group =>   5
Atom  70H    basis set group =>   5
Atom  71H    basis set group =>   5
Atom  72H    basis set group =>   5
Atom  73H    basis set group =>   5
Atom  74H    basis set group =>   5
Atom  75H    basis set group =>   5
Atom  76H    basis set group =>   5
Atom  77H    basis set group =>   5
Atom  78H    basis set group =>   5
Atom  79H    basis set group =>   5
Atom  80H    basis set group =>   5
Atom  81H    basis set group =>   5
Atom  82H    basis set group =>   5
Atom  83H    basis set group =>   5
Atom  84H    basis set group =>   5
Atom  85H    basis set group =>   5
Atom  86H    basis set group =>   5
Atom  87H    basis set group =>   5
Atom  88H    basis set group =>   5
---------------------------------
AUXILIARY/J BASIS SET INFORMATION
---------------------------------
There are 5 groups of distinct atoms

 Group   1 Type C   : 12s5p4d2f1g contracted to 6s4p3d1f1g pattern {711111/2111/211/2/1}
 Group   2 Type S   : 14s5p5d2f1g contracted to 8s4p3d1f1g pattern {71111111/2111/311/2/1}
 Group   3 Type O   : 12s5p4d2f1g contracted to 6s4p3d1f1g pattern {711111/2111/211/2/1}
 Group   4 Type Cl  : 14s5p5d2f1g contracted to 8s4p3d1f1g pattern {71111111/2111/311/2/1}
 Group   5 Type H   : 5s2p1d contracted to 3s1p1d pattern {311/2/1}

Atom   0C    basis set group =>   1
Atom   1C    basis set group =>   1
Atom   2C    basis set group =>   1
Atom   3C    basis set group =>   1
Atom   4C    basis set group =>   1
Atom   5C    basis set group =>   1
Atom   6C    basis set group =>   1
Atom   7C    basis set group =>   1
Atom   8S    basis set group =>   2
Atom   9C    basis set group =>   1
Atom  10C    basis set group =>   1
Atom  11S    basis set group =>   2
Atom  12C    basis set group =>   1
Atom  13C    basis set group =>   1
Atom  14C    basis set group =>   1
Atom  15C    basis set group =>   1
Atom  16C    basis set group =>   1
Atom  17S    basis set group =>   2
Atom  18C    basis set group =>   1
Atom  19C    basis set group =>   1
Atom  20C    basis set group =>   1
Atom  21S    basis set group =>   2
Atom  22C    basis set group =>   1
Atom  23C    basis set group =>   1
Atom  24C    basis set group =>   1
Atom  25C    basis set group =>   1
Atom  26C    basis set group =>   1
Atom  27C    basis set group =>   1
Atom  28C    basis set group =>   1
Atom  29C    basis set group =>   1
Atom  30C    basis set group =>   1
Atom  31S    basis set group =>   2
Atom  32C    basis set group =>   1
Atom  33S    basis set group =>   2
Atom  34C    basis set group =>   1
Atom  35C    basis set group =>   1
Atom  36C    basis set group =>   1
Atom  37C    basis set group =>   1
Atom  38C    basis set group =>   1
Atom  39C    basis set group =>   1
Atom  40C    basis set group =>   1
Atom  41C    basis set group =>   1
Atom  42S    basis set group =>   2
Atom  43C    basis set group =>   1
Atom  44C    basis set group =>   1
Atom  45C    basis set group =>   1
Atom  46C    basis set group =>   1
Atom  47S    basis set group =>   2
Atom  48O    basis set group =>   3
Atom  49O    basis set group =>   3
Atom  50C    basis set group =>   1
Atom  51C    basis set group =>   1
Atom  52C    basis set group =>   1
Atom  53C    basis set group =>   1
Atom  54C    basis set group =>   1
Atom  55Cl   basis set group =>   4
Atom  56Cl   basis set group =>   4
Atom  57H    basis set group =>   5
Atom  58H    basis set group =>   5
Atom  59H    basis set group =>   5
Atom  60H    basis set group =>   5
Atom  61H    basis set group =>   5
Atom  62H    basis set group =>   5
Atom  63H    basis set group =>   5
Atom  64H    basis set group =>   5
Atom  65H    basis set group =>   5
Atom  66H    basis set group =>   5
Atom  67H    basis set group =>   5
Atom  68H    basis set group =>   5
Atom  69H    basis set group =>   5
Atom  70H    basis set group =>   5
Atom  71H    basis set group =>   5
Atom  72H    basis set group =>   5
Atom  73H    basis set group =>   5
Atom  74H    basis set group =>   5
Atom  75H    basis set group =>   5
Atom  76H    basis set group =>   5
Atom  77H    basis set group =>   5
Atom  78H    basis set group =>   5
Atom  79H    basis set group =>   5
Atom  80H    basis set group =>   5
Atom  81H    basis set group =>   5
Atom  82H    basis set group =>   5
Atom  83H    basis set group =>   5
Atom  84H    basis set group =>   5
Atom  85H    basis set group =>   5
Atom  86H    basis set group =>   5
Atom  87H    basis set group =>   5
Atom  88H    basis set group =>   5
------------------------------------------------------------------------------
                           ORCA GTO INTEGRAL CALCULATION
                           -- RI-GTO INTEGRALS CHOSEN --
------------------------------------------------------------------------------

                         BASIS SET STATISTICS AND STARTUP INFO

Gaussian basis set:
 # of primitive gaussian shells          ... 1402
 # of primitive gaussian functions       ... 3048
 # of contracted shells                  ...  775
 # of contracted basis functions         ... 2019
 Highest angular momentum                ...    3
 Maximum contraction depth               ...    7
Auxiliary gaussian basis set:
 # of primitive gaussian shells          ... 1654
 # of primitive gaussian functions       ... 4572
 # of contracted shells                  ... 1035
 # of contracted aux-basis functions     ... 3165
 Highest angular momentum                ...    4
 Maximum contraction depth               ...    7
Ratio of auxiliary to basis functions    ...  1.57
Integral package used                  ... LIBINT
 One Electron integrals                  ... done
 Ordering auxiliary basis shells         ... done
 Integral threshhold             Thresh  ...  2.500e-11
 Primitive cut-off               TCut    ...  2.500e-12
 Pre-screening matrix                    ... done
 Shell pair data                         ... 
 Ordering of the shell pairs             ... done (   0.026 sec) 105755 of 300700 pairs
 Determination of significant pairs      ... done (   0.001 sec)
 Creation of shell pair data             ... done (   0.014 sec)
 Storage of shell pair data              ... done (   0.018 sec)
 Shell pair data done in (   0.059 sec)
 Computing two index integrals           ... done
 Cholesky decomposition of the V-matrix  ... done


Timings:
 Total evaluation time                   ...   5.084 sec (  0.085 min)
 One electron matrix time                ...   1.611 sec (  0.027 min) = 31.7%
 Schwartz matrix evaluation time         ...   2.832 sec (  0.047 min) = 55.7%
 Two index repulsion integral time       ...   0.246 sec (  0.004 min) =  4.8%
 Cholesky decomposition of V             ...   0.318 sec (  0.005 min) =  6.3%
 Three index repulsion integral time     ...   0.000 sec (  0.000 min) =  0.0%

-------------------------------------------------------------------------------
                                 ORCA SCF
-------------------------------------------------------------------------------

------------
SCF SETTINGS
------------
Hamiltonian:
 Density Functional     Method          .... DFT(GTOs)
 Exchange Functional    Exchange        .... B88
   X-Alpha parameter    XAlpha          ....  0.666667
   Becke's b parameter  XBeta           ....  0.004200
 Correlation Functional Correlation     .... LYP
 LDA part of GGA corr.  LDAOpt          .... VWN-5
 Gradients option       PostSCFGGA      .... off
 Hybrid DFT is turned on
   Fraction HF Exchange ScalHFX         ....  0.200000
   Scaling of DF-GGA-X  ScalDFX         ....  0.720000
   Scaling of DF-GGA-C  ScalDFC         ....  0.810000
   Scaling of DF-LDA-C  ScalLDAC        ....  1.000000
   Perturbative correction              ....  0.000000
   Density functional embedding theory  .... OFF
   NL short-range parameter             ....  4.800000
 RI-approximation to the Coulomb term is turned on
   Number of auxiliary basis functions  .... 3165
   RIJ-COSX (HFX calculated with COS-X)).... on


General Settings:
 Integral files         IntName         .... PBDB-T-2Cl_dimer
 Hartree-Fock type      HFTyp           .... RHF
 Total Charge           Charge          ....    0
 Multiplicity           Mult            ....    1
 Number of Electrons    NEL             ....  480
 Basis Dimension        Dim             .... 2019
 Nuclear Repulsion      ENuc            ....   9616.0098783777 Eh

Convergence Acceleration:
 DIIS                   CNVDIIS         .... on
   Start iteration      DIISMaxIt       ....    12
   Startup error        DIISStart       ....  0.200000
   # of expansion vecs  DIISMaxEq       ....     5
   Bias factor          DIISBfac        ....   1.050
   Max. coefficient     DIISMaxC        ....  10.000
 Newton-Raphson         CNVNR           .... off
 SOSCF                  CNVSOSCF        .... on
   Start iteration      SOSCFMaxIt      ....   150
   Startup grad/error   SOSCFStart      ....  0.003300
 Level Shifting         CNVShift        .... on
   Level shift para.    LevelShift      ....    0.2500
   Turn off err/grad.   ShiftErr        ....    0.0010
 Zerner damping         CNVZerner       .... off
 Static damping         CNVDamp         .... on
   Fraction old density DampFac         ....    0.7000
   Max. Damping (<1)    DampMax         ....    0.9800
   Min. Damping (>=0)   DampMin         ....    0.0000
   Turn off err/grad.   DampErr         ....    0.1000
 Fernandez-Rico         CNVRico         .... off

SCF Procedure:
 Maximum # iterations   MaxIter         ....   125
 SCF integral mode      SCFMode         .... Direct
   Integral package                     .... LIBINT
 Reset frequency        DirectResetFreq ....    20
 Integral Threshold     Thresh          ....  2.500e-11 Eh
 Primitive CutOff       TCut            ....  2.500e-12 Eh

Convergence Tolerance:
 Convergence Check Mode ConvCheckMode   .... Total+1el-Energy
 Convergence forced     ConvForced      .... 1
 Energy Change          TolE            ....  1.000e-08 Eh
 1-El. energy change                    ....  1.000e-05 Eh
 Orbital Gradient       TolG            ....  1.000e-05
 Orbital Rotation angle TolX            ....  1.000e-05
 DIIS Error             TolErr          ....  5.000e-07


Diagonalization of the overlap matrix:
Smallest eigenvalue                        ... 2.318e-06
Time for diagonalization                   ...    1.886 sec
Threshold for overlap eigenvalues          ... 1.000e-08
Number of eigenvalues below threshold      ... 0
Time for construction of square roots      ...    0.663 sec
Total time needed                          ...    2.560 sec

-------------------
DFT GRID GENERATION
-------------------

General Integration Accuracy     IntAcc      ...  4.670
Radial Grid Type                 RadialGrid  ... Gauss-Chebyshev
Angular Grid (max. acc.)         AngularGrid ... Lebedev-302
Angular grid pruning method      GridPruning ... 3 (G Style)
Weight generation scheme         WeightScheme... Becke
Basis function cutoff            BFCut       ...    1.0000e-11
Integration weight cutoff        WCut        ...    1.0000e-14
Grids for H and He will be reduced by one unit

# of grid points (after initial pruning)     ... 468816 (   0.8 sec)
# of grid points (after weights+screening)   ... 403704 (  13.0 sec)
nearest neighbour list constructed           ...    0.0 sec
Grid point re-assignment to atoms done       ...    0.1 sec
Grid point division into batches done        ...    1.5 sec
Reduced shell lists constructed in   15.1 sec

Total number of grid points                  ...   403704
Total number of batches                      ...     6350
Average number of points per batch           ...       63
Average number of grid points per atom       ...     4536
Average number of shells per batch           ...   145.60 (18.79%)
Average number of basis functions per batch  ...   369.92 (18.32%)
Average number of large shells per batch     ...    88.69 (60.91%)
Average number of large basis fcns per batch ...   229.93 (62.16%)
Maximum spatial batch extension              ...  21.77, 19.63, 22.28 au
Average spatial batch extension              ...   2.17,  2.13,  2.35 au

Time for grid setup =   28.929 sec

------------------------------
INITIAL GUESS: MODEL POTENTIAL
------------------------------
Loading Hartree-Fock densities                     ... done
Calculating cut-offs                               ... done
Setting up the integral package                    ... done
Initializing the effective Hamiltonian             ... done
Starting the Coulomb interaction                   ... done (  19.2 sec)
Reading the grid                                   ... done
Mapping shells                                     ... done
Starting the XC term evaluation                    ... done (  21.5 sec)
  promolecular density results
     # of electrons  =    479.983966809
     EX              =   -513.036448369
     EC              =    -17.587751906
     EX+EC           =   -530.624200275
Transforming the Hamiltonian                       ... done (   0.6 sec)
Diagonalizing the Hamiltonian                      ... done (   2.0 sec)
Back transforming the eigenvectors                 ... done (   0.3 sec)
Now organizing SCF variables                       ... done
                      ------------------
                      INITIAL GUESS DONE (  73.0 sec)
                      ------------------
--------------------
COSX GRID GENERATION
--------------------

General Integration Accuracy     IntAcc      ...  3.340
Radial Grid Type                 RadialGrid  ... Gauss-Chebyshev
Angular Grid (max. acc.)         AngularGrid ... Lebedev-50
Angular grid pruning method      GridPruning ... 3 (G Style)
Weight generation scheme         WeightScheme... Becke
Basis function cutoff            BFCut       ...    1.0000e-11
Integration weight cutoff        WCut        ...    1.0000e-14
Grids for H and He will be reduced by one unit

# of grid points (after initial pruning)     ...  44560 (   0.1 sec)
# of grid points (after weights+screening)   ...  40040 (   1.2 sec)
nearest neighbour list constructed           ...    0.0 sec
Grid point re-assignment to atoms done       ...    0.0 sec
Grid point division into batches done        ...    0.0 sec
Reduced shell lists constructed in    2.1 sec

Total number of grid points                  ...    40040
Total number of batches                      ...      677
Average number of points per batch           ...       59
Average number of grid points per atom       ...      450
Average number of shells per batch           ...   177.53 (22.91%)
Average number of basis functions per batch  ...   455.24 (22.55%)
Average number of large shells per batch     ...   109.32 (61.58%)
Average number of large basis fcns per batch ...   288.12 (63.29%)
Maximum spatial batch extension              ...  19.76, 17.91, 25.32 au
Average spatial batch extension              ...   4.14,  4.01,  5.05 au

Overlap Fitting                  UseSFitting ... on
Constructing numerical overlap ... done (      1.8 sec)
Inverting numerical overlap    ... done (      0.3 sec)
Obtaining analytic overlap     ... done (      0.0 sec)
Final contraction and storage  ... done (      0.3 sec)


General Integration Accuracy     IntAcc      ...  3.670
Radial Grid Type                 RadialGrid  ... Gauss-Chebyshev
Angular Grid (max. acc.)         AngularGrid ... Lebedev-50
Angular grid pruning method      GridPruning ... 3 (G Style)
Weight generation scheme         WeightScheme... Becke
Basis function cutoff            BFCut       ...    1.0000e-11
Integration weight cutoff        WCut        ...    1.0000e-14
Grids for H and He will be reduced by one unit

# of grid points (after initial pruning)     ...  55834 (   0.1 sec)
# of grid points (after weights+screening)   ...  49911 (   1.6 sec)
nearest neighbour list constructed           ...    0.0 sec
Grid point re-assignment to atoms done       ...    0.0 sec
Grid point division into batches done        ...    0.0 sec
Reduced shell lists constructed in    2.3 sec

Total number of grid points                  ...    49911
Total number of batches                      ...      825
Average number of points per batch           ...       60
Average number of grid points per atom       ...      561
Average number of shells per batch           ...   173.35 (22.37%)
Average number of basis functions per batch  ...   443.75 (21.98%)
Average number of large shells per batch     ...   105.78 (61.02%)
Average number of large basis fcns per batch ...   277.97 (62.64%)
Maximum spatial batch extension              ...  23.80, 18.39, 24.38 au
Average spatial batch extension              ...   3.92,  3.82,  4.73 au

Overlap Fitting                  UseSFitting ... on
Constructing numerical overlap ... done (      1.9 sec)
Inverting numerical overlap    ... done (      0.2 sec)
Obtaining analytic overlap     ... done (      0.0 sec)
Final contraction and storage  ... done (      0.3 sec)


General Integration Accuracy     IntAcc      ...  4.010
Radial Grid Type                 RadialGrid  ... Gauss-Chebyshev
Angular Grid (max. acc.)         AngularGrid ... Lebedev-110
Angular grid pruning method      GridPruning ... 3 (G Style)
Weight generation scheme         WeightScheme... Becke
Basis function cutoff            BFCut       ...    1.0000e-11
Integration weight cutoff        WCut        ...    1.0000e-14
Grids for H and He will be reduced by one unit

# of grid points (after initial pruning)     ... 106648 (   0.2 sec)
# of grid points (after weights+screening)   ...  94507 (   3.0 sec)
nearest neighbour list constructed           ...    0.0 sec
Grid point re-assignment to atoms done       ...    0.0 sec
Grid point division into batches done        ...    0.1 sec
Reduced shell lists constructed in    4.1 sec

Total number of grid points                  ...    94507
Total number of batches                      ...     1520
Average number of points per batch           ...       62
Average number of grid points per atom       ...     1062
Average number of shells per batch           ...   165.49 (21.35%)
Average number of basis functions per batch  ...   423.65 (20.98%)
Average number of large shells per batch     ...   101.61 (61.40%)
Average number of large basis fcns per batch ...   266.09 (62.81%)
Maximum spatial batch extension              ...  19.79, 19.74, 20.94 au
Average spatial batch extension              ...   3.43,  3.37,  3.97 au

Overlap Fitting                  UseSFitting ... on
Constructing numerical overlap ... done (      3.3 sec)
Inverting numerical overlap    ... done (      0.2 sec)
Obtaining analytic overlap     ... done (      0.0 sec)
Final contraction and storage  ... done (      0.3 sec)

Time for X-Grid setup             =   23.425 sec
--------------
SCF ITERATIONS
--------------
ITER       Energy         Delta-E        Max-DP      RMS-DP      [F,P]     Damp
               ***  Starting incremental Fock matrix formation  ***
  0  -5987.9016728202   0.000000000000 0.26708939  0.00112640  0.3080936 0.7000
  1  -5988.7476636104  -0.845990790194 0.16195290  0.00074921  0.1145185 0.7000
                               ***Turning on DIIS***
  2  -5989.0320277102  -0.284364099807 0.10365510  0.00097766  0.0395718 0.0000
  3  -5989.4685339224  -0.436506212207 0.16720294  0.00069246  0.0585345 0.0000
  4  -5989.6039638893  -0.135429966866 0.02628343  0.00015606  0.0182078 0.0000
  5  -5989.6128063046  -0.008842415322 0.01699606  0.00007516  0.0120923 0.0000
  6  -5989.6136150782  -0.000808773584 0.00302847  0.00002728  0.0042292 0.0000
                      *** Initiating the SOSCF procedure ***
                           *** Shutting down DIIS ***
                      *** Re-Reading the Fockian *** 
                      *** Removing any level shift *** 
ITER      Energy       Delta-E        Grad      Rot      Max-DP    RMS-DP
  7  -5989.61375061  -0.0001355324  0.000240  0.000240  0.001394  0.000011
               *** Restarting incremental Fock matrix formation ***
  8  -5989.61377208  -0.0000214650  0.000115  0.000927  0.018447  0.000098
  9  -5989.61377362  -0.0000015423  0.000145  0.000545  0.006389  0.000034
 10  -5989.61377664  -0.0000030224  0.000066  0.000263  0.006675  0.000035
 11  -5989.61377721  -0.0000005688  0.000045  0.000216  0.001738  0.000009
 12  -5989.61377768  -0.0000004706  0.000025  0.000193  0.002726  0.000014
 13  -5989.61377760   0.0000000835  0.000017  0.000046  0.000321  0.000001
 14  -5989.61377757   0.0000000248  0.000009  0.000040  0.001131  0.000006
 15  -5989.61377763  -0.0000000608  0.000006  0.000025  0.000149  0.000001
 16  -5989.61377777  -0.0000001427  0.000004  0.000029  0.000395  0.000002
 17  -5989.61377765   0.0000001229  0.000003  0.000011  0.000167  0.000001
                  ***Gradient check signals convergence***
              ***Rediagonalizing the Fockian in SOSCF/NRSCF***

               *****************************************************
               *                     SUCCESS                       *
               *           SCF CONVERGED AFTER  18 CYCLES          *
               *****************************************************

Setting up the final grid:

General Integration Accuracy     IntAcc      ...  5.010
Radial Grid Type                 RadialGrid  ... Gauss-Chebyshev
Angular Grid (max. acc.)         AngularGrid ... Lebedev-434
Angular grid pruning method      GridPruning ... 3 (G Style)
Weight generation scheme         WeightScheme... Becke
Basis function cutoff            BFCut       ...    1.0000e-11
Integration weight cutoff        WCut        ...    1.0000e-14
Grids for H and He will be reduced by one unit

# of grid points (after initial pruning)     ... 834926 (   1.3 sec)
# of grid points (after weights+screening)   ... 717410 (  23.3 sec)
nearest neighbour list constructed           ...    0.0 sec
Grid point re-assignment to atoms done       ...    0.1 sec
Grid point division into batches done        ...    4.8 sec
Reduced shell lists constructed in   26.7 sec

Total number of grid points                  ...   717410
Total number of batches                      ...    11257
Average number of points per batch           ...       63
Average number of grid points per atom       ...     8061
Average number of shells per batch           ...   139.83 (18.04%)
Average number of basis functions per batch  ...   354.01 (17.53%)
Average number of large shells per batch     ...    85.00 (60.79%)
Average number of large basis fcns per batch ...   219.64 (62.04%)
Maximum spatial batch extension              ...  20.94, 19.73, 23.50 au
Average spatial batch extension              ...   1.76,  1.75,  1.85 au

Final grid set up in   51.3 sec
Final integration                            ... done (  50.8 sec)
Change in XC energy                          ...    -0.000184549
Integrated number of electrons               ...   480.000098559
Previous integrated no of electrons          ...   479.999868684
Old exchange energy                            =   -103.432791648 Eh
New exchange energy                            =   -103.435890990 Eh
Exchange energy change after final integration =     -0.003099342 Eh
Total energy after final integration           =  -5989.617061431 Eh
Final COS-X integration done in                =  1123.411 sec

----------------
TOTAL SCF ENERGY
----------------

Total Energy       :        -5989.61706143 Eh         -162985.76628 eV

Components:
Nuclear Repulsion  :         9616.00987838 Eh          261664.93158 eV
Electronic Energy  :       -15605.62693981 Eh         -424650.69786 eV
One Electron Energy:       -27398.68566418 Eh         -745556.14026 eV
Two Electron Energy:        11793.05872437 Eh          320905.44241 eV

Virial components:
Potential Energy   :       -11965.86966274 Eh         -325607.86711 eV
Kinetic Energy     :         5976.25260131 Eh          162622.10083 eV
Virial Ratio       :            2.00223626


DFT components:
N(Alpha)           :      240.000049279451 electrons
N(Beta)            :      240.000049279451 electrons
N(Total)           :      480.000098558902 electrons
E(X)               :     -410.792107070129 Eh       
E(C)               :      -20.634077510016 Eh       
E(XC)              :     -431.426184580145 Eh       
DFET-embed. en.    :        0.000000000000 Eh       

---------------
SCF CONVERGENCE
---------------

  Last Energy change         ...    1.1126e-07  Tolerance :   1.0000e-08
  Last MAX-Density change    ...    5.7732e-15  Tolerance :   1.0000e-07
  Last RMS-Density change    ...    1.4734e-17  Tolerance :   5.0000e-09
  Last Orbital Gradient      ...    1.2244e-06  Tolerance :   1.0000e-05
  Last Orbital Rotation      ...    7.0548e-06  Tolerance :   1.0000e-05

             **** THE GBW FILE WAS UPDATED (PBDB-T-2Cl_dimer.gbw) ****
             **** DENSITY FILE WAS UPDATED (PBDB-T-2Cl_dimer.scfp) ****
             **** ENERGY FILE WAS UPDATED (PBDB-T-2Cl_dimer.en.tmp) ****
             **** THE GBW FILE WAS UPDATED (PBDB-T-2Cl_dimer.gbw) ****
             **** DENSITY FILE WAS UPDATED (PBDB-T-2Cl_dimer.scfp) ****
----------------
ORBITAL ENERGIES
----------------

  NO   OCC          E(Eh)            E(eV) 
   0   2.0000    -101.528444     -2762.7294 
   1   2.0000    -101.527667     -2762.7083 
   2   2.0000     -88.896607     -2418.9996 
   3   2.0000     -88.895185     -2418.9610 
   4   2.0000     -88.889569     -2418.8081 
   5   2.0000     -88.889283     -2418.8004 
   6   2.0000     -88.888774     -2418.7865 
   7   2.0000     -88.885915     -2418.7087 
   8   2.0000     -88.882286     -2418.6100 
   9   2.0000     -88.878384     -2418.5038 
  10   2.0000     -19.105945      -519.8992 
  11   2.0000     -19.101207      -519.7703 
  12   2.0000     -10.261495      -279.2295 
  13   2.0000     -10.257697      -279.1261 
  14   2.0000     -10.232901      -278.4514 
  15   2.0000     -10.230317      -278.3811 
  16   2.0000     -10.229665      -278.3633 
  17   2.0000     -10.228854      -278.3413 
  18   2.0000     -10.220015      -278.1007 
  19   2.0000     -10.218715      -278.0654 
  20   2.0000     -10.217809      -278.0407 
  21   2.0000     -10.217614      -278.0354 
  22   2.0000     -10.216468      -278.0042 
  23   2.0000     -10.215416      -277.9756 
  24   2.0000     -10.214783      -277.9584 
  25   2.0000     -10.213218      -277.9158 
  26   2.0000     -10.211513      -277.8694 
  27   2.0000     -10.211170      -277.8601 
  28   2.0000     -10.211044      -277.8566 
  29   2.0000     -10.210530      -277.8426 
  30   2.0000     -10.209939      -277.8266 
  31   2.0000     -10.204286      -277.6727 
  32   2.0000     -10.203377      -277.6480 
  33   2.0000     -10.200504      -277.5698 
  34   2.0000     -10.196232      -277.4536 
  35   2.0000     -10.195342      -277.4294 
  36   2.0000     -10.193759      -277.3863 
  37   2.0000     -10.193402      -277.3766 
  38   2.0000     -10.186818      -277.1974 
  39   2.0000     -10.186579      -277.1909 
  40   2.0000     -10.184829      -277.1433 
  41   2.0000     -10.184346      -277.1301 
  42   2.0000     -10.184127      -277.1242 
  43   2.0000     -10.182334      -277.0754 
  44   2.0000     -10.181832      -277.0617 
  45   2.0000     -10.181657      -277.0570 
  46   2.0000     -10.180967      -277.0382 
  47   2.0000     -10.179364      -276.9946 
  48   2.0000     -10.178633      -276.9747 
  49   2.0000     -10.177129      -276.9338 
  50   2.0000     -10.176259      -276.9101 
  51   2.0000     -10.175560      -276.8911 
  52   2.0000     -10.174106      -276.8515 
  53   2.0000     -10.166242      -276.6375 
  54   2.0000     -10.165931      -276.6290 
  55   2.0000     -10.165321      -276.6125 
  56   2.0000     -10.156903      -276.3834 
  57   2.0000      -9.460954      -257.4456 
  58   2.0000      -9.460172      -257.4244 
  59   2.0000      -7.973866      -216.9799 
  60   2.0000      -7.971906      -216.9266 
  61   2.0000      -7.966346      -216.7753 
  62   2.0000      -7.966024      -216.7665 
  63   2.0000      -7.965880      -216.7626 
  64   2.0000      -7.962561      -216.6723 
  65   2.0000      -7.959363      -216.5853 
  66   2.0000      -7.955489      -216.4799 
  67   2.0000      -7.222495      -196.5341 
  68   2.0000      -7.221712      -196.5128 
  69   2.0000      -7.214059      -196.3045 
  70   2.0000      -7.213834      -196.2984 
  71   2.0000      -7.213282      -196.2834 
  72   2.0000      -7.213047      -196.2770 
  73   2.0000      -5.936295      -161.5348 
  74   2.0000      -5.934106      -161.4752 
  75   2.0000      -5.932281      -161.4256 
  76   2.0000      -5.930589      -161.3795 
  77   2.0000      -5.930128      -161.3670 
  78   2.0000      -5.929259      -161.3433 
  79   2.0000      -5.928744      -161.3293 
  80   2.0000      -5.928424      -161.3206 
  81   2.0000      -5.928354      -161.3187 
  82   2.0000      -5.924952      -161.2261 
  83   2.0000      -5.924930      -161.2255 
  84   2.0000      -5.924630      -161.2174 
  85   2.0000      -5.924463      -161.2128 
  86   2.0000      -5.923103      -161.1758 
  87   2.0000      -5.922790      -161.1673 
  88   2.0000      -5.922509      -161.1596 
  89   2.0000      -5.922131      -161.1494 
  90   2.0000      -5.920969      -161.1178 
  91   2.0000      -5.919608      -161.0807 
  92   2.0000      -5.918222      -161.0430 
  93   2.0000      -5.918197      -161.0423 
  94   2.0000      -5.915425      -160.9669 
  95   2.0000      -5.914220      -160.9341 
  96   2.0000      -5.911721      -160.8661 
  97   2.0000      -1.041433       -28.3388 
  98   2.0000      -1.036239       -28.1975 
  99   2.0000      -0.924163       -25.1478 
 100   2.0000      -0.916688       -24.9444 
 101   2.0000      -0.914870       -24.8949 
 102   2.0000      -0.908173       -24.7126 
 103   2.0000      -0.903036       -24.5729 
 104   2.0000      -0.898427       -24.4474 
 105   2.0000      -0.886212       -24.1151 
 106   2.0000      -0.878060       -23.8932 
 107   2.0000      -0.859190       -23.3798 
 108   2.0000      -0.854521       -23.2527 
 109   2.0000      -0.829391       -22.5689 
 110   2.0000      -0.818535       -22.2735 
 111   2.0000      -0.811114       -22.0715 
 112   2.0000      -0.808201       -21.9923 
 113   2.0000      -0.799285       -21.7497 
 114   2.0000      -0.794815       -21.6280 
 115   2.0000      -0.785946       -21.3867 
 116   2.0000      -0.771224       -20.9861 
 117   2.0000      -0.767707       -20.8904 
 118   2.0000      -0.756065       -20.5736 
 119   2.0000      -0.751141       -20.4396 
 120   2.0000      -0.745154       -20.2767 
 121   2.0000      -0.741981       -20.1903 
 122   2.0000      -0.734919       -19.9982 
 123   2.0000      -0.733479       -19.9590 
 124   2.0000      -0.728718       -19.8294 
 125   2.0000      -0.726721       -19.7751 
 126   2.0000      -0.720895       -19.6165 
 127   2.0000      -0.718015       -19.5382 
 128   2.0000      -0.709821       -19.3152 
 129   2.0000      -0.690599       -18.7921 
 130   2.0000      -0.686521       -18.6812 
 131   2.0000      -0.659712       -17.9517 
 132   2.0000      -0.652275       -17.7493 
 133   2.0000      -0.650485       -17.7006 
 134   2.0000      -0.636516       -17.3205 
 135   2.0000      -0.633252       -17.2317 
 136   2.0000      -0.623964       -16.9789 
 137   2.0000      -0.616754       -16.7827 
 138   2.0000      -0.612879       -16.6773 
 139   2.0000      -0.599303       -16.3079 
 140   2.0000      -0.587348       -15.9825 
 141   2.0000      -0.577663       -15.7190 
 142   2.0000      -0.574302       -15.6276 
 143   2.0000      -0.564115       -15.3504 
 144   2.0000      -0.560232       -15.2447 
 145   2.0000      -0.553883       -15.0719 
 146   2.0000      -0.547937       -14.9101 
 147   2.0000      -0.538705       -14.6589 
 148   2.0000      -0.533325       -14.5125 
 149   2.0000      -0.532745       -14.4967 
 150   2.0000      -0.525057       -14.2875 
 151   2.0000      -0.523115       -14.2347 
 152   2.0000      -0.521003       -14.1772 
 153   2.0000      -0.515711       -14.0332 
 154   2.0000      -0.509295       -13.8586 
 155   2.0000      -0.501455       -13.6453 
 156   2.0000      -0.500193       -13.6109 
 157   2.0000      -0.483284       -13.1508 
 158   2.0000      -0.480375       -13.0717 
 159   2.0000      -0.476115       -12.9558 
 160   2.0000      -0.473481       -12.8841 
 161   2.0000      -0.468100       -12.7377 
 162   2.0000      -0.464260       -12.6331 
 163   2.0000      -0.458653       -12.4806 
 164   2.0000      -0.452708       -12.3188 
 165   2.0000      -0.449349       -12.2274 
 166   2.0000      -0.446966       -12.1626 
 167   2.0000      -0.445361       -12.1189 
 168   2.0000      -0.444903       -12.1064 
 169   2.0000      -0.441389       -12.0108 
 170   2.0000      -0.439166       -11.9503 
 171   2.0000      -0.436337       -11.8733 
 172   2.0000      -0.433678       -11.8010 
 173   2.0000      -0.431627       -11.7452 
 174   2.0000      -0.430337       -11.7101 
 175   2.0000      -0.428532       -11.6609 
 176   2.0000      -0.421112       -11.4590 
 177   2.0000      -0.420945       -11.4545 
 178   2.0000      -0.418544       -11.3892 
 179   2.0000      -0.417184       -11.3522 
 180   2.0000      -0.416301       -11.3281 
 181   2.0000      -0.411809       -11.2059 
 182   2.0000      -0.409972       -11.1559 
 183   2.0000      -0.407808       -11.0970 
 184   2.0000      -0.406992       -11.0748 
 185   2.0000      -0.403286       -10.9740 
 186   2.0000      -0.399579       -10.8731 
 187   2.0000      -0.397174       -10.8077 
 188   2.0000      -0.396723       -10.7954 
 189   2.0000      -0.393912       -10.7189 
 190   2.0000      -0.389662       -10.6032 
 191   2.0000      -0.386923       -10.5287 
 192   2.0000      -0.383266       -10.4292 
 193   2.0000      -0.382024       -10.3954 
 194   2.0000      -0.380779       -10.3615 
 195   2.0000      -0.379171       -10.3178 
 196   2.0000      -0.377876       -10.2825 
 197   2.0000      -0.376432       -10.2432 
 198   2.0000      -0.373767       -10.1707 
 199   2.0000      -0.370645       -10.0858 
 200   2.0000      -0.369485       -10.0542 
 201   2.0000      -0.367285        -9.9943 
 202   2.0000      -0.366942        -9.9850 
 203   2.0000      -0.363371        -9.8878 
 204   2.0000      -0.362275        -9.8580 
 205   2.0000      -0.361725        -9.8430 
 206   2.0000      -0.360222        -9.8021 
 207   2.0000      -0.357854        -9.7377 
 208   2.0000      -0.356563        -9.7026 
 209   2.0000      -0.350645        -9.5415 
 210   2.0000      -0.350341        -9.5333 
 211   2.0000      -0.349820        -9.5191 
 212   2.0000      -0.348290        -9.4775 
 213   2.0000      -0.347649        -9.4600 
 214   2.0000      -0.343634        -9.3507 
 215   2.0000      -0.342752        -9.3268 
 216   2.0000      -0.342045        -9.3075 
 217   2.0000      -0.336690        -9.1618 
 218   2.0000      -0.330615        -8.9965 
 219   2.0000      -0.320399        -8.7185 
 220   2.0000      -0.317151        -8.6301 
 221   2.0000      -0.314542        -8.5591 
 222   2.0000      -0.307729        -8.3737 
 223   2.0000      -0.293158        -7.9772 
 224   2.0000      -0.278410        -7.5759 
 225   2.0000      -0.269092        -7.3224 
 226   2.0000      -0.267570        -7.2809 
 227   2.0000      -0.262866        -7.1530 
 228   2.0000      -0.261325        -7.1110 
 229   2.0000      -0.257731        -7.0132 
 230   2.0000      -0.256142        -6.9700 
 231   2.0000      -0.254980        -6.9384 
 232   2.0000      -0.252456        -6.8697 
 233   2.0000      -0.246494        -6.7074 
 234   2.0000      -0.241092        -6.5604 
 235   2.0000      -0.235681        -6.4132 
 236   2.0000      -0.233574        -6.3559 
 237   2.0000      -0.226200        -6.1552 
 238   2.0000      -0.203546        -5.5388 
 239   2.0000      -0.188666        -5.1339 
 240   0.0000      -0.096388        -2.6228 
 241   0.0000      -0.084576        -2.3014 
 242   0.0000      -0.066755        -1.8165 
 243   0.0000      -0.050505        -1.3743 
 244   0.0000      -0.037904        -1.0314 
 245   0.0000      -0.033704        -0.9171 
 246   0.0000      -0.028597        -0.7782 
 247   0.0000      -0.018144        -0.4937 
 248   0.0000      -0.008300        -0.2258 
 249   0.0000      -0.004223        -0.1149 
 250   0.0000       0.003585         0.0976 
 251   0.0000       0.006086         0.1656 
 252   0.0000       0.008500         0.2313 
 253   0.0000       0.009869         0.2685 
 254   0.0000       0.013192         0.3590 
 255   0.0000       0.020539         0.5589 
 256   0.0000       0.029107         0.7921 
 257   0.0000       0.030695         0.8352 
 258   0.0000       0.033955         0.9240 
 259   0.0000       0.034709         0.9445 
 260   0.0000       0.038237         1.0405 
 261   0.0000       0.038617         1.0508 
 262   0.0000       0.042126         1.1463 
 263   0.0000       0.042315         1.1514 
 264   0.0000       0.047820         1.3013 
 265   0.0000       0.048733         1.3261 
 266   0.0000       0.051778         1.4090 
 267   0.0000       0.055115         1.4998 
 268   0.0000       0.058456         1.5907 
 269   0.0000       0.061237         1.6663 
 270   0.0000       0.063824         1.7367 
 271   0.0000       0.064951         1.7674 
 272   0.0000       0.067516         1.8372 
 273   0.0000       0.071117         1.9352 
 274   0.0000       0.071601         1.9484 
 275   0.0000       0.074428         2.0253 
 276   0.0000       0.078274         2.1300 
 277   0.0000       0.080374         2.1871 
 278   0.0000       0.080808         2.1989 
 279   0.0000       0.081981         2.2308 
 280   0.0000       0.082438         2.2432 
 281   0.0000       0.083237         2.2650 
 282   0.0000       0.085486         2.3262 
 283   0.0000       0.085869         2.3366 
 284   0.0000       0.087879         2.3913 
 285   0.0000       0.090216         2.4549 
 286   0.0000       0.092322         2.5122 
 287   0.0000       0.094704         2.5770 
 288   0.0000       0.098213         2.6725 
 289   0.0000       0.099041         2.6950 
 290   0.0000       0.104101         2.8327 
 291   0.0000       0.104747         2.8503 
 292   0.0000       0.109201         2.9715 
 293   0.0000       0.110149         2.9973 
 294   0.0000       0.111382         3.0309 
 295   0.0000       0.112468         3.0604 
 296   0.0000       0.114066         3.1039 
 297   0.0000       0.115728         3.1491 
 298   0.0000       0.116039         3.1576 
 299   0.0000       0.116822         3.1789 
 300   0.0000       0.118704         3.2301 
 301   0.0000       0.121096         3.2952 
 302   0.0000       0.122480         3.3328 
 303   0.0000       0.123389         3.3576 
 304   0.0000       0.126998         3.4558 
 305   0.0000       0.127797         3.4775 
 306   0.0000       0.130710         3.5568 
 307   0.0000       0.131901         3.5892 
 308   0.0000       0.135055         3.6750 
 309   0.0000       0.136342         3.7100 
 310   0.0000       0.137465         3.7406 
 311   0.0000       0.142587         3.8800 
 312   0.0000       0.147274         4.0075 
 313   0.0000       0.149550         4.0695 
 314   0.0000       0.153491         4.1767 
 315   0.0000       0.156265         4.2522 
 316   0.0000       0.159052         4.3280 
 317   0.0000       0.159791         4.3481 
 318   0.0000       0.161336         4.3902 
 319   0.0000       0.162595         4.4244 
 320   0.0000       0.166186         4.5221 
 321   0.0000       0.168364         4.5814 
 322   0.0000       0.171040         4.6542 
 323   0.0000       0.172492         4.6937 
 324   0.0000       0.174169         4.7394 
 325   0.0000       0.175024         4.7626 
 326   0.0000       0.176040         4.7903 
 327   0.0000       0.179863         4.8943 
 328   0.0000       0.180951         4.9239 
 329   0.0000       0.183353         4.9893 
 330   0.0000       0.186047         5.0626 
 331   0.0000       0.187381         5.0989 
 332   0.0000       0.187826         5.1110 
 333   0.0000       0.188683         5.1343 
 334   0.0000       0.190423         5.1817 
 335   0.0000       0.191839         5.2202 
 336   0.0000       0.194700         5.2981 
 337   0.0000       0.195965         5.3325 
 338   0.0000       0.198012         5.3882 
 339   0.0000       0.199235         5.4215 
 340   0.0000       0.200709         5.4616 
 341   0.0000       0.203207         5.5295 
 342   0.0000       0.206260         5.6126 
 343   0.0000       0.208704         5.6791 
 344   0.0000       0.209783         5.7085 
 345   0.0000       0.211246         5.7483 
 346   0.0000       0.213141         5.7999 
 347   0.0000       0.214447         5.8354 
 348   0.0000       0.217019         5.9054 
 349   0.0000       0.218196         5.9374 
 350   0.0000       0.220012         5.9868 
 351   0.0000       0.220641         6.0039 
 352   0.0000       0.221300         6.0219 
 353   0.0000       0.222982         6.0677 
 354   0.0000       0.225530         6.1370 
 355   0.0000       0.227580         6.1928 
 356   0.0000       0.228138         6.2080 
 357   0.0000       0.232261         6.3201 
 358   0.0000       0.233825         6.3627 
 359   0.0000       0.237029         6.4499 
 360   0.0000       0.239263         6.5107 
 361   0.0000       0.240036         6.5317 
 362   0.0000       0.241979         6.5846 
 363   0.0000       0.244071         6.6415 
 364   0.0000       0.246372         6.7041 
 365   0.0000       0.247273         6.7286 
 366   0.0000       0.249047         6.7769 
 367   0.0000       0.251733         6.8500 
 368   0.0000       0.254647         6.9293 
 369   0.0000       0.255866         6.9625 
 370   0.0000       0.256351         6.9757 
 371   0.0000       0.259208         7.0534 
 372   0.0000       0.260342         7.0843 
 373   0.0000       0.262113         7.1325 
 374   0.0000       0.262287         7.1372 
 375   0.0000       0.263618         7.1734 
 376   0.0000       0.265319         7.2197 
 377   0.0000       0.266668         7.2564 
 378   0.0000       0.267821         7.2878 
 379   0.0000       0.270436         7.3589 
 380   0.0000       0.274033         7.4568 
 381   0.0000       0.275466         7.4958 
 382   0.0000       0.277492         7.5509 
 383   0.0000       0.278914         7.5896 
 384   0.0000       0.279268         7.5993 
 385   0.0000       0.280496         7.6327 
 386   0.0000       0.282056         7.6751 
[...]
   228a -> 241a  :     0.025085 (c= -0.15838097)
   229a -> 241a  :     0.517887 (c= -0.71964391)
   230a -> 241a  :     0.042069 (c=  0.20510640)
   232a -> 241a  :     0.010505 (c= -0.10249229)
   233a -> 242a  :     0.013956 (c=  0.11813583)
   237a -> 244a  :     0.052757 (c= -0.22968857)
   237a -> 245a  :     0.029435 (c=  0.17156673)
   238a -> 247a  :     0.011425 (c=  0.10688667)
   239a -> 249a  :     0.018739 (c= -0.13689092)

STATE 46:  E=   0.164266 au      4.470 eV    36052.2 cm**-1
   224a -> 240a  :     0.041149 (c= -0.20285159)
   229a -> 241a  :     0.182380 (c=  0.42705998)
   232a -> 242a  :     0.013499 (c= -0.11618530)
   233a -> 242a  :     0.111529 (c=  0.33396011)
   234a -> 242a  :     0.013062 (c=  0.11428885)
   236a -> 243a  :     0.029152 (c=  0.17073887)
   237a -> 243a  :     0.026098 (c= -0.16154945)
   237a -> 244a  :     0.197271 (c= -0.44415225)
   237a -> 245a  :     0.089317 (c=  0.29885944)
   238a -> 246a  :     0.012011 (c= -0.10959553)
   238a -> 247a  :     0.029520 (c=  0.17181337)
   238a -> 248a  :     0.025511 (c=  0.15972224)
   239a -> 247a  :     0.028990 (c= -0.17026592)
   239a -> 248a  :     0.039988 (c=  0.19996910)
   239a -> 250a  :     0.021264 (c= -0.14582300)

STATE 47:  E=   0.165262 au      4.497 eV    36270.9 cm**-1
   224a -> 240a  :     0.013562 (c=  0.11645658)
   225a -> 241a  :     0.067605 (c= -0.26001018)
   229a -> 241a  :     0.059033 (c= -0.24296678)
   233a -> 242a  :     0.270591 (c=  0.52018358)
   234a -> 242a  :     0.020455 (c=  0.14302158)
   236a -> 243a  :     0.014515 (c= -0.12047893)
   238a -> 245a  :     0.010688 (c= -0.10338144)
   238a -> 247a  :     0.025641 (c= -0.16012731)
   238a -> 249a  :     0.012474 (c=  0.11168869)
   239a -> 249a  :     0.316458 (c=  0.56254607)
   239a -> 250a  :     0.029689 (c=  0.17230435)

STATE 48:  E=   0.165930 au      4.515 eV    36417.4 cm**-1
   224a -> 240a  :     0.050948 (c= -0.22571582)
   225a -> 240a  :     0.019000 (c= -0.13784041)
   225a -> 241a  :     0.197391 (c=  0.44428709)
   228a -> 241a  :     0.011611 (c=  0.10775392)
   229a -> 241a  :     0.072285 (c=  0.26885957)
   232a -> 242a  :     0.019671 (c= -0.14025225)
   233a -> 242a  :     0.150329 (c=  0.38772344)
   234a -> 242a  :     0.011088 (c= -0.10529817)
   237a -> 243a  :     0.074753 (c=  0.27341051)
   237a -> 244a  :     0.065107 (c=  0.25516155)
   237a -> 245a  :     0.017131 (c= -0.13088548)
   239a -> 248a  :     0.131843 (c= -0.36310245)
   239a -> 250a  :     0.016340 (c=  0.12782784)

STATE 49:  E=   0.166769 au      4.538 eV    36601.5 cm**-1
   225a -> 240a  :     0.015922 (c= -0.12618414)
   225a -> 241a  :     0.153148 (c=  0.39134118)
   226a -> 240a  :     0.010923 (c=  0.10451171)
   228a -> 241a  :     0.013962 (c=  0.11816178)
   229a -> 241a  :     0.034278 (c=  0.18514337)
   230a -> 241a  :     0.012385 (c=  0.11128919)
   230a -> 242a  :     0.123241 (c=  0.35105685)
   230a -> 243a  :     0.015102 (c=  0.12288914)
   232a -> 243a  :     0.011366 (c= -0.10660920)
   233a -> 242a  :     0.073981 (c= -0.27199359)
   236a -> 243a  :     0.139432 (c= -0.37340614)
   237a -> 245a  :     0.046590 (c=  0.21584736)
   239a -> 247a  :     0.023693 (c=  0.15392544)
   239a -> 249a  :     0.139258 (c=  0.37317305)
   239a -> 250a  :     0.016450 (c=  0.12825711)
   239a -> 251a  :     0.014100 (c=  0.11874306)

STATE 50:  E=   0.168282 au      4.579 eV    36933.7 cm**-1
   224a -> 240a  :     0.108351 (c= -0.32916712)
   224a -> 241a  :     0.022023 (c=  0.14840015)
   225a -> 241a  :     0.156408 (c= -0.39548414)
   226a -> 241a  :     0.031790 (c= -0.17829616)
   227a -> 242a  :     0.013320 (c=  0.11541204)
   228a -> 241a  :     0.053107 (c= -0.23045000)
   230a -> 242a  :     0.076288 (c=  0.27620232)
   230a -> 243a  :     0.025680 (c=  0.16025073)
   232a -> 242a  :     0.188151 (c= -0.43376424)
   232a -> 243a  :     0.022340 (c= -0.14946492)
   233a -> 242a  :     0.032781 (c= -0.18105661)
   233a -> 243a  :     0.023770 (c= -0.15417381)
   237a -> 243a  :     0.010411 (c=  0.10203667)
   237a -> 245a  :     0.010547 (c= -0.10269791)
   238a -> 247a  :     0.072517 (c=  0.26929045)


-----------------------------
TD-DFT/TDA-EXCITATION SPECTRA
-----------------------------

Center of mass = ( -8.1900,  3.7245,  0.2300)
Calculating the Dipole integrals                  ... done
Transforming integrals                            ... done
Calculating the Linear Momentum integrals         ... done
Transforming integrals                            ... done
Calculating angular momentum integrals            ... done
Transforming integrals                            ... done

-----------------------------------------------------------------------------
         ABSORPTION SPECTRUM VIA TRANSITION ELECTRIC DIPOLE MOMENTS
-----------------------------------------------------------------------------
State   Energy    Wavelength  fosc         T2        TX        TY        TZ  
        (cm-1)      (nm)                 (au**2)    (au)      (au)      (au) 
-----------------------------------------------------------------------------
   1   18598.3    537.7   1.064603593  18.84472  -3.70999   2.25271  -0.07769
   2   20575.2    486.0   0.070649934   1.13043  -0.51365  -0.93056   0.02557
   3   20833.2    480.0   0.444771132   7.02838  -2.56021   0.68623  -0.05270
   4   23629.7    423.2   0.053451796   0.74470  -0.27364  -0.81735   0.04195
   5   24442.6    409.1   0.204834717   2.75888  -0.43037  -1.60403  -0.02751
   6   25104.4    398.3   0.089282885   1.17083   0.64403  -0.86947  -0.00895
   7   25689.7    389.3   0.001386061   0.01776  -0.11994   0.04345   0.03858
   8   26316.3    380.0   0.024731239   0.30938  -0.42347  -0.36061   0.00418
   9   26880.4    372.0   0.191640025   2.34707  -1.13266   1.03152   0.01168
  10   27144.8    368.4   0.058696162   0.71187  -0.50337  -0.67394   0.06546
  11   27384.9    365.2   0.017139542   0.20605  -0.05730  -0.45010  -0.01312
  12   27481.0    363.9   0.269817833   3.23231   1.64156   0.73249  -0.03256
  13   28198.6    354.6   0.166060672   1.93872  -1.38968  -0.08291   0.02516
  14   28641.9    349.1   0.024553156   0.28222  -0.44155  -0.29522   0.00941
  15   28816.2    347.0   0.092321951   1.05474   0.43027   0.93226  -0.02211
  16   29112.4    343.5   0.019589748   0.22153  -0.42965   0.19214   0.00300
  17   30114.5    332.1   0.022194917   0.24263   0.47190   0.13951  -0.02206
  18   30343.2    329.6   0.067849560   0.73614   0.29766   0.80451   0.01731
  19   30761.3    325.1   0.071706899   0.76742   0.75270   0.44727   0.02848
  20   30847.5    324.2   0.049492499   0.52820   0.04344   0.72405  -0.04544
  21   30874.3    323.9   0.010899181   0.11622  -0.02955   0.33957  -0.00578
  22   31166.4    320.9   0.002862393   0.03024   0.14115  -0.09657  -0.03142
  23   31590.7    316.5   0.016454476   0.17147   0.37273  -0.17213   0.05402
  24   31655.5    315.9   0.022255698   0.23146   0.40996   0.25130   0.01551
  25   32023.1    312.3   0.001078026   0.01108  -0.03680  -0.09156   0.03667
  26   32057.8    311.9   0.022731539   0.23344  -0.45765  -0.15488  -0.00332
  27   32240.9    310.2   0.008775012   0.08960  -0.19055  -0.22747  -0.03938
  28   32283.9    309.8   0.067339689   0.68669   0.60601   0.56476  -0.02220
  29   32503.8    307.7   0.028231141   0.28594  -0.51184  -0.14845   0.04377
  30   32765.1    305.2   0.028138064   0.28272  -0.50605  -0.12749   0.10189
  31   33347.1    299.9   0.003897755   0.03848   0.11996   0.15042   0.03827
  32   33425.4    299.2   0.050027245   0.49273   0.65949  -0.20082   0.13217
  33   33564.7    297.9   0.035001332   0.34330   0.20206   0.54284   0.08830
  34   33902.1    295.0   0.005575203   0.05414   0.22170  -0.03521   0.06124
  35   34095.0    293.3   0.012294763   0.11871  -0.33354  -0.03959   0.07679
  36   34219.9    292.2   0.062299007   0.59935  -0.47405  -0.60470  -0.09464
  37   34357.1    291.1   0.109953535   1.05358  -0.36118  -0.95252   0.12582
  38   34574.4    289.2   0.105592517   1.00544   0.79671  -0.60744   0.04136
  39   34718.2    288.0   0.032575628   0.30890   0.18413   0.51276  -0.10986
  40   35002.5    285.7   0.192129880   1.80706  -1.03115  -0.86153   0.03957
  41   35053.9    285.3   0.025011374   0.23490  -0.46312  -0.10665  -0.09508
  42   35357.0    282.8   0.009422469   0.08773   0.19382  -0.22279  -0.02311
  43   35535.0    281.4   0.006152573   0.05700  -0.23742   0.01639   0.01905
  44   35703.1    280.1   0.008333809   0.07684  -0.25950  -0.07867   0.05760
  45   36036.2    277.5   0.006834603   0.06244   0.15818   0.19300  -0.01295
  46   36052.2    277.4   0.003531229   0.03225  -0.00553  -0.17933   0.00741
  47   36270.9    275.7   0.008420840   0.07643  -0.26802  -0.02136   0.06434
  48   36417.4    274.6   0.005088340   0.04600  -0.20592   0.05631   0.02061
  49   36601.5    273.2   0.003410409   0.03067   0.14650  -0.08655   0.04151
  50   36933.7    270.8   0.010054570   0.08962  -0.10771  -0.27813  -0.02577

-----------------------------------------------------------------------------
         ABSORPTION SPECTRUM VIA TRANSITION VELOCITY DIPOLE MOMENTS
-----------------------------------------------------------------------------
State   Energy    Wavelength   fosc        P2         PX        PY        PZ  
        (cm-1)      (nm)                 (au**2)     (au)      (au)      (au) 
-----------------------------------------------------------------------------
   1   18598.3    537.7   0.242837321   0.03087   0.17272  -0.03160  -0.00596
   2   20575.2    486.0   0.000990923   0.00014  -0.01051  -0.00529   0.00088
   3   20833.2    480.0   0.171296193   0.02439   0.14554  -0.05644  -0.00479
   4   23629.7    423.2   0.002168117   0.00035  -0.01381   0.01212   0.00356
   5   24442.6    409.1   0.029885569   0.00499   0.05233   0.04727  -0.00444
   6   25104.4    398.3   0.022557604   0.00387  -0.03915   0.04831  -0.00203
   7   25689.7    389.3   0.004869964   0.00086   0.02394  -0.01573   0.00586
   8   26316.3    380.0   0.006839689   0.00123   0.02948  -0.01869   0.00342
   9   26880.4    372.0   0.047534346   0.00873   0.08705  -0.03337   0.00647
  10   27144.8    368.4   0.019048599   0.00353   0.05680   0.01621   0.00673
  11   27384.9    365.2   0.003440571   0.00064  -0.00208   0.02216   0.01220
  12   27481.0    363.9   0.061952551   0.01164  -0.10495  -0.02489   0.00134
  13   28198.6    354.6   0.047700154   0.00919   0.09579  -0.00383  -0.00147
  14   28641.9    349.1   0.012783645   0.00250   0.02270   0.04456   0.00108
  15   28816.2    347.0   0.008056060   0.00159  -0.01172  -0.03800  -0.00233
  16   29112.4    343.5   0.001960233   0.00039   0.01760  -0.00844  -0.00301
  17   30114.5    332.1   0.007426829   0.00153  -0.03739  -0.00301  -0.01103
  18   30343.2    329.6   0.023171653   0.00481  -0.00680  -0.06833   0.00953
  19   30761.3    325.1   0.005826854   0.00123  -0.02589  -0.02200   0.00839
  20   30847.5    324.2   0.012600824   0.00266   0.00911  -0.05045  -0.00535
  21   30874.3    323.9   0.004259208   0.00090   0.00963  -0.02839   0.00043
  22   31166.4    320.9   0.010160871   0.00216  -0.02598   0.03855  -0.00174
  23   31590.7    316.5   0.002591177   0.00056  -0.02014  -0.00007   0.01241
  24   31655.5    315.9   0.012331526   0.00267  -0.04296  -0.02868  -0.00048
  25   32023.1    312.3   0.001261862   0.00028   0.00429   0.01514   0.00534
  26   32057.8    311.9   0.004605358   0.00101   0.03084  -0.00717  -0.00255
  27   32240.9    310.2   0.005802433   0.00128   0.01947   0.02286  -0.01942
  28   32283.9    309.8   0.007653668   0.00169  -0.02590  -0.03124  -0.00649
  29   32503.8    307.7   0.006763322   0.00150   0.03770   0.00436   0.00788
  30   32765.1    305.2   0.018425061   0.00413   0.06014   0.00879   0.02078
  31   33347.1    299.9   0.007827529   0.00178   0.02870   0.03097   0.00106
  32   33425.4    299.2   0.018646796   0.00426  -0.05977  -0.02331   0.01198
  33   33564.7    297.9   0.008414294   0.00193   0.01160  -0.03948   0.01540
  34   33902.1    295.0   0.005427502   0.00126   0.01602   0.02857   0.01358
  35   34095.0    293.3   0.003832304   0.00089   0.01843   0.01524   0.01792
  36   34219.9    292.2   0.017902836   0.00419  -0.00901   0.06123  -0.01890
  37   34357.1    291.1   0.010829175   0.00254   0.02860   0.04032   0.00993
  38   34574.4    289.2   0.007226536   0.00171  -0.02504   0.02674   0.01912
  39   34718.2    288.0   0.009454985   0.00224   0.04515   0.01125  -0.00884
  40   35002.5    285.7   0.008539070   0.00204   0.04279  -0.00869   0.01168
  41   35053.9    285.3   0.001092795   0.00026   0.01172  -0.00900  -0.00659
  42   35357.0    282.8   0.000391603   0.00009   0.00290  -0.00721  -0.00585
  43   35535.0    281.4   0.000387630   0.00009   0.00902   0.00176   0.00311
  44   35703.1    280.1   0.002209306   0.00054   0.02244   0.00506   0.00314
  45   36036.2    277.5   0.000136144   0.00003   0.00155   0.00071  -0.00553
  46   36052.2    277.4   0.001055944   0.00026  -0.00043   0.01612  -0.00053
  47   36270.9    275.7   0.008459833   0.00210   0.02686   0.03483   0.01275
  48   36417.4    274.6   0.003303012   0.00082   0.02252  -0.01707   0.00486
  49   36601.5    273.2   0.001097802   0.00027   0.00602   0.01525   0.00241
  50   36933.7    270.8   0.004189097   0.00106  -0.01097  -0.03013  -0.00542

-------------------------------------------------------------------
                             CD SPECTRUM
-------------------------------------------------------------------
State  Energy     Wavelength     R         MX        MY        MZ   
       (cm-1)       (nm)     (1e40*cgs)   (au)      (au)      (au)  
-------------------------------------------------------------------
   1   18598.3    537.7    -22.88280   0.00144  -0.03055  -0.32985
   2   20575.2    486.0     18.76729  -0.02270  -0.02565   0.16739
   3   20833.2    480.0    -27.28941   0.02950   0.00294  -0.29634
   4   23629.7    423.2     11.22387  -0.05248   0.00248   0.27358
   5   24442.6    409.1    -32.34135   0.02749   0.04210  -0.39112
   6   25104.4    398.3    -67.39823   0.01754   0.18107  -0.35573
   7   25689.7    389.3      8.57339  -0.11510   0.04546   0.06234
   8   26316.3    380.0     -3.98470  -0.04014   0.07093   0.02984
   9   26880.4    372.0      1.98888  -0.02366  -0.02172  -0.01506
  10   27144.8    368.4    -25.39506   0.01683   0.04804  -0.19891
  11   27384.9    365.2     28.56074   0.02653  -0.13402  -0.13568
  12   27481.0    363.9    -51.51600  -0.02096  -0.08151   0.46543
  13   28198.6    354.6     19.66980  -0.03613   0.00658  -0.31588
  14   28641.9    349.1     -3.20057   0.01605  -0.00836  -0.23041
  15   28816.2    347.0     67.42759  -0.04239   0.15679  -0.68272
  16   29112.4    343.5     -4.31330   0.02297   0.00203   0.11009
  17   30114.5    332.1     -0.27822  -0.00276  -0.00724  -0.07804
  18   30343.2    329.6    -39.64698   0.01453  -0.11365   0.17428
  19   30761.3    325.1     14.31122   0.03994   0.01032  -0.15196
  20   30847.5    324.2     -4.28041   0.02341  -0.01310   0.01352
  21   30874.3    323.9     -0.64041   0.00668  -0.00353  -0.00626
  22   31166.4    320.9      3.78228   0.01063  -0.00620  -0.18849
  23   31590.7    316.5     10.86572   0.05326   0.03126   0.15879
  24   31655.5    315.9     -5.86239  -0.01520  -0.04843   0.38464
  25   32023.1    312.3      0.35819   0.02869  -0.05590  -0.09005
  26   32057.8    311.9      6.02050  -0.02122  -0.01820  -0.07309
  27   32240.9    310.2     12.52401  -0.01791  -0.11814   0.09451
  28   32283.9    309.8    -22.95427  -0.03126  -0.04358   0.23103
  29   32503.8    307.7     -0.43964   0.00974  -0.02535   0.00664
  30   32765.1    305.2     16.94485  -0.04044  -0.03895   0.10315
  31   33347.1    299.9     12.74474   0.04836   0.04741   0.36845
  32   33425.4    299.2     -7.71333   0.01784   0.04413  -0.14575
  33   33564.7    297.9    -22.55876  -0.02742  -0.07681  -0.00698
  34   33902.1    295.0     -9.87917  -0.04085   0.00741  -0.19003
  35   34095.0    293.3      3.15246  -0.06461  -0.07430  -0.23189
  36   34219.9    292.2     -6.79715   0.02423   0.09818  -0.59632
  37   34357.1    291.1     61.14760  -0.06162  -0.10214   0.08068
  38   34574.4    289.2      0.97986  -0.07042  -0.10482  -0.13263
  39   34718.2    288.0      5.97238  -0.01143   0.01426  -0.06791
  40   35002.5    285.7     38.25437   0.03332  -0.12107   0.28293
  41   35053.9    285.3      6.28031  -0.03846  -0.10291   0.16268
  42   35357.0    282.8     10.99072   0.01949  -0.09607   0.08080
  43   35535.0    281.4     -0.25901   0.00793   0.03638   0.03871
  44   35703.1    280.1      8.45961  -0.02600   0.02306   0.22587
  45   36036.2    277.5      2.49877   0.01883   0.00370  -0.12407
  46   36052.2    277.4     -3.13476   0.08622   0.03238  -0.04941
  47   36270.9    275.7      1.47263   0.02615   0.05887   0.17701
  48   36417.4    274.6      7.62731  -0.08255   0.02483  -0.10766
  49   36601.5    273.2      8.68811   0.06985  -0.03692   0.12049
  50   36933.7    270.8     -0.10112   0.00952  -0.00042  -0.02694

Total run time:   118032.677 sec

           *** ORCA-CIS/TD-DFT FINISHED WITHOUT ERROR ***

-----------------------
CIS/TD-DFT TOTAL ENERGY
-----------------------

    E(SCF)  =  -5989.617061431 Eh
    DE(CIS) =      0.084740184 Eh (Root  1)
    ----------------------------- ---------
    E(tot)  =  -5989.532321247 Eh


-------------------------   --------------------
FINAL SINGLE POINT ENERGY     -5989.532321247219
-------------------------   --------------------


                            ***************************************
                            *     ORCA property calculations      *
                            ***************************************

                                    ---------------------
                                    Active property flags
                                    ---------------------
   (+) Dipole Moment


------------------------------------------------------------------------------
                       ORCA ELECTRIC PROPERTIES CALCULATION
------------------------------------------------------------------------------

Dipole Moment Calculation                       ... on
Quadrupole Moment Calculation                   ... off
Polarizability Calculation                      ... off
GBWName                                         ... PBDB-T-2Cl_dimer.gbw
Electron density file                           ... PBDB-T-2Cl_dimer.scfp
The origin for moment calculation is the CENTER OF MASS  = (-8.190042,  3.724515  0.229969)

-------------
DIPOLE MOMENT
-------------
                                X             Y             Z
Electronic contribution:     31.48267       8.48329       9.08035
Nuclear contribution   :    -31.25352      -8.58148      -9.34233
                        -----------------------------------------
Total Dipole Moment    :      0.22915      -0.09819      -0.26198
                        -----------------------------------------
Magnitude (a.u.)       :      0.36164
Magnitude (Debye)      :      0.91922



--------------------
Rotational spectrum 
--------------------
 
Rotational constants in cm-1:     0.001354     0.000513     0.000377 
Rotational constants in MHz :    40.577195    15.372140    11.302200 

 Dipole components along the rotational axes: 
x,y,z [a.u.] :     0.248510     0.014755    -0.262317 
x,y,z [Debye]:     0.631661     0.037504    -0.666757 

 

Timings for individual modules:

Sum of individual times         ...   129258.574 sec (=2154.310 min)
GTO integral calculation        ...        5.124 sec (=   0.085 min)   0.0 %
SCF iterations                  ...    11220.659 sec (= 187.011 min)   8.7 %
CIS module                      ...   118032.791 sec (=1967.213 min)  91.3 %
                             ****ORCA TERMINATED NORMALLY****
TOTAL RUN TIME: 1 days 11 hours 54 minutes 19 seconds 747 msec
