
                                 *****************
                                 * O   R   C   A *
                                 *****************

           --- An Ab Initio, DFT and Semiempirical electronic structure package ---

                  #######################################################
                  #                        -***-                        #
                  #          Department of theory and spectroscopy      #
                  #               Directorship: Frank Neese             #
                  #        Max Planck Institute fuer Kohlenforschung    #
                  #                Kaiser Wilhelm Platz 1               #
                  #                 D-45470 Muelheim/Ruhr               #
                  #                      Germany                        #
                  #                                                     #
                  #                  All rights reserved                #
                  #                        -***-                        #
                  #######################################################


                         Program Version 4.2.0 -  RELEASE  -


 With contributions from (in alphabetic order):
   Daniel Aravena         : Magnetic Suceptibility
   Michael Atanasov       : Ab Initio Ligand Field Theory (pilot matlab implementation)
   Alexander A. Auer      : GIAO ZORA, VPT2
   Ute Becker             : Parallelization
   Giovanni Bistoni       : ED, misc. LED, open-shell LED, HFLED
   Martin Brehm           : Molecular dynamics
   Dmytro Bykov           : SCF Hessian
   Vijay G. Chilkuri      : MRCI spin determinant printing, contributions to CSF-ICE
   Dipayan Datta          : RHF DLPNO-CCSD density
   Achintya Kumar Dutta   : EOM-CC, STEOM-CC
   Dmitry Ganyushin       : Spin-Orbit,Spin-Spin,Magnetic field MRCI
   Miquel Garcia          : C-PCM Hessian, Gaussian charge scheme
   Yang Guo               : DLPNO-NEVPT2, CIM, IAO-localization
   Andreas Hansen         : Spin unrestricted coupled pair/coupled cluster methods
   Benjamin Helmich-Paris : CASSCF linear response (MC-RPA)
   Lee Huntington         : MR-EOM, pCC
   Robert Izsak           : Overlap fitted RIJCOSX, COSX-SCS-MP3, EOM
   Christian Kollmar      : KDIIS, OOCD, Brueckner-CCSD(T), CCSD density
   Simone Kossmann        : Meta GGA functionals, TD-DFT gradient, OOMP2, MP2 Hessian
   Martin Krupicka        : AUTO-CI
   Lucas Lang             : DCDCAS
   Dagmar Lenk            : GEPOL surface, SMD
   Dimitrios Liakos       : Extrapolation schemes; Compound Job, initial MDCI parallelization
   Dimitrios Manganas     : Further ROCIS development; embedding schemes
   Dimitrios Pantazis     : SARC Basis sets
   Taras Petrenko         : DFT Hessian,TD-DFT gradient, ASA, ECA, R-Raman, ABS, FL, XAS/XES, NRVS
   Peter Pinski           : DLPNO-MP2, DLPNO-MP2 Gradient
   Christoph Reimann      : Effective Core Potentials
   Marius Retegan         : Local ZFS, SOC
   Christoph Riplinger    : Optimizer, TS searches, QM/MM, DLPNO-CCSD(T), (RO)-DLPNO pert. Triples
   Tobias Risthaus        : Range-separated hybrids, TD-DFT gradient, RPA, STAB
   Michael Roemelt        : Original ROCIS implementation
   Masaaki Saitow         : Open-shell DLPNO-CCSD energy and density
   Barbara Sandhoefer     : DKH picture change effects
   Avijit Sen             : IP-ROCIS
   Kantharuban Sivalingam : CASSCF convergence, NEVPT2, FIC-MRCI
   Bernardo de Souza      : ESD, SOC TD-DFT
   Georgi Stoychev        : AutoAux, RI-MP2 NMR
   Willem Van den Heuvel  : Paramagnetic NMR
   Boris Wezisla          : Elementary symmetry handling
   Frank Wennmohs         : Technical directorship


 We gratefully acknowledge several colleagues who have allowed us to
 interface, adapt or use parts of their codes:
   Stefan Grimme, W. Hujo, H. Kruse,             : VdW corrections, initial TS optimization,
                  C. Bannwarth                     DFT functionals, gCP, sTDA/sTD-DF
   Ed Valeev, F. Pavosevic, A. Kumar             : LibInt (2-el integral package), F12 methods
   Garnet Chan, S. Sharma, J. Yang, R. Olivares  : DMRG
   Ulf Ekstrom                                   : XCFun DFT Library
   Mihaly Kallay                                 : mrcc  (arbitrary order and MRCC methods)
   Andreas Klamt, Michael Diedenhofen            : otool_cosmo (COSMO solvation model)
   Jiri Pittner, Ondrej Demel                    : Mk-CCSD
   Frank Weinhold                                : gennbo (NPA and NBO analysis)
   Christopher J. Cramer and Donald G. Truhlar   : smd solvation model
   Lars Goerigk                                  : TD-DFT with DH, B97 family of functionals
   V. Asgeirsson, H. Jonsson                     : NEB implementation
   FAccTs GmbH                                   : IRC, NEB, NEB-TS, Multilevel, MM, QM/MM, CI optimization
   S Lehtola, MJT Oliveira, MAL Marques          : LibXC Library


 Your calculation uses the libint2 library for the computation of 2-el integrals
 For citations please refer to: http://libint.valeyev.net

 Your ORCA version has been built with support for libXC version: 4.2.3
 For citations please refer to: https://tddft.org/programs/libxc/

 This ORCA versions uses:
   CBLAS   interface :  Fast vector & matrix operations
   LAPACKE interface :  Fast linear algebra routines
   SCALAPACK package :  Parallel linear algebra routines


----- Orbital basis set information -----
Your calculation utilizes the basis: def2-TZVP
   F. Weigend and R. Ahlrichs, Phys. Chem. Chem. Phys. 7, 3297 (2005).

----- AuxJ basis set information -----
Your calculation utilizes the auxiliary basis: def2/J
   F. Weigend, Phys. Chem. Chem. Phys. 8, 1057 (2006).

================================================================================
                                        WARNINGS
                       Please study these warnings very carefully!
================================================================================

INFO   : Checking CIS options ...

WARNING: CIS/ROCIS methods need fully converged wavefunctions
  ===> : Setting SCFConvForced true
         You can overwrite this default with %scf ConvForced false 


INFO   : the flag for use of LIBINT has been found!

================================================================================
                                       INPUT FILE
================================================================================
NAME = PBDB-T-2Cl_dimer.inp
|  1> # ORCA input file
|  2> # PBDB-T-2Cl_dimer.out: Geometry 39
|  3> ! B3LYP def2-TZVP def2/J RIJCOSX Grid4 TightSCF
|  4> 
|  5> %maxcore 6000
|  6> %tddft
|  7>   maxdim 5
|  8>   nroots 50
|  9>   end
| 10> %pal
| 11>   nprocs 6
| 12>   end
| 13> 
| 14> 
| 15> * xyz 0 1
| 16>    C        0.61532         1.58147         0.53681
| 17>    C        1.60790         0.59501         0.72374
| 18>    C        1.23212        -0.78026         0.79264
| 19>    C       -0.09140        -1.22850         0.66767
| 20>    C       -1.09359        -0.23742         0.51200
| 21>    C       -0.71093         1.13807         0.45888
| 22>    C        3.03549         0.76372         0.81751
| 23>    C        3.72017        -0.41068         0.93078
| 24>    S        2.65018        -1.80700         0.94585
| 25>    C       -2.51611        -0.39650         0.37048
| 26>    C       -3.18652         0.79338         0.20624
| 27>    S       -2.09053         2.17812         0.19462
| 28>    C        0.92767         3.00243         0.32526
| 29>    C       -0.36501        -2.66947         0.60599
| 30>    C        0.40325         4.10644         0.95673
| 31>    C        0.83049         5.32911         0.35446
| 32>    C        1.65709         5.17755        -0.73539
| 33>    S        1.94044         3.48339        -1.01907
| 34>    C        0.10868        -3.66737         1.42726
| 35>    C       -0.19637        -4.96976         0.93184
| 36>    C       -0.88249        -4.98875        -0.26070
| 37>    S       -1.18551        -3.35532        -0.78125
| 38>    C        2.27851         6.23247        -1.59908
| 39>    C        3.75029         6.52256        -1.27473
| 40>    C       -1.35533        -6.17068        -1.05008
| 41>    C       -2.82231        -6.54369        -0.79471
| 42>    C        5.19598        -0.61757         1.04391
| 43>    C       -4.60229         1.05176         0.05164
| 44>    C       -5.63868         0.21163        -0.32516
| 45>    C       -6.89557         0.85845        -0.41437
| 46>    C       -6.84765         2.21590        -0.11202
| 47>    S       -5.20408         2.66143         0.33748
| 48>    C       -7.83724         3.27778        -0.11738
| 49>    S       -7.18879         4.90747        -0.09327
| 50>    C       -8.75469         5.65761         0.03983
| 51>    C       -9.75279         4.68671         0.02595
| 52>    C       -9.23860         3.33338        -0.10225
| 53>    C      -11.19160         4.97426         0.25903
| 54>    C      -12.06743         3.79140         0.30474
| 55>    C      -11.58372         2.46254         0.02399
| 56>    C      -10.15253         2.17111        -0.21003
| 57>    C      -13.43029         3.84691         0.54553
| 58>    S      -14.11414         2.25335         0.40413
| 59>    C      -12.58960         1.51227         0.02432
| 60>    C       -8.77516         7.10682         0.11028
| 61>    C       -9.67520         8.02567        -0.39885
| 62>    C       -9.27656         9.37313        -0.18960
| 63>    S       -7.42402         7.93565         0.86852
| 64>    O      -11.63221         6.10980         0.40881
| 65>    O       -9.76653         1.03746        -0.48635
| 66>    C      -14.28044         5.03669         0.88341
| 67>    C      -15.74582         4.72227         1.18276
| 68>    C      -12.55279         0.05997        -0.34195
| 69>    C      -12.57509        -0.14583        -1.86309
| 70>    C       -8.08108         9.48125         0.48161
| 71>   Cl        0.33499         6.88575         0.95688
| 72>   Cl        0.27972        -6.41990         1.76770
| 73>    H        3.52683         1.73625         0.78975
| 74>    H       -3.01907        -1.36146         0.41923
| 75>    H       -0.26469         4.05709         1.81597
| 76>    H        0.65914        -3.48891         2.34977
| 77>    H        1.68263         7.14941        -1.47623
| 78>    H        2.18371         5.93378        -2.65693
| 79>    H        3.85970         6.86791        -0.23480
| 80>    H        4.14977         7.30423        -1.93907
| 81>    H        4.36949         5.62045        -1.40133
| 82>    H       -0.70538        -7.01985        -0.78840
| 83>    H       -1.19924        -5.97508        -2.12428
| 84>    H       -2.97833        -6.80697         0.26292
| 85>    H       -3.11901        -7.40566        -1.41186
| 86>    H       -3.49321        -5.70512        -1.03841
| 87>    H        5.72335         0.33858         0.91916
| 88>    H        5.56553        -1.31633         0.27641
| 89>    H        5.47261        -1.04068         2.02485
| 90>    H       -5.48261        -0.83967        -0.57023
| 91>    H       -7.82442         0.38050        -0.70878
| 92>    H      -10.59207         7.72487        -0.89681
| 93>    H       -9.85824        10.23257        -0.52399
| 94>    H      -14.19393         5.76082         0.05545
| 95>    H      -13.80805         5.55648         1.73327
| 96>    H      -16.25522         4.28330         0.30933
| 97>    H      -16.28916         5.63758         1.46017
| 98>    H      -15.84608         4.01086         2.01844
| 99>    H      -13.41148        -0.45366         0.11911
|100>    H      -11.63534        -0.38110         0.07038
|101>    H      -13.45287         0.33975        -2.31684
|102>    H      -12.60810        -1.21774        -2.11337
|103>    H      -11.67117         0.28445        -2.31666
|104>    H       -7.55726        10.38537         0.78741
|105> *
|106> 
|107>                          ****END OF INPUT****
================================================================================

                       ****************************
                       * Single Point Calculation *
                       ****************************

---------------------------------
CARTESIAN COORDINATES (ANGSTROEM)
---------------------------------
  C      0.615320    1.581470    0.536810
  C      1.607900    0.595010    0.723740
  C      1.232120   -0.780260    0.792640
  C     -0.091400   -1.228500    0.667670
  C     -1.093590   -0.237420    0.512000
  C     -0.710930    1.138070    0.458880
  C      3.035490    0.763720    0.817510
  C      3.720170   -0.410680    0.930780
  S      2.650180   -1.807000    0.945850
  C     -2.516110   -0.396500    0.370480
  C     -3.186520    0.793380    0.206240
  S     -2.090530    2.178120    0.194620
  C      0.927670    3.002430    0.325260
  C     -0.365010   -2.669470    0.605990
  C      0.403250    4.106440    0.956730
  C      0.830490    5.329110    0.354460
  C      1.657090    5.177550   -0.735390
  S      1.940440    3.483390   -1.019070
  C      0.108680   -3.667370    1.427260
  C     -0.196370   -4.969760    0.931840
  C     -0.882490   -4.988750   -0.260700
  S     -1.185510   -3.355320   -0.781250
  C      2.278510    6.232470   -1.599080
  C      3.750290    6.522560   -1.274730
  C     -1.355330   -6.170680   -1.050080
  C     -2.822310   -6.543690   -0.794710
  C      5.195980   -0.617570    1.043910
  C     -4.602290    1.051760    0.051640
  C     -5.638680    0.211630   -0.325160
  C     -6.895570    0.858450   -0.414370
  C     -6.847650    2.215900   -0.112020
  S     -5.204080    2.661430    0.337480
  C     -7.837240    3.277780   -0.117380
  S     -7.188790    4.907470   -0.093270
  C     -8.754690    5.657610    0.039830
  C     -9.752790    4.686710    0.025950
  C     -9.238600    3.333380   -0.102250
  C    -11.191600    4.974260    0.259030
  C    -12.067430    3.791400    0.304740
  C    -11.583720    2.462540    0.023990
  C    -10.152530    2.171110   -0.210030
  C    -13.430290    3.846910    0.545530
  S    -14.114140    2.253350    0.404130
  C    -12.589600    1.512270    0.024320
  C     -8.775160    7.106820    0.110280
  C     -9.675200    8.025670   -0.398850
  C     -9.276560    9.373130   -0.189600
  S     -7.424020    7.935650    0.868520
  O    -11.632210    6.109800    0.408810
  O     -9.766530    1.037460   -0.486350
  C    -14.280440    5.036690    0.883410
  C    -15.745820    4.722270    1.182760
  C    -12.552790    0.059970   -0.341950
  C    -12.575090   -0.145830   -1.863090
  C     -8.081080    9.481250    0.481610
  Cl     0.334990    6.885750    0.956880
  Cl     0.279720   -6.419900    1.767700
  H      3.526830    1.736250    0.789750
  H     -3.019070   -1.361460    0.419230
  H     -0.264690    4.057090    1.815970
  H      0.659140   -3.488910    2.349770
  H      1.682630    7.149410   -1.476230
  H      2.183710    5.933780   -2.656930
  H      3.859700    6.867910   -0.234800
  H      4.149770    7.304230   -1.939070
  H      4.369490    5.620450   -1.401330
  H     -0.705380   -7.019850   -0.788400
  H     -1.199240   -5.975080   -2.124280
  H     -2.978330   -6.806970    0.262920
  H     -3.119010   -7.405660   -1.411860
  H     -3.493210   -5.705120   -1.038410
  H      5.723350    0.338580    0.919160
  H      5.565530   -1.316330    0.276410
  H      5.472610   -1.040680    2.024850
  H     -5.482610   -0.839670   -0.570230
  H     -7.824420    0.380500   -0.708780
  H    -10.592070    7.724870   -0.896810
  H     -9.858240   10.232570   -0.523990
  H    -14.193930    5.760820    0.055450
  H    -13.808050    5.556480    1.733270
  H    -16.255220    4.283300    0.309330
  H    -16.289160    5.637580    1.460170
  H    -15.846080    4.010860    2.018440
  H    -13.411480   -0.453660    0.119110
  H    -11.635340   -0.381100    0.070380
  H    -13.452870    0.339750   -2.316840
  H    -12.608100   -1.217740   -2.113370
  H    -11.671170    0.284450   -2.316660
  H     -7.557260   10.385370    0.787410

----------------------------
CARTESIAN COORDINATES (A.U.)
----------------------------
  NO LB      ZA    FRAG     MASS         X           Y           Z
   0 C     6.0000    0    12.011    1.162786    2.988545    1.014424
   1 C     6.0000    0    12.011    3.038491    1.124406    1.367670
   2 C     6.0000    0    12.011    2.328369   -1.474478    1.497873
   3 C     6.0000    0    12.011   -0.172721   -2.321529    1.261713
   4 C     6.0000    0    12.011   -2.066586   -0.448659    0.967540
   5 C     6.0000    0    12.011   -1.343463    2.150641    0.867158
   6 C     6.0000    0    12.011    5.736245    1.443222    1.544870
   7 C     6.0000    0    12.011    7.030102   -0.776073    1.758919
   8 S    16.0000    0    32.060    5.008114   -3.414735    1.787397
   9 C     6.0000    0    12.011   -4.754759   -0.749276    0.700106
  10 C     6.0000    0    12.011   -6.021650    1.499271    0.389737
  11 S    16.0000    0    32.060   -3.950529    4.116050    0.367779
  12 C     6.0000    0    12.011    1.753042    5.673770    0.614652
  13 C     6.0000    0    12.011   -0.689769   -5.044567    1.145155
  14 C     6.0000    0    12.011    0.762032    7.760047    1.807958
  15 C     6.0000    0    12.011    1.569399   10.070558    0.669832
  16 C     6.0000    0    12.011    3.131446    9.784152   -1.389686
  17 S    16.0000    0    32.060    3.666900    6.582653   -1.925763
  18 C     6.0000    0    12.011    0.205375   -6.930325    2.697131
  19 C     6.0000    0    12.011   -0.371086   -9.391485    1.760922
  20 C     6.0000    0    12.011   -1.667664   -9.427371   -0.492652
  21 S    16.0000    0    32.060   -2.240289   -6.340636   -1.476349
  22 C     6.0000    0    12.011    4.305760   11.777661   -3.021823
  23 C     6.0000    0    12.011    7.087021   12.325852   -2.408891
  24 C     6.0000    0    12.011   -2.561203  -11.660895   -1.984364
  25 C     6.0000    0    12.011   -5.333393  -12.365782   -1.501784
  26 C     6.0000    0    12.011    9.818979   -1.167038    1.972704
  27 C     6.0000    0    12.011   -8.697068    1.987538    0.097585
  28 C     6.0000    0    12.011  -10.655561    0.399923   -0.614463
  29 C     6.0000    0    12.011  -13.030739    1.622235   -0.783046
  30 C     6.0000    0    12.011  -12.940183    4.187444   -0.211687
  31 S    16.0000    0    32.060   -9.834286    5.029374    0.637745
  32 C     6.0000    0    12.011  -14.810237    6.194107   -0.221816
  33 S    16.0000    0    32.060  -13.584844    9.273774   -0.176255
  34 C     6.0000    0    12.011  -16.543966   10.691333    0.075268
  35 C     6.0000    0    12.011  -18.430102    8.856598    0.049038
  36 C     6.0000    0    12.011  -17.458424    6.299175   -0.193224
  37 C     6.0000    0    12.011  -21.149059    9.399989    0.489496
  38 C     6.0000    0    12.011  -22.804138    7.164708    0.575875
  39 C     6.0000    0    12.011  -21.890058    4.653526    0.045335
  40 C     6.0000    0    12.011  -19.185501    4.102803   -0.396899
  41 C     6.0000    0    12.011  -25.379570    7.269606    1.030902
  42 S    16.0000    0    32.060  -26.671859    4.258214    0.763695
  43 C     6.0000    0    12.011  -23.790896    2.857776    0.045958
  44 C     6.0000    0    12.011  -16.582649   13.429943    0.208399
  45 C     6.0000    0    12.011  -18.283478   15.166318   -0.753717
  46 C     6.0000    0    12.011  -17.530158   17.712649   -0.358292
  47 S    16.0000    0    32.060  -14.029365   14.996205    1.641265
  48 O     8.0000    0    15.999  -21.981691   11.545849    0.772539
  49 O     8.0000    0    15.999  -18.456067    1.960515   -0.919068
  50 C     6.0000    0    12.011  -26.986121    9.517965    1.669403
  51 C     6.0000    0    12.011  -29.755288    8.923797    2.235092
  52 C     6.0000    0    12.011  -23.721335    0.113327   -0.646192
  53 C     6.0000    0    12.011  -23.763476   -0.275579   -3.520730
  54 C     6.0000    0    12.011  -15.271028   17.916966    0.910111
  55 Cl   17.0000    0    35.453    0.633039   13.012182    1.808241
  56 Cl   17.0000    0    35.453    0.528594  -12.131853    3.340469
  57 H     1.0000    0     1.008    6.664743    3.281037    1.492411
  58 H     1.0000    0     1.008   -5.705215   -2.572787    0.792230
  59 H     1.0000    0     1.008   -0.500192    7.666789    3.431686
  60 H     1.0000    0     1.008    1.245594   -6.593084    4.440422
  61 H     1.0000    0     1.008    3.179710   13.510427   -2.789670
  62 H     1.0000    0     1.008    4.126614   11.213219   -5.020870
  63 H     1.0000    0     1.008    7.293776   12.978469   -0.443708
  64 H     1.0000    0     1.008    7.841929   13.802994   -3.664311
  65 H     1.0000    0     1.008    8.257139   10.621111   -2.648130
  66 H     1.0000    0     1.008   -1.332975  -13.265594   -1.489860
  67 H     1.0000    0     1.008   -2.266235  -11.291265   -4.014307
  68 H     1.0000    0     1.008   -5.628228  -12.863309    0.496847
  69 H     1.0000    0     1.008   -5.894075  -13.994669   -2.668029
  70 H     1.0000    0     1.008   -6.601210  -10.781114   -1.962311
  71 H     1.0000    0     1.008   10.815564    0.639823    1.736961
  72 H     1.0000    0     1.008   10.517327   -2.487503    0.522339
  73 H     1.0000    0     1.008   10.341734   -1.966600    3.826412
  74 H     1.0000    0     1.008  -10.360631   -1.586746   -1.077579
  75 H     1.0000    0     1.008  -14.786011    0.719041   -1.339400
  76 H     1.0000    0     1.008  -20.016111   14.597889   -1.694725
  77 H     1.0000    0     1.008  -18.629374   19.336755   -0.990198
  78 H     1.0000    0     1.008  -26.822640   10.886372    0.104785
  79 H     1.0000    0     1.008  -26.093433   10.500225    3.275406
  80 H     1.0000    0     1.008  -30.717914    8.094264    0.584549
  81 H     1.0000    0     1.008  -30.782051   10.653482    2.759321
  82 H     1.0000    0     1.008  -29.944751    7.579427    3.814299
  83 H     1.0000    0     1.008  -25.344024   -0.857293    0.225085
  84 H     1.0000    0     1.008  -21.987606   -0.720175    0.132999
  85 H     1.0000    0     1.008  -25.422240    0.642034   -4.378193
  86 H     1.0000    0     1.008  -23.825856   -2.301195   -3.993691
  87 H     1.0000    0     1.008  -22.055315    0.537533   -4.377853
  88 H     1.0000    0     1.008  -14.281152   19.625505    1.487989

--------------------------------
INTERNAL COORDINATES (ANGSTROEM)
--------------------------------
 C      0   0   0     0.000000000000     0.00000000     0.00000000
 C      1   0   0     1.411829031044     0.00000000     0.00000000
 C      2   1   0     1.427349078292   119.63788516     0.00000000
 C      3   2   1     1.402940408178   123.49818209     0.80432037
 C      4   3   2     1.418047076581   116.94978294   357.74686742
 C      1   2   3     1.400576919487   116.86579710     1.41586376
 C      2   1   3     1.440579426863   128.57193846   177.56467310
 C      7   2   1     1.364123218518   113.70165123   183.19039066
 S      3   2   1     1.757430651633   110.77430311   177.12056849
 C      5   4   3     1.438366263231   129.23164655   180.38820466
 C     10   5   4     1.375586696686   113.45784730   181.50526859
 S      6   1   2     1.747808201749   124.57392349   181.44990806
 C      1   2   3     1.470184766143   123.02479151   186.09598740
 C      4   3   2     1.468012736798   119.55031036   173.38996766
 C     13   1   2     1.375721184470   128.94618169   229.28467558
 C     15  13   1     1.428350481990   112.29481133   187.70882720
 C     16  15  13     1.376230727785   114.79033629     0.80776317
 S     17  16  15     1.740959410928   109.50923828   359.14311327
 C     14   4   3     1.376470500592   128.49207240    48.27852025
 C     19  14   4     1.426434783297   112.40225314   189.61154976
 C     20  19  14     1.375962545311   114.85063030     0.65594681
 S     21  20  19     1.740944280498   109.45028144   359.12544934
 C     17  16  15     1.498325545034   128.90673614   179.72292244
 C     23  17  16     1.534761055995   114.14073750   100.62598676
 C     21  20  19     1.497884166049   128.68545450   180.02534831
 C     25  21  20     1.535050688870   113.93764862    96.60786156
 C      8   7   2     1.494529031200   128.39626883   179.77821554
 C     11  10   5     1.447434308458   130.08055099   180.94287463
 C     28  11  10     1.386326400600   130.69845632   340.62910247
 C     29  28  11     1.416371070235   113.81426435   182.49447632
 C     30  29  28     1.391539561565   113.65586210     0.26773792
 S     28  11  10     1.742094491869   119.03200656   161.80378503
 C     31  30  29     1.451518595162   133.57972432   177.13325135
 S     33  31  30     1.754126047552   115.31470092   196.69367058
 C     34  33  31     1.741398414953    93.94766334   184.94652931
 C     35  34  33     1.392495269076   110.08565417   358.27214196
 C     33  31  30     1.402544162050   135.24689956    18.75634172
 C     36  35  34     1.485659956046   123.89365968   173.59168369
 C     38  36  35     1.472523470984   115.17717697   184.53821540
 C     39  38  36     1.441757547648   122.32978852   354.64915752
 C     40  39  38     1.479189515039   122.48053914     5.67027181
 C     39  38  36     1.385080706602   123.94817116   178.25907673
 S     42  39  38     1.739850067132   109.62785042   175.97661950
 C     40  39  38     1.383765788058   112.89393133   184.56270533
 C     35  34  33     1.451065762638   116.52663965   179.56279779
 C     45  35  34     1.383318719963   130.89659629   144.51038987
 C     46  45  35     1.420685701941   113.15520412   184.35264965
 S     45  35  34     1.757118768353   118.76369549   328.70213410
 O     38  36  35     1.227201007211   123.09003598     4.30627320
 O     41  40  39     1.229028504511   121.41128200   182.15415064
 C     42  39  38     1.500831224788   128.92288198   355.93559114
 C     51  42  39     1.528335337320   115.09528900   184.08261460
 C     44  40  39     1.498226945092   130.37281490   173.48001145
 C     53  44  40     1.535160522421   111.82837252   281.29114686
 C     47  46  45     1.375276419088   112.97705986   359.71277977
 Cl    16  15  13     1.741137041131   122.29537855   180.64395398
 Cl    20  19  14     1.740180923726   122.37967090   180.05411032
 H      7   2   1     1.089954225690   123.33702132     2.54615590
 H     10   5   4     1.089262652302   123.38278388     3.29825394
 H     15  13   1     1.089436847045   124.01317867     7.50381995
 H     19  14   4     1.088980662500   124.09641181     9.32654396
 H     23  17  16     1.100429034741   107.32148644   338.75697746
 H     23  17  16     1.103290251294   109.05341769   223.62078501
 H     24  23  17     1.101222763795   110.73981896   300.03666998
 H     24  23  17     1.100881417274   110.77234261   180.07167953
 H     24  23  17     1.101471130852   111.09991185    60.09487553
 H     25  21  20     1.100909221417   107.27783017   334.97515805
 H     25  21  20     1.102963774609   109.18664687   219.89008980
 H     26  25  21     1.101017627334   110.69119816   299.12610293
 H     26  25  21     1.100862068290   110.76688905   179.04976086
 H     26  25  21     1.101224838487   111.12240531    59.07623767
 H     27   8   7     1.099047088118   110.17007640   354.06374835
 H     27   8   7     1.101766304667   111.48638334   233.96396249
 H     27   8   7     1.103535007419   111.58615024   114.41375606
 H     29  28  11     1.090710245574   122.56208727     0.00000000
 H     30  29  28     1.085299854003   125.13135865   178.91901529
 H     46  45  35     1.085861592700   122.28687912     4.85631601
 H     47  46  45     1.090323533682   123.55567340   179.84085212
 H     51  42  39     1.103343101034   107.87441140    59.64920302
 H     51  42  39     1.102540691222   107.73243159   308.37538905
 H     52  51  42     1.102298954821   111.70433315   297.54939939
 H     52  51  42     1.099985027080   110.59829995   177.68699518
 H     52  51  42     1.102051413547   111.62662437    58.02437581
 H     53  44  40     1.101698968230   109.29700597   159.33406595
 H     53  44  40     1.098304728343   108.54352546    41.93145588
 H     54  53  44     1.100988068646   111.15070226   303.71221746
 H     54  53  44     1.101236026744   110.86206162   183.37142466
 H     54  53  44     1.099062322937   110.15059875    63.67340713
 H     55  47  46     1.088730456449   128.35987127   181.24108388

---------------------------
INTERNAL COORDINATES (A.U.)
---------------------------
 C      0   0   0     0.000000000000     0.00000000     0.00000000
 C      1   0   0     2.667970216593     0.00000000     0.00000000
 C      2   1   0     2.697298855476   119.63788516     0.00000000
 C      3   2   1     2.651173153669   123.49818209     0.80432037
 C      4   3   2     2.679720619746   116.94978294   357.74686742
 C      1   2   3     2.646706807322   116.86579710     1.41586376
 C      2   1   3     2.722300590932   128.57193846   177.56467310
 C      7   2   1     2.577819295922   113.70165123   183.19039066
 S      3   2   1     3.321062630946   110.77430311   177.12056849
 C      5   4   3     2.718118317778   129.23164655   180.38820466
 C     10   5   4     2.599482130202   113.45784730   181.50526859
 S      6   1   2     3.302878835926   124.57392349   181.44990806
 C      1   2   3     2.778246574274   123.02479151   186.09598740
 C      4   3   2     2.774142033656   119.55031036   173.38996766
 C     13   1   2     2.599736275282   128.94618169   229.28467558
 C     15  13   1     2.699191234215   112.29481133   187.70882720
 C     16  15  13     2.600699172601   114.79033629     0.80776317
 S     17  16  15     3.289936496927   109.50923828   359.14311327
 C     14   4   3     2.601152277540   128.49207240    48.27852025
 C     19  14   4     2.695571088331   112.40225314   189.61154976
 C     20  19  14     2.600192381172   114.85063030     0.65594681
 S     21  20  19     3.289907904559   109.45028144   359.12544934
 C     17  16  15     2.831424939572   128.90673614   179.72292244
 C     23  17  16     2.900278076839   114.14073750   100.62598676
 C     21  20  19     2.830590854169   128.68545450   180.02534831
 C     25  21  20     2.900825403651   113.93764862    96.60786156
 C      8   7   2     2.824250568163   128.39626883   179.77821554
 C     11  10   5     2.735254439826   130.08055099   180.94287463
 C     28  11  10     2.619777229358   130.69845632   340.62910247
 C     29  28  11     2.676553426754   113.81426435   182.49447632
 C     30  29  28     2.629628675874   113.65586210     0.26773792
 S     28  11  10     3.292081489045   119.03200656   161.80378503
 C     31  30  29     2.742972623150   133.57972432   177.13325135
 S     33  31  30     3.314817834251   115.31470092   196.69367058
 C     34  33  31     3.290766094305    93.94766334   184.94652931
 C     35  34  33     2.631434701335   110.08565417   358.27214196
 C     33  31  30     2.650424357004   135.24689956    18.75634172
 C     36  35  34     2.807490445061   123.89365968   173.59168369
 C     38  36  35     2.782666085932   115.17717697   184.53821540
 C     39  38  36     2.724526916569   122.32978852   354.64915752
 C     40  39  38     2.795263083591   122.48053914     5.67027181
 C     39  38  36     2.617423208855   123.94817116   178.25907673
 S     42  39  38     3.287840140964   109.62785042   175.97661950
 C     40  39  38     2.614938372919   112.89393133   184.56270533
 C     35  34  33     2.742116893695   116.52663965   179.56279779
 C     45  35  34     2.614093536657   130.89659629   144.51038987
 C     46  45  35     2.684706899046   113.15520412   184.35264965
 S     45  35  34     3.320473256961   118.76369549   328.70213410
 O     38  36  35     2.319073814901   123.09003598     4.30627320
 O     41  40  39     2.322527284308   121.41128200   182.15415064
 C     42  39  38     2.836159988088   128.92288198   355.93559114
 C     51  42  39     2.888135228328   115.09528900   184.08261460
 C     44  40  39     2.831238612686   130.37281490   173.48001145
 C     53  44  40     2.901032958983   111.82837252   281.29114686
 C     47  46  45     2.598895790517   112.97705986   359.71277977
 Cl    16  15  13     3.290272169364   122.29537855   180.64395398
 Cl    20  19  14     3.288465369316   122.37967090   180.05411032
 H      7   2   1     2.059714985065   123.33702132     2.54615590
 H     10   5   4     2.058408100759   123.38278388     3.29825394
 H     15  13   1     2.058737281118   124.01317867     7.50381995
 H     19  14   4     2.057875217262   124.09641181     9.32654396
 H     23  17  16     2.079509505475   107.32148644   338.75697746
 H     23  17  16     2.084916421170   109.05341769   223.62078501
 H     24  23  17     2.081009436012   110.73981896   300.03666998
 H     24  23  17     2.080364384572   110.77234261   180.07167953
 H     24  23  17     2.081478781730   111.09991185    60.09487553
 H     25  21  20     2.080416926786   107.27783017   334.97515805
 H     25  21  20     2.084299469647   109.18664687   219.89008980
 H     26  25  21     2.080621784281   110.69119816   299.12610293
 H     26  25  21     2.080327820290   110.76688905   179.04976086
 H     26  25  21     2.081013356611   111.12240531    59.07623767
 H     27   8   7     2.076898004826   110.17007640   354.06374835
 H     27   8   7     2.082036579403   111.48638334   233.96396249
 H     27   8   7     2.085378943217   111.58615024   114.41375606
 H     29  28  11     2.061143655597   122.56208727     0.00000000
 H     30  29  28     2.050919497251   125.13135865   178.91901529
 H     46  45  35     2.051981029546   122.28687912     4.85631601
 H     47  46  45     2.060412876028   123.55567340   179.84085212
 H     51  42  39     2.085016292706   107.87441140    59.64920302
 H     51  42  39     2.083499957914   107.73243159   308.37538905
 H     52  51  42     2.083043142320   111.70433315   297.54939939
 H     52  51  42     2.078670452595   110.59829995   177.68699518
 H     52  51  42     2.082575357104   111.62662437    58.02437581
 H     53  44  40     2.081909331979   109.29700597   159.33406595
 H     53  44  40     2.075495148159   108.54352546    41.93145588
 H     54  53  44     2.080565926455   111.15070226   303.71221746
 H     54  53  44     2.081034499355   110.86206162   183.37142466
 H     54  53  44     2.076926794463   110.15059875    63.67340713
 H     55  47  46     2.057402396348   128.35987127   181.24108388

---------------------
BASIS SET INFORMATION
---------------------
There are 5 groups of distinct atoms

 Group   1 Type C   : 11s6p2d1f contracted to 5s3p2d1f pattern {62111/411/11/1}
 Group   2 Type S   : 14s9p3d1f contracted to 5s5p2d1f pattern {73211/51111/21/1}
 Group   3 Type O   : 11s6p2d1f contracted to 5s3p2d1f pattern {62111/411/11/1}
 Group   4 Type Cl  : 14s9p3d1f contracted to 5s5p2d1f pattern {73211/51111/21/1}
 Group   5 Type H   : 5s1p contracted to 3s1p pattern {311/1}

Atom   0C    basis set group =>   1
Atom   1C    basis set group =>   1
Atom   2C    basis set group =>   1
Atom   3C    basis set group =>   1
Atom   4C    basis set group =>   1
Atom   5C    basis set group =>   1
Atom   6C    basis set group =>   1
Atom   7C    basis set group =>   1
Atom   8S    basis set group =>   2
Atom   9C    basis set group =>   1
Atom  10C    basis set group =>   1
Atom  11S    basis set group =>   2
Atom  12C    basis set group =>   1
Atom  13C    basis set group =>   1
Atom  14C    basis set group =>   1
Atom  15C    basis set group =>   1
Atom  16C    basis set group =>   1
Atom  17S    basis set group =>   2
Atom  18C    basis set group =>   1
Atom  19C    basis set group =>   1
Atom  20C    basis set group =>   1
Atom  21S    basis set group =>   2
Atom  22C    basis set group =>   1
Atom  23C    basis set group =>   1
Atom  24C    basis set group =>   1
Atom  25C    basis set group =>   1
Atom  26C    basis set group =>   1
Atom  27C    basis set group =>   1
Atom  28C    basis set group =>   1
Atom  29C    basis set group =>   1
Atom  30C    basis set group =>   1
Atom  31S    basis set group =>   2
Atom  32C    basis set group =>   1
Atom  33S    basis set group =>   2
Atom  34C    basis set group =>   1
Atom  35C    basis set group =>   1
Atom  36C    basis set group =>   1
Atom  37C    basis set group =>   1
Atom  38C    basis set group =>   1
Atom  39C    basis set group =>   1
Atom  40C    basis set group =>   1
Atom  41C    basis set group =>   1
Atom  42S    basis set group =>   2
Atom  43C    basis set group =>   1
Atom  44C    basis set group =>   1
Atom  45C    basis set group =>   1
Atom  46C    basis set group =>   1
Atom  47S    basis set group =>   2
Atom  48O    basis set group =>   3
Atom  49O    basis set group =>   3
Atom  50C    basis set group =>   1
Atom  51C    basis set group =>   1
Atom  52C    basis set group =>   1
Atom  53C    basis set group =>   1
Atom  54C    basis set group =>   1
Atom  55Cl   basis set group =>   4
Atom  56Cl   basis set group =>   4
Atom  57H    basis set group =>   5
Atom  58H    basis set group =>   5
Atom  59H    basis set group =>   5
Atom  60H    basis set group =>   5
Atom  61H    basis set group =>   5
Atom  62H    basis set group =>   5
Atom  63H    basis set group =>   5
Atom  64H    basis set group =>   5
Atom  65H    basis set group =>   5
Atom  66H    basis set group =>   5
Atom  67H    basis set group =>   5
Atom  68H    basis set group =>   5
Atom  69H    basis set group =>   5
Atom  70H    basis set group =>   5
Atom  71H    basis set group =>   5
Atom  72H    basis set group =>   5
Atom  73H    basis set group =>   5
Atom  74H    basis set group =>   5
Atom  75H    basis set group =>   5
Atom  76H    basis set group =>   5
Atom  77H    basis set group =>   5
Atom  78H    basis set group =>   5
Atom  79H    basis set group =>   5
Atom  80H    basis set group =>   5
Atom  81H    basis set group =>   5
Atom  82H    basis set group =>   5
Atom  83H    basis set group =>   5
Atom  84H    basis set group =>   5
Atom  85H    basis set group =>   5
Atom  86H    basis set group =>   5
Atom  87H    basis set group =>   5
Atom  88H    basis set group =>   5
---------------------------------
AUXILIARY/J BASIS SET INFORMATION
---------------------------------
There are 5 groups of distinct atoms

 Group   1 Type C   : 12s5p4d2f1g contracted to 6s4p3d1f1g pattern {711111/2111/211/2/1}
 Group   2 Type S   : 14s5p5d2f1g contracted to 8s4p3d1f1g pattern {71111111/2111/311/2/1}
 Group   3 Type O   : 12s5p4d2f1g contracted to 6s4p3d1f1g pattern {711111/2111/211/2/1}
 Group   4 Type Cl  : 14s5p5d2f1g contracted to 8s4p3d1f1g pattern {71111111/2111/311/2/1}
 Group   5 Type H   : 5s2p1d contracted to 3s1p1d pattern {311/2/1}

Atom   0C    basis set group =>   1
Atom   1C    basis set group =>   1
Atom   2C    basis set group =>   1
Atom   3C    basis set group =>   1
Atom   4C    basis set group =>   1
Atom   5C    basis set group =>   1
Atom   6C    basis set group =>   1
Atom   7C    basis set group =>   1
Atom   8S    basis set group =>   2
Atom   9C    basis set group =>   1
Atom  10C    basis set group =>   1
Atom  11S    basis set group =>   2
Atom  12C    basis set group =>   1
Atom  13C    basis set group =>   1
Atom  14C    basis set group =>   1
Atom  15C    basis set group =>   1
Atom  16C    basis set group =>   1
Atom  17S    basis set group =>   2
Atom  18C    basis set group =>   1
Atom  19C    basis set group =>   1
Atom  20C    basis set group =>   1
Atom  21S    basis set group =>   2
Atom  22C    basis set group =>   1
Atom  23C    basis set group =>   1
Atom  24C    basis set group =>   1
Atom  25C    basis set group =>   1
Atom  26C    basis set group =>   1
Atom  27C    basis set group =>   1
Atom  28C    basis set group =>   1
Atom  29C    basis set group =>   1
Atom  30C    basis set group =>   1
Atom  31S    basis set group =>   2
Atom  32C    basis set group =>   1
Atom  33S    basis set group =>   2
Atom  34C    basis set group =>   1
Atom  35C    basis set group =>   1
Atom  36C    basis set group =>   1
Atom  37C    basis set group =>   1
Atom  38C    basis set group =>   1
Atom  39C    basis set group =>   1
Atom  40C    basis set group =>   1
Atom  41C    basis set group =>   1
Atom  42S    basis set group =>   2
Atom  43C    basis set group =>   1
Atom  44C    basis set group =>   1
Atom  45C    basis set group =>   1
Atom  46C    basis set group =>   1
Atom  47S    basis set group =>   2
Atom  48O    basis set group =>   3
Atom  49O    basis set group =>   3
Atom  50C    basis set group =>   1
Atom  51C    basis set group =>   1
Atom  52C    basis set group =>   1
Atom  53C    basis set group =>   1
Atom  54C    basis set group =>   1
Atom  55Cl   basis set group =>   4
Atom  56Cl   basis set group =>   4
Atom  57H    basis set group =>   5
Atom  58H    basis set group =>   5
Atom  59H    basis set group =>   5
Atom  60H    basis set group =>   5
Atom  61H    basis set group =>   5
Atom  62H    basis set group =>   5
Atom  63H    basis set group =>   5
Atom  64H    basis set group =>   5
Atom  65H    basis set group =>   5
Atom  66H    basis set group =>   5
Atom  67H    basis set group =>   5
Atom  68H    basis set group =>   5
Atom  69H    basis set group =>   5
Atom  70H    basis set group =>   5
Atom  71H    basis set group =>   5
Atom  72H    basis set group =>   5
Atom  73H    basis set group =>   5
Atom  74H    basis set group =>   5
Atom  75H    basis set group =>   5
Atom  76H    basis set group =>   5
Atom  77H    basis set group =>   5
Atom  78H    basis set group =>   5
Atom  79H    basis set group =>   5
Atom  80H    basis set group =>   5
Atom  81H    basis set group =>   5
Atom  82H    basis set group =>   5
Atom  83H    basis set group =>   5
Atom  84H    basis set group =>   5
Atom  85H    basis set group =>   5
Atom  86H    basis set group =>   5
Atom  87H    basis set group =>   5
Atom  88H    basis set group =>   5


           ************************************************************
           *        Program running with 6 parallel MPI-processes     *
           *              working on a common directory               *
           ************************************************************
------------------------------------------------------------------------------
                           ORCA GTO INTEGRAL CALCULATION
                           -- RI-GTO INTEGRALS CHOSEN --
------------------------------------------------------------------------------

                         BASIS SET STATISTICS AND STARTUP INFO

Gaussian basis set:
 # of primitive gaussian shells          ... 1402
 # of primitive gaussian functions       ... 3048
 # of contracted shells                  ...  775
 # of contracted basis functions         ... 2019
 Highest angular momentum                ...    3
 Maximum contraction depth               ...    7
Auxiliary gaussian basis set:
 # of primitive gaussian shells          ... 1654
 # of primitive gaussian functions       ... 4572
 # of contracted shells                  ... 1035
 # of contracted aux-basis functions     ... 3165
 Highest angular momentum                ...    4
 Maximum contraction depth               ...    7
Ratio of auxiliary to basis functions    ...  1.57
Integral package used                  ... LIBINT
 One Electron integrals                  ... done
 Ordering auxiliary basis shells         ... done
 Integral threshhold             Thresh  ...  2.500e-11
 Primitive cut-off               TCut    ...  2.500e-12
 Pre-screening matrix                    ... done
 Shell pair data                         ... 
 Ordering of the shell pairs             ... done (   0.022 sec) 104334 of 300700 pairs
 Determination of significant pairs      ... done (   0.000 sec)
 Creation of shell pair data             ... done (   0.011 sec)
 Storage of shell pair data              ... done (   0.174 sec)
 Shell pair data done in (   0.207 sec)
 Computing two index integrals           ... done
 Cholesky decomposition of the V-matrix  ... done


Timings:
 Total evaluation time                   ...   4.747 sec (  0.079 min)
 One electron matrix time                ...   1.539 sec (  0.026 min) = 32.4%
 Schwartz matrix evaluation time         ...   2.344 sec (  0.039 min) = 49.4%
 Two index repulsion integral time       ...   0.228 sec (  0.004 min) =  4.8%
 Cholesky decomposition of V             ...   0.412 sec (  0.007 min) =  8.7%
 Three index repulsion integral time     ...   0.000 sec (  0.000 min) =  0.0%



           ************************************************************
           *        Program running with 6 parallel MPI-processes     *
           *              working on a common directory               *
           ************************************************************
-------------------------------------------------------------------------------
                                 ORCA SCF
-------------------------------------------------------------------------------

------------
SCF SETTINGS
------------
Hamiltonian:
 Density Functional     Method          .... DFT(GTOs)
 Exchange Functional    Exchange        .... B88
   X-Alpha parameter    XAlpha          ....  0.666667
   Becke's b parameter  XBeta           ....  0.004200
 Correlation Functional Correlation     .... LYP
 LDA part of GGA corr.  LDAOpt          .... VWN-5
 Gradients option       PostSCFGGA      .... off
 Hybrid DFT is turned on
   Fraction HF Exchange ScalHFX         ....  0.200000
   Scaling of DF-GGA-X  ScalDFX         ....  0.720000
   Scaling of DF-GGA-C  ScalDFC         ....  0.810000
   Scaling of DF-LDA-C  ScalLDAC        ....  1.000000
   Perturbative correction              ....  0.000000
   Density functional embedding theory  .... OFF
   NL short-range parameter             ....  4.800000
 RI-approximation to the Coulomb term is turned on
   Number of auxiliary basis functions  .... 3165
   RIJ-COSX (HFX calculated with COS-X)).... on


General Settings:
 Integral files         IntName         .... PBDB-T-2Cl_dimer
 Hartree-Fock type      HFTyp           .... RHF
 Total Charge           Charge          ....    0
 Multiplicity           Mult            ....    1
 Number of Electrons    NEL             ....  480
 Basis Dimension        Dim             .... 2019
 Nuclear Repulsion      ENuc            ....   9532.7610933317 Eh

Convergence Acceleration:
 DIIS                   CNVDIIS         .... on
   Start iteration      DIISMaxIt       ....    12
   Startup error        DIISStart       ....  0.200000
   # of expansion vecs  DIISMaxEq       ....     5
   Bias factor          DIISBfac        ....   1.050
   Max. coefficient     DIISMaxC        ....  10.000
 Newton-Raphson         CNVNR           .... off
 SOSCF                  CNVSOSCF        .... on
   Start iteration      SOSCFMaxIt      ....   150
   Startup grad/error   SOSCFStart      ....  0.003300
 Level Shifting         CNVShift        .... on
   Level shift para.    LevelShift      ....    0.2500
   Turn off err/grad.   ShiftErr        ....    0.0010
 Zerner damping         CNVZerner       .... off
 Static damping         CNVDamp         .... on
   Fraction old density DampFac         ....    0.7000
   Max. Damping (<1)    DampMax         ....    0.9800
   Min. Damping (>=0)   DampMin         ....    0.0000
   Turn off err/grad.   DampErr         ....    0.1000
 Fernandez-Rico         CNVRico         .... off

SCF Procedure:
 Maximum # iterations   MaxIter         ....   125
 SCF integral mode      SCFMode         .... Direct
   Integral package                     .... LIBINT
 Reset frequency        DirectResetFreq ....    20
 Integral Threshold     Thresh          ....  2.500e-11 Eh
 Primitive CutOff       TCut            ....  2.500e-12 Eh

Convergence Tolerance:
 Convergence Check Mode ConvCheckMode   .... Total+1el-Energy
 Convergence forced     ConvForced      .... 1
 Energy Change          TolE            ....  1.000e-08 Eh
 1-El. energy change                    ....  1.000e-05 Eh
 Orbital Gradient       TolG            ....  1.000e-05
 Orbital Rotation angle TolX            ....  1.000e-05
 DIIS Error             TolErr          ....  5.000e-07


Diagonalization of the overlap matrix:
Smallest eigenvalue                        ... 2.688e-06
Time for diagonalization                   ...    0.674 sec
Threshold for overlap eigenvalues          ... 1.000e-08
Number of eigenvalues below threshold      ... 0
Time for construction of square roots      ...    0.515 sec
Total time needed                          ...    1.198 sec

-------------------
DFT GRID GENERATION
-------------------

General Integration Accuracy     IntAcc      ...  4.670
Radial Grid Type                 RadialGrid  ... Gauss-Chebyshev
Angular Grid (max. acc.)         AngularGrid ... Lebedev-302
Angular grid pruning method      GridPruning ... 3 (G Style)
Weight generation scheme         WeightScheme... Becke
Basis function cutoff            BFCut       ...    1.0000e-11
Integration weight cutoff        WCut        ...    1.0000e-14
Grids for H and He will be reduced by one unit

# of grid points (after initial pruning)     ... 468816 (   0.0 sec)
# of grid points (after weights+screening)   ... 404650 (   3.2 sec)
nearest neighbour list constructed           ...    0.0 sec
Grid point re-assignment to atoms done       ...    0.1 sec
Grid point division into batches done        ...    1.3 sec
Reduced shell lists constructed in    3.0 sec

Total number of grid points                  ...   404650
Total number of batches                      ...     6366
Average number of points per batch           ...       63
Average number of grid points per atom       ...     4547
Average number of shells per batch           ...   190.40 (24.57%)
Average number of basis functions per batch  ...   500.20 (24.77%)
Average number of large shells per batch     ...   117.91 (61.93%)
Average number of large basis fcns per batch ...   317.36 (63.45%)
Maximum spatial batch extension              ...  15.77, 13.66, 21.61 au
Average spatial batch extension              ...   0.26,  0.26,  0.32 au

Time for grid setup =    6.418 sec

------------------------------
INITIAL GUESS: MODEL POTENTIAL
------------------------------
Loading Hartree-Fock densities                     ... done
Calculating cut-offs                               ... done
Setting up the integral package                    ... done
Initializing the effective Hamiltonian             ... done
Starting the Coulomb interaction                   ... done (   2.8 sec)
Reading the grid                                   ... done
Mapping shells                                     ... done
Starting the XC term evaluation                    ... done (   3.3 sec)
  promolecular density results
     # of electrons  =    479.984781752
     EX              =   -512.706356979
     EC              =    -17.551361844
     EX+EC           =   -530.257718823
Transforming the Hamiltonian                       ... done (   0.3 sec)
Diagonalizing the Hamiltonian                      ... done (   0.7 sec)
Back transforming the eigenvectors                 ... done (   0.2 sec)
Now organizing SCF variables                       ... done
                      ------------------
                      INITIAL GUESS DONE (  14.0 sec)
                      ------------------
--------------------
COSX GRID GENERATION
--------------------

General Integration Accuracy     IntAcc      ...  3.340
Radial Grid Type                 RadialGrid  ... Gauss-Chebyshev
Angular Grid (max. acc.)         AngularGrid ... Lebedev-50
Angular grid pruning method      GridPruning ... 3 (G Style)
Weight generation scheme         WeightScheme... Becke
Basis function cutoff            BFCut       ...    1.0000e-11
Integration weight cutoff        WCut        ...    1.0000e-14
Grids for H and He will be reduced by one unit

# of grid points (after initial pruning)     ...  44560 (   0.0 sec)
# of grid points (after weights+screening)   ...  40117 (   0.3 sec)
nearest neighbour list constructed           ...    0.0 sec
Grid point re-assignment to atoms done       ...    0.0 sec
Grid point division into batches done        ...    0.0 sec
Reduced shell lists constructed in    0.2 sec

Total number of grid points                  ...    40117
Total number of batches                      ...      681
Average number of points per batch           ...       58
Average number of grid points per atom       ...      451
Average number of shells per batch           ...   219.61 (28.34%)
Average number of basis functions per batch  ...   580.48 (28.75%)
Average number of large shells per batch     ...   137.49 (62.61%)
Average number of large basis fcns per batch ...   374.63 (64.54%)
Maximum spatial batch extension              ...   9.26,  9.67, 20.40 au
Average spatial batch extension              ...   0.48,  0.47,  0.74 au

Overlap Fitting                  UseSFitting ... on
Constructing numerical overlap ... done (      0.3 sec)
Inverting numerical overlap    ... done (      0.2 sec)
Obtaining analytic overlap     ... done (      0.0 sec)
Final contraction and storage  ... done (      0.3 sec)


General Integration Accuracy     IntAcc      ...  3.670
Radial Grid Type                 RadialGrid  ... Gauss-Chebyshev
Angular Grid (max. acc.)         AngularGrid ... Lebedev-50
Angular grid pruning method      GridPruning ... 3 (G Style)
Weight generation scheme         WeightScheme... Becke
Basis function cutoff            BFCut       ...    1.0000e-11
Integration weight cutoff        WCut        ...    1.0000e-14
Grids for H and He will be reduced by one unit

# of grid points (after initial pruning)     ...  55834 (   0.0 sec)
# of grid points (after weights+screening)   ...  50096 (   0.4 sec)
nearest neighbour list constructed           ...    0.0 sec
Grid point re-assignment to atoms done       ...    0.0 sec
Grid point division into batches done        ...    0.0 sec
Reduced shell lists constructed in    0.3 sec

Total number of grid points                  ...    50096
Total number of batches                      ...      828
Average number of points per batch           ...       60
Average number of grid points per atom       ...      563
Average number of shells per batch           ...   217.19 (28.03%)
Average number of basis functions per batch  ...   573.78 (28.42%)
Average number of large shells per batch     ...   135.01 (62.16%)
Average number of large basis fcns per batch ...   367.27 (64.01%)
Maximum spatial batch extension              ...  10.82,  9.34, 22.92 au
Average spatial batch extension              ...   0.45,  0.44,  0.68 au

Overlap Fitting                  UseSFitting ... on
Constructing numerical overlap ... done (      0.3 sec)
Inverting numerical overlap    ... done (      0.2 sec)
Obtaining analytic overlap     ... done (      0.0 sec)
Final contraction and storage  ... done (      0.3 sec)


General Integration Accuracy     IntAcc      ...  4.010
Radial Grid Type                 RadialGrid  ... Gauss-Chebyshev
Angular Grid (max. acc.)         AngularGrid ... Lebedev-110
Angular grid pruning method      GridPruning ... 3 (G Style)
Weight generation scheme         WeightScheme... Becke
Basis function cutoff            BFCut       ...    1.0000e-11
Integration weight cutoff        WCut        ...    1.0000e-14
Grids for H and He will be reduced by one unit

# of grid points (after initial pruning)     ... 106648 (   0.0 sec)
# of grid points (after weights+screening)   ...  94642 (   0.7 sec)
nearest neighbour list constructed           ...    0.0 sec
Grid point re-assignment to atoms done       ...    0.0 sec
Grid point division into batches done        ...    0.1 sec
Reduced shell lists constructed in    0.5 sec

Total number of grid points                  ...    94642
Total number of batches                      ...     1526
Average number of points per batch           ...       62
Average number of grid points per atom       ...     1063
Average number of shells per batch           ...   208.55 (26.91%)
Average number of basis functions per batch  ...   551.34 (27.31%)
Average number of large shells per batch     ...   130.27 (62.47%)
Average number of large basis fcns per batch ...   353.70 (64.15%)
Maximum spatial batch extension              ...  14.48, 12.34, 18.75 au
Average spatial batch extension              ...   0.40,  0.40,  0.54 au

Overlap Fitting                  UseSFitting ... on
Constructing numerical overlap ... done (      0.4 sec)
Inverting numerical overlap    ... done (      0.2 sec)
Obtaining analytic overlap     ... done (      0.0 sec)
Final contraction and storage  ... done (      0.3 sec)

Time for X-Grid setup             =    5.098 sec
--------------
SCF ITERATIONS
--------------
ITER       Energy         Delta-E        Max-DP      RMS-DP      [F,P]     Damp
               ***  Starting incremental Fock matrix formation  ***
  0  -5988.0293683720   0.000000000000 0.23334614  0.00105755  0.3081414 0.7000
  1  -5988.8144741050  -0.785105732994 0.14674914  0.00068930  0.1128542 0.7000
                               ***Turning on DIIS***
  2  -5989.0784165235  -0.263942418514 0.08750580  0.00077788  0.0378140 0.0000
  3  -5989.4823498465  -0.403933323016 0.14680985  0.00066589  0.0563017 0.0000
  4  -5989.6084133512  -0.126063504646 0.02497068  0.00014114  0.0173743 0.0000
  5  -5989.6168031618  -0.008389810588 0.01228669  0.00006893  0.0128144 0.0000
  6  -5989.6176087910  -0.000805629244 0.00513850  0.00002680  0.0041579 0.0000
                      *** Initiating the SOSCF procedure ***
                           *** Shutting down DIIS ***
                      *** Re-Reading the Fockian *** 
                      *** Removing any level shift *** 
ITER      Energy       Delta-E        Grad      Rot      Max-DP    RMS-DP
  7  -5989.61775003  -0.0001412346  0.000163  0.000163  0.002495  0.000011
               *** Restarting incremental Fock matrix formation ***
  8  -5989.61777227  -0.0000222477  0.000103  0.000785  0.017417  0.000079
  9  -5989.61777329  -0.0000010163  0.000126  0.000445  0.006320  0.000026
 10  -5989.61777629  -0.0000029992  0.000053  0.000198  0.007248  0.000028
 11  -5989.61777658  -0.0000002935  0.000043  0.000160  0.001365  0.000006
 12  -5989.61777713  -0.0000005475  0.000021  0.000140  0.002669  0.000011
 13  -5989.61777702   0.0000001087  0.000017  0.000037  0.000280  0.000001
 14  -5989.61777701   0.0000000119  0.000006  0.000035  0.001184  0.000005
 15  -5989.61777707  -0.0000000574  0.000008  0.000026  0.000264  0.000001
                  ***Gradient check signals convergence***
              ***Rediagonalizing the Fockian in SOSCF/NRSCF***

               *****************************************************
               *                     SUCCESS                       *
               *           SCF CONVERGED AFTER  16 CYCLES          *
               *****************************************************

Setting up the final grid:

General Integration Accuracy     IntAcc      ...  5.010
Radial Grid Type                 RadialGrid  ... Gauss-Chebyshev
Angular Grid (max. acc.)         AngularGrid ... Lebedev-434
Angular grid pruning method      GridPruning ... 3 (G Style)
Weight generation scheme         WeightScheme... Becke
Basis function cutoff            BFCut       ...    1.0000e-11
Integration weight cutoff        WCut        ...    1.0000e-14
Grids for H and He will be reduced by one unit

# of grid points (after initial pruning)     ... 834926 (   0.0 sec)
# of grid points (after weights+screening)   ... 718932 (   5.5 sec)
nearest neighbour list constructed           ...    0.0 sec
Grid point re-assignment to atoms done       ...    0.1 sec
Grid point division into batches done        ...    4.5 sec
Reduced shell lists constructed in    7.2 sec

Total number of grid points                  ...   718932
Total number of batches                      ...    11278
Average number of points per batch           ...       63
Average number of grid points per atom       ...     8078
Average number of shells per batch           ...   184.93 (23.86%)
Average number of basis functions per batch  ...   484.42 (23.99%)
Average number of large shells per batch     ...   114.14 (61.72%)
Average number of large basis fcns per batch ...   306.50 (63.27%)
Maximum spatial batch extension              ...  16.34, 13.58, 22.53 au
Average spatial batch extension              ...   0.21,  0.21,  0.25 au

Final grid set up in   13.1 sec
Final integration                            ... done (   6.9 sec)
Change in XC energy                          ...    -0.000111324
Integrated number of electrons               ...   480.000087063
Previous integrated no of electrons          ...   480.000305833
Old exchange energy                            =   -103.307974826 Eh
New exchange energy                            =   -103.311364028 Eh
Exchange energy change after final integration =     -0.003389203 Eh
Total energy after final integration           =  -5989.621277743 Eh
Final COS-X integration done in                =   171.955 sec

----------------
TOTAL SCF ENERGY
----------------

Total Energy       :        -5989.62127774 Eh         -162985.88101 eV

Components:
Nuclear Repulsion  :         9532.76109333 Eh          259399.61697 eV
Electronic Energy  :       -15522.38237107 Eh         -422385.49798 eV
One Electron Energy:       -27232.67962843 Eh         -741038.88638 eV
Two Electron Energy:        11710.29725736 Eh          318653.38840 eV

Virial components:
Potential Energy   :       -11963.42301076 Eh         -325541.29032 eV
Kinetic Energy     :         5973.80173302 Eh          162555.40931 eV
Virial Ratio       :            2.00264815


DFT components:
N(Alpha)           :      240.000043531460 electrons
N(Beta)            :      240.000043531460 electrons
N(Total)           :      480.000087062920 electrons
E(X)               :     -410.347808254161 Eh       
E(C)               :      -20.596328554847 Eh       
E(XC)              :     -430.944136809008 Eh       
DFET-embed. en.    :        0.000000000000 Eh       

---------------
SCF CONVERGENCE
---------------

  Last Energy change         ...   -1.4944e-07  Tolerance :   1.0000e-08
  Last MAX-Density change    ...    5.3291e-15  Tolerance :   1.0000e-07
  Last RMS-Density change    ...    1.4611e-17  Tolerance :   5.0000e-09
  Last Orbital Gradient      ...    2.4127e-06  Tolerance :   1.0000e-05
  Last Orbital Rotation      ...    1.8037e-05  Tolerance :   1.0000e-05

             **** THE GBW FILE WAS UPDATED (PBDB-T-2Cl_dimer.gbw) ****
             **** DENSITY FILE WAS UPDATED (PBDB-T-2Cl_dimer.scfp) ****
             **** ENERGY FILE WAS UPDATED (PBDB-T-2Cl_dimer.en.tmp) ****
             **** THE GBW FILE WAS UPDATED (PBDB-T-2Cl_dimer.gbw) ****
             **** DENSITY FILE WAS UPDATED (PBDB-T-2Cl_dimer.scfp) ****
----------------
ORBITAL ENERGIES
----------------

  NO   OCC          E(Eh)            E(eV) 
   0   2.0000    -101.528374     -2762.7275 
   1   2.0000    -101.527319     -2762.6988 
   2   2.0000     -88.898266     -2419.0448 
   3   2.0000     -88.895790     -2418.9774 
   4   2.0000     -88.890972     -2418.8463 
   5   2.0000     -88.889951     -2418.8185 
   6   2.0000     -88.888755     -2418.7860 
   7   2.0000     -88.888046     -2418.7667 
   8   2.0000     -88.883313     -2418.6379 
   9   2.0000     -88.880111     -2418.5508 
  10   2.0000     -19.108698      -519.9741 
  11   2.0000     -19.104383      -519.8567 
  12   2.0000     -10.266546      -279.3669 
  13   2.0000     -10.262931      -279.2686 
  14   2.0000     -10.239608      -278.6339 
  15   2.0000     -10.235629      -278.5256 
  16   2.0000     -10.234435      -278.4931 
  17   2.0000     -10.234010      -278.4816 
  18   2.0000     -10.224726      -278.2289 
  19   2.0000     -10.224156      -278.2134 
  20   2.0000     -10.223999      -278.2092 
  21   2.0000     -10.222988      -278.1816 
  22   2.0000     -10.220690      -278.1191 
  23   2.0000     -10.219364      -278.0830 
  24   2.0000     -10.218594      -278.0621 
  25   2.0000     -10.217163      -278.0231 
  26   2.0000     -10.216873      -278.0153 
  27   2.0000     -10.216235      -277.9979 
  28   2.0000     -10.215845      -277.9873 
  29   2.0000     -10.214763      -277.9578 
  30   2.0000     -10.214039      -277.9381 
  31   2.0000     -10.209674      -277.8194 
  32   2.0000     -10.207361      -277.7564 
  33   2.0000     -10.206055      -277.7209 
  34   2.0000     -10.203222      -277.6438 
  35   2.0000     -10.201316      -277.5919 
  36   2.0000     -10.200284      -277.5638 
  37   2.0000     -10.198436      -277.5136 
  38   2.0000     -10.190962      -277.3102 
  39   2.0000     -10.190768      -277.3049 
  40   2.0000     -10.190638      -277.3014 
  41   2.0000     -10.190453      -277.2963 
  42   2.0000     -10.189937      -277.2823 
  43   2.0000     -10.189403      -277.2678 
  44   2.0000     -10.188259      -277.2366 
  45   2.0000     -10.187438      -277.2143 
  46   2.0000     -10.187260      -277.2094 
  47   2.0000     -10.185713      -277.1673 
  48   2.0000     -10.183285      -277.1013 
  49   2.0000     -10.183001      -277.0935 
  50   2.0000     -10.182654      -277.0841 
  51   2.0000     -10.181356      -277.0488 
  52   2.0000     -10.180525      -277.0262 
  53   2.0000     -10.171840      -276.7898 
  54   2.0000     -10.171376      -276.7772 
  55   2.0000     -10.171292      -276.7749 
  56   2.0000     -10.164285      -276.5843 
  57   2.0000      -9.460531      -257.4341 
  58   2.0000      -9.459462      -257.4051 
  59   2.0000      -7.974923      -217.0087 
  60   2.0000      -7.972141      -216.9330 
  61   2.0000      -7.967087      -216.7955 
  62   2.0000      -7.966106      -216.7688 
  63   2.0000      -7.965373      -216.7488 
  64   2.0000      -7.964116      -216.7146 
  65   2.0000      -7.959789      -216.5969 
  66   2.0000      -7.956513      -216.5077 
  67   2.0000      -7.222143      -196.5245 
  68   2.0000      -7.221108      -196.4963 
  69   2.0000      -7.213624      -196.2927 
  70   2.0000      -7.213414      -196.2870 
  71   2.0000      -7.212545      -196.2633 
  72   2.0000      -7.212342      -196.2578 
  73   2.0000      -5.937378      -161.5643 
  74   2.0000      -5.934358      -161.4821 
  75   2.0000      -5.933355      -161.4548 
  76   2.0000      -5.931688      -161.4094 
  77   2.0000      -5.930390      -161.3741 
  78   2.0000      -5.929542      -161.3510 
  79   2.0000      -5.929516      -161.3503 
  80   2.0000      -5.928574      -161.3247 
  81   2.0000      -5.927884      -161.3059 
  82   2.0000      -5.926527      -161.2690 
  83   2.0000      -5.925738      -161.2475 
  84   2.0000      -5.924744      -161.2205 
  85   2.0000      -5.924002      -161.2003 
  86   2.0000      -5.923882      -161.1970 
  87   2.0000      -5.922883      -161.1698 
  88   2.0000      -5.922605      -161.1623 
  89   2.0000      -5.922583      -161.1617 
  90   2.0000      -5.922006      -161.1460 
  91   2.0000      -5.921168      -161.1232 
  92   2.0000      -5.919317      -161.0728 
  93   2.0000      -5.918695      -161.0559 
  94   2.0000      -5.915820      -160.9776 
  95   2.0000      -5.915350      -160.9649 
  96   2.0000      -5.912685      -160.8923 
  97   2.0000      -1.038300       -28.2536 
  98   2.0000      -1.034616       -28.1533 
  99   2.0000      -0.917424       -24.9644 
 100   2.0000      -0.910548       -24.7773 
 101   2.0000      -0.908150       -24.7120 
 102   2.0000      -0.901786       -24.5388 
 103   2.0000      -0.897919       -24.4336 
 104   2.0000      -0.892225       -24.2787 
 105   2.0000      -0.880156       -23.9503 
 106   2.0000      -0.872236       -23.7348 
 107   2.0000      -0.854062       -23.2402 
 108   2.0000      -0.849634       -23.1197 
 109   2.0000      -0.824135       -22.4258 
 110   2.0000      -0.813331       -22.1319 
 111   2.0000      -0.806543       -21.9471 
 112   2.0000      -0.802909       -21.8483 
 113   2.0000      -0.794221       -21.6119 
 114   2.0000      -0.789962       -21.4960 
 115   2.0000      -0.781659       -21.2700 
 116   2.0000      -0.767862       -20.8946 
 117   2.0000      -0.763230       -20.7685 
 118   2.0000      -0.750584       -20.4244 
 119   2.0000      -0.746494       -20.3131 
 120   2.0000      -0.740838       -20.1592 
 121   2.0000      -0.738278       -20.0896 
 122   2.0000      -0.731528       -19.9059 
 123   2.0000      -0.730140       -19.8681 
 124   2.0000      -0.726841       -19.7783 
 125   2.0000      -0.724652       -19.7188 
 126   2.0000      -0.717931       -19.5359 
 127   2.0000      -0.715887       -19.4803 
 128   2.0000      -0.707536       -19.2530 
 129   2.0000      -0.688221       -18.7274 
 130   2.0000      -0.684477       -18.6256 
 131   2.0000      -0.657982       -17.9046 
 132   2.0000      -0.649854       -17.6834 
 133   2.0000      -0.648522       -17.6472 
 134   2.0000      -0.633498       -17.2383 
 135   2.0000      -0.631035       -17.1713 
 136   2.0000      -0.620489       -16.8844 
 137   2.0000      -0.615452       -16.7473 
 138   2.0000      -0.609512       -16.5857 
 139   2.0000      -0.597230       -16.2515 
 140   2.0000      -0.584958       -15.9175 
 141   2.0000      -0.576691       -15.6926 
 142   2.0000      -0.569948       -15.5091 
 143   2.0000      -0.562159       -15.2971 
 144   2.0000      -0.554288       -15.0829 
 145   2.0000      -0.547178       -14.8895 
 146   2.0000      -0.542205       -14.7542 
 147   2.0000      -0.535812       -14.5802 
 148   2.0000      -0.531698       -14.4682 
 149   2.0000      -0.529535       -14.4094 
 150   2.0000      -0.524469       -14.2715 
 151   2.0000      -0.522660       -14.2223 
 152   2.0000      -0.518704       -14.1147 
 153   2.0000      -0.513620       -13.9763 
 154   2.0000      -0.504816       -13.7368 
 155   2.0000      -0.499303       -13.5867 
 156   2.0000      -0.497623       -13.5410 
 157   2.0000      -0.480760       -13.0821 
 158   2.0000      -0.478450       -13.0193 
 159   2.0000      -0.471648       -12.8342 
 160   2.0000      -0.469774       -12.7832 
 161   2.0000      -0.462884       -12.5957 
 162   2.0000      -0.459911       -12.5148 
 163   2.0000      -0.455895       -12.4055 
 164   2.0000      -0.448932       -12.2161 
 165   2.0000      -0.446838       -12.1591 
 166   2.0000      -0.443325       -12.0635 
 167   2.0000      -0.442259       -12.0345 
 168   2.0000      -0.441128       -12.0037 
 169   2.0000      -0.439383       -11.9562 
 170   2.0000      -0.436038       -11.8652 
 171   2.0000      -0.435156       -11.8412 
 172   2.0000      -0.431609       -11.7447 
 173   2.0000      -0.427657       -11.6371 
 174   2.0000      -0.426760       -11.6127 
 175   2.0000      -0.426279       -11.5997 
 176   2.0000      -0.421275       -11.4635 
 177   2.0000      -0.420185       -11.4338 
 178   2.0000      -0.418382       -11.3848 
 179   2.0000      -0.413085       -11.2406 
 180   2.0000      -0.411636       -11.2012 
 181   2.0000      -0.410042       -11.1578 
 182   2.0000      -0.407385       -11.0855 
 183   2.0000      -0.406993       -11.0749 
 184   2.0000      -0.404356       -11.0031 
 185   2.0000      -0.401729       -10.9316 
 186   2.0000      -0.397977       -10.8295 
 187   2.0000      -0.395520       -10.7626 
 188   2.0000      -0.395369       -10.7585 
 189   2.0000      -0.392389       -10.6774 
 190   2.0000      -0.387353       -10.5404 
 191   2.0000      -0.385838       -10.4992 
 192   2.0000      -0.382652       -10.4125 
 193   2.0000      -0.381821       -10.3899 
 194   2.0000      -0.378518       -10.3000 
 195   2.0000      -0.378021       -10.2865 
 196   2.0000      -0.376044       -10.2327 
 197   2.0000      -0.374657       -10.1949 
 198   2.0000      -0.372503       -10.1363 
 199   2.0000      -0.370306       -10.0765 
 200   2.0000      -0.369040       -10.0421 
 201   2.0000      -0.367383        -9.9970 
 202   2.0000      -0.365342        -9.9415 
 203   2.0000      -0.362349        -9.8600 
 204   2.0000      -0.359937        -9.7944 
 205   2.0000      -0.359249        -9.7757 
 206   2.0000      -0.359019        -9.7694 
 207   2.0000      -0.357002        -9.7145 
 208   2.0000      -0.355067        -9.6619 
 209   2.0000      -0.349287        -9.5046 
 210   2.0000      -0.347886        -9.4664 
 211   2.0000      -0.346820        -9.4375 
 212   2.0000      -0.346273        -9.4226 
 213   2.0000      -0.345734        -9.4079 
 214   2.0000      -0.342858        -9.3296 
 215   2.0000      -0.341731        -9.2990 
 216   2.0000      -0.339229        -9.2309 
 217   2.0000      -0.335048        -9.1171 
 218   2.0000      -0.329547        -8.9674 
 219   2.0000      -0.317264        -8.6332 
 220   2.0000      -0.316666        -8.6169 
 221   2.0000      -0.312898        -8.5144 
 222   2.0000      -0.303950        -8.2709 
 223   2.0000      -0.290746        -7.9116 
 224   2.0000      -0.276256        -7.5173 
 225   2.0000      -0.266779        -7.2594 
 226   2.0000      -0.265817        -7.2333 
 227   2.0000      -0.262181        -7.1343 
 228   2.0000      -0.260229        -7.0812 
 229   2.0000      -0.258747        -7.0409 
 230   2.0000      -0.256216        -6.9720 
 231   2.0000      -0.254659        -6.9296 
 232   2.0000      -0.253364        -6.8944 
 233   2.0000      -0.248786        -6.7698 
 234   2.0000      -0.239715        -6.5230 
 235   2.0000      -0.236527        -6.4362 
 236   2.0000      -0.233613        -6.3569 
 237   2.0000      -0.227801        -6.1988 
 238   2.0000      -0.207253        -5.6396 
 239   2.0000      -0.193817        -5.2740 
 240   0.0000      -0.095580        -2.6009 
 241   0.0000      -0.085933        -2.3384 
 242   0.0000      -0.066207        -1.8016 
 243   0.0000      -0.050148        -1.3646 
 244   0.0000      -0.041696        -1.1346 
 245   0.0000      -0.031441        -0.8555 
 246   0.0000      -0.029506        -0.8029 
 247   0.0000      -0.021457        -0.5839 
 248   0.0000      -0.014899        -0.4054 
 249   0.0000      -0.010221        -0.2781 
 250   0.0000       0.001039         0.0283 
 251   0.0000       0.003982         0.1084 
 252   0.0000       0.005648         0.1537 
 253   0.0000       0.008234         0.2241 
 254   0.0000       0.011917         0.3243 
 255   0.0000       0.015191         0.4134 
 256   0.0000       0.024858         0.6764 
 257   0.0000       0.026378         0.7178 
 258   0.0000       0.029821         0.8115 
 259   0.0000       0.033267         0.9052 
 260   0.0000       0.033760         0.9187 
 261   0.0000       0.034601         0.9415 
 262   0.0000       0.039072         1.0632 
 263   0.0000       0.039914         1.0861 
 264   0.0000       0.044501         1.2109 
 265   0.0000       0.046653         1.2695 
 266   0.0000       0.050434         1.3724 
 267   0.0000       0.051300         1.3960 
 268   0.0000       0.054219         1.4754 
 269   0.0000       0.057351         1.5606 
 270   0.0000       0.061224         1.6660 
 271   0.0000       0.062185         1.6921 
 272   0.0000       0.065514         1.7827 
 273   0.0000       0.066573         1.8115 
 274   0.0000       0.070137         1.9085 
 275   0.0000       0.071342         1.9413 
 276   0.0000       0.074316         2.0222 
 277   0.0000       0.075617         2.0576 
 278   0.0000       0.077249         2.1020 
 279   0.0000       0.078216         2.1284 
 280   0.0000       0.080285         2.1847 
 281   0.0000       0.080680         2.1954 
 282   0.0000       0.082281         2.2390 
 283   0.0000       0.084939         2.3113 
 284   0.0000       0.086083         2.3424 
 285   0.0000       0.086795         2.3618 
 286   0.0000       0.089666         2.4399 
 287   0.0000       0.092452         2.5158 
 288   0.0000       0.096959         2.6384 
 289   0.0000       0.098854         2.6900 
 290   0.0000       0.100407         2.7322 
 291   0.0000       0.101775         2.7695 
 292   0.0000       0.104153         2.8341 
 293   0.0000       0.105220         2.8632 
 294   0.0000       0.107317         2.9203 
 295   0.0000       0.108940         2.9644 
 296   0.0000       0.110672         3.0115 
 297   0.0000       0.111830         3.0431 
 298   0.0000       0.113073         3.0769 
 299   0.0000       0.113977         3.1015 
 300   0.0000       0.117058         3.1853 
 301   0.0000       0.118676         3.2293 
 302   0.0000       0.120470         3.2781 
 303   0.0000       0.120946         3.2911 
 304   0.0000       0.122577         3.3355 
 305   0.0000       0.125260         3.4085 
 306   0.0000       0.127768         3.4767 
 307   0.0000       0.127947         3.4816 
 308   0.0000       0.129892         3.5345 
 309   0.0000       0.133516         3.6331 
 310   0.0000       0.135063         3.6753 
 311   0.0000       0.141214         3.8426 
 312   0.0000       0.143580         3.9070 
 313   0.0000       0.145979         3.9723 
 314   0.0000       0.149494         4.0679 
 315   0.0000       0.150217         4.0876 
 316   0.0000       0.152029         4.1369 
 317   0.0000       0.156050         4.2463 
 318   0.0000       0.158024         4.3001 
 319   0.0000       0.159925         4.3518 
 320   0.0000       0.161533         4.3955 
 321   0.0000       0.165269         4.4972 
 322   0.0000       0.167517         4.5584 
 323   0.0000       0.168857         4.5948 
 324   0.0000       0.171217         4.6590 
 325   0.0000       0.172227         4.6865 
 326   0.0000       0.175135         4.7657 
 327   0.0000       0.175679         4.7805 
 328   0.0000       0.177402         4.8274 
 329   0.0000       0.178844         4.8666 
 330   0.0000       0.181233         4.9316 
 331   0.0000       0.184226         5.0130 
 332   0.0000       0.185865         5.0576 
 333   0.0000       0.186940         5.0869 
 334   0.0000       0.187600         5.1049 
 335   0.0000       0.189002         5.1430 
 336   0.0000       0.190639         5.1875 
 337   0.0000       0.192390         5.2352 
 338   0.0000       0.194639         5.2964 
 339   0.0000       0.196920         5.3585 
 340   0.0000       0.199116         5.4182 
 341   0.0000       0.199442         5.4271 
 342   0.0000       0.200683         5.4609 
 343   0.0000       0.204031         5.5520 
 344   0.0000       0.206860         5.6289 
 345   0.0000       0.208845         5.6830 
 346   0.0000       0.211366         5.7516 
 347   0.0000       0.212621         5.7857 
 348   0.0000       0.215116         5.8536 
 349   0.0000       0.217489         5.9182 
 350   0.0000       0.217983         5.9316 
 351   0.0000       0.219067         5.9611 
 352   0.0000       0.220061         5.9882 
 353   0.0000       0.221507         6.0275 
 354   0.0000       0.223231         6.0744 
 355   0.0000       0.224313         6.1039 
 356   0.0000       0.224995         6.1224 
 357   0.0000       0.227868         6.2006 
 358   0.0000       0.231467         6.2986 
 359   0.0000       0.234360         6.3773 
 360   0.0000       0.236643         6.4394 
 361   0.0000       0.238286         6.4841 
 362   0.0000       0.239731         6.5234 
 363   0.0000       0.240405         6.5417 
 364   0.0000       0.241698         6.5769 
 365   0.0000       0.244026         6.6403 
 366   0.0000       0.244377         6.6498 
 367   0.0000       0.247241         6.7278 
 368   0.0000       0.249042         6.7768 
 369   0.0000       0.249601         6.7920 
 370   0.0000       0.250586         6.8188 
 371   0.0000       0.252075         6.8593 
 372   0.0000       0.255108         6.9418 
 373   0.0000       0.256670         6.9844 
 374   0.0000       0.258918         7.0455 
[...]
   232a -> 241a  :     0.030134 (c= -0.17359090)
   237a -> 243a  :     0.011763 (c=  0.10845906)

STATE 45:  E=   0.163263 au      4.443 eV    35832.1 cm**-1
   223a -> 240a  :     0.011167 (c= -0.10567335)
   224a -> 240a  :     0.019624 (c= -0.14008639)
   230a -> 241a  :     0.023492 (c= -0.15327250)
   236a -> 243a  :     0.016249 (c= -0.12747208)
   237a -> 243a  :     0.713394 (c=  0.84462660)
   237a -> 244a  :     0.024975 (c= -0.15803448)
   238a -> 248a  :     0.014352 (c=  0.11979938)
   239a -> 246a  :     0.016767 (c= -0.12948610)
   239a -> 247a  :     0.035758 (c= -0.18909702)

STATE 46:  E=   0.163625 au      4.452 eV    35911.6 cm**-1
   233a -> 242a  :     0.047258 (c= -0.21739011)
   234a -> 242a  :     0.099080 (c= -0.31477007)
   237a -> 242a  :     0.016396 (c=  0.12804528)
   237a -> 246a  :     0.035751 (c=  0.18907803)
   238a -> 244a  :     0.029064 (c= -0.17048309)
   238a -> 246a  :     0.151751 (c= -0.38955214)
   238a -> 247a  :     0.019008 (c=  0.13786891)
   239a -> 248a  :     0.428852 (c=  0.65486755)

STATE 47:  E=   0.165160 au      4.494 eV    36248.4 cm**-1
   223a -> 241a  :     0.018519 (c=  0.13608416)
   224a -> 240a  :     0.087716 (c= -0.29616938)
   224a -> 241a  :     0.019821 (c= -0.14078546)
   225a -> 240a  :     0.021663 (c= -0.14718391)
   225a -> 241a  :     0.057512 (c=  0.23981618)
   226a -> 241a  :     0.016500 (c= -0.12845363)
   227a -> 241a  :     0.017659 (c=  0.13288735)
   230a -> 241a  :     0.026688 (c= -0.16336422)
   232a -> 242a  :     0.030114 (c=  0.17353476)
   233a -> 241a  :     0.015685 (c=  0.12523884)
   233a -> 242a  :     0.059296 (c= -0.24350699)
   237a -> 243a  :     0.018306 (c= -0.13529962)
   237a -> 244a  :     0.068412 (c=  0.26155698)
   237a -> 246a  :     0.035659 (c= -0.18883711)
   238a -> 246a  :     0.015242 (c= -0.12345779)
   238a -> 247a  :     0.108717 (c=  0.32972325)
   239a -> 249a  :     0.247907 (c= -0.49790264)

STATE 48:  E=   0.167644 au      4.562 eV    36793.5 cm**-1
   224a -> 240a  :     0.041977 (c= -0.20488363)
   225a -> 241a  :     0.027284 (c= -0.16517944)
   232a -> 242a  :     0.073405 (c=  0.27093395)
   233a -> 242a  :     0.043721 (c= -0.20909581)
   233a -> 243a  :     0.013108 (c=  0.11448952)
   233a -> 244a  :     0.011147 (c=  0.10557893)
   236a -> 243a  :     0.117068 (c= -0.34215216)
   237a -> 243a  :     0.068055 (c= -0.26087421)
   237a -> 244a  :     0.327084 (c= -0.57191293)
   237a -> 246a  :     0.045846 (c=  0.21411680)
   237a -> 247a  :     0.015121 (c= -0.12296685)
   238a -> 248a  :     0.017164 (c=  0.13100961)
   239a -> 248a  :     0.012493 (c= -0.11177067)
   239a -> 250a  :     0.010370 (c= -0.10183124)

STATE 49:  E=   0.167923 au      4.569 eV    36854.9 cm**-1
   224a -> 240a  :     0.114944 (c=  0.33903426)
   224a -> 241a  :     0.018392 (c=  0.13561814)
   225a -> 241a  :     0.046598 (c= -0.21586555)
   227a -> 241a  :     0.018042 (c= -0.13432036)
   231a -> 242a  :     0.015422 (c=  0.12418595)
   232a -> 243a  :     0.018004 (c= -0.13418057)
   233a -> 242a  :     0.268485 (c= -0.51815538)
   236a -> 243a  :     0.143049 (c= -0.37821843)
   236a -> 244a  :     0.016848 (c=  0.12979881)
   237a -> 244a  :     0.065305 (c=  0.25554803)
   237a -> 246a  :     0.039358 (c= -0.19838745)
   238a -> 246a  :     0.016519 (c= -0.12852520)
   238a -> 247a  :     0.027335 (c= -0.16533382)
   238a -> 248a  :     0.010098 (c=  0.10048763)
   239a -> 248a  :     0.014292 (c= -0.11955108)

STATE 50:  E=   0.168029 au      4.572 eV    36878.1 cm**-1
   223a -> 240a  :     0.028149 (c= -0.16777604)
   224a -> 240a  :     0.193347 (c= -0.43971263)
   224a -> 241a  :     0.019282 (c= -0.13886012)
   225a -> 241a  :     0.028899 (c=  0.16999833)
   233a -> 242a  :     0.095278 (c= -0.30867087)
   235a -> 242a  :     0.013212 (c=  0.11494493)
   236a -> 243a  :     0.011408 (c=  0.10680905)
   237a -> 244a  :     0.032860 (c=  0.18127199)
   238a -> 246a  :     0.011950 (c=  0.10931566)
   238a -> 250a  :     0.013479 (c=  0.11609882)
   239a -> 248a  :     0.018627 (c= -0.13647895)
   239a -> 249a  :     0.355032 (c=  0.59584560)
   239a -> 250a  :     0.042549 (c=  0.20627328)


-----------------------------
TD-DFT/TDA-EXCITATION SPECTRA
-----------------------------

Center of mass = ( -8.1918,  3.6561,  0.3759)
Calculating the Dipole integrals                  ... done
Transforming integrals                            ... done
Calculating the Linear Momentum integrals         ... done
Transforming integrals                            ... done
Calculating angular momentum integrals            ... done
Transforming integrals                            ... done

-----------------------------------------------------------------------------
         ABSORPTION SPECTRUM VIA TRANSITION ELECTRIC DIPOLE MOMENTS
-----------------------------------------------------------------------------
State   Energy    Wavelength  fosc         T2        TX        TY        TZ  
        (cm-1)      (nm)                 (au**2)    (au)      (au)      (au) 
-----------------------------------------------------------------------------
   1   19592.4    510.4   1.073636459  18.04033  -3.67532   2.12110  -0.18234
   2   21322.5    469.0   0.091206222   1.40819  -0.72679  -0.93790   0.01784
   3   21768.0    459.4   0.310171833   4.69093   2.09562  -0.54699   0.00948
   4   24113.3    414.7   0.058117099   0.79346  -0.20349  -0.86707   0.01541
   5   25340.9    394.6   0.117150722   1.52194  -0.28468  -1.19903   0.05678
   6   25922.9    385.8   0.095570585   1.21372  -0.76424   0.78923  -0.08222
   7   26253.3    380.9   0.148254696   1.85909   1.07728  -0.83074   0.09178
   8   26672.7    374.9   0.004139130   0.05109  -0.08776   0.20471  -0.03846
   9   27399.5    365.0   0.010311245   0.12389   0.27348  -0.21314  -0.06062
  10   27635.2    361.9   0.017051740   0.20313  -0.34373  -0.28917  -0.03698
  11   27775.5    360.0   0.141863671   1.68146   0.45847  -1.20783   0.11136
  12   28175.6    354.9   0.336679189   3.93386  -1.95606  -0.32818  -0.00026
  13   28562.1    350.1   0.026295873   0.30309  -0.36559  -0.41130  -0.01628
  14   28730.2    348.1   0.045643356   0.52302  -0.42324  -0.58555   0.03191
  15   29422.1    339.9   0.063870325   0.71466   0.48513   0.69186   0.02538
  16   29818.1    335.4   0.001229753   0.01358   0.10871  -0.03957   0.01392
  17   30009.9    333.2   0.015119610   0.16586  -0.13215   0.38027   0.06161
  18   30542.2    327.4   0.001103791   0.01190   0.04576  -0.09892   0.00439
  19   30841.4    324.2   0.067957798   0.72540  -0.73085  -0.42783  -0.09067
  20   31202.3    320.5   0.081583240   0.86077   0.49611   0.78277  -0.04386
  21   31436.5    318.1   0.004254205   0.04455  -0.05506   0.16198  -0.12362
  22   31630.2    316.2   0.036930777   0.38438  -0.38813   0.48272  -0.02675
  23   31697.7    315.5   0.003354445   0.03484   0.16823   0.07384   0.03295
  24   31834.0    314.1   0.018371864   0.18999   0.40148   0.16973   0.00001
  25   31852.7    313.9   0.005264770   0.05441   0.13599  -0.18936   0.00788
  26   32115.0    311.4   0.002875096   0.02947   0.11619  -0.10956   0.06299
  27   32308.5    309.5   0.031257310   0.31850   0.51449   0.23113  -0.01935
  28   32488.9    307.8   0.002811767   0.02849  -0.12770  -0.10057  -0.04550
  29   32754.5    305.3   0.011086441   0.11143   0.32701   0.04341  -0.05107
  30   32917.8    303.8   0.056474405   0.56480  -0.74210   0.11821   0.01065
  31   33156.4    301.6   0.004993237   0.04958   0.21890  -0.01530   0.03777
  32   33300.8    300.3   0.032463680   0.32094  -0.49799   0.15258  -0.22285
  33   33422.1    299.2   0.037625886   0.37062  -0.00635  -0.56494  -0.22676
  34   33842.3    295.5   0.038512492   0.37464  -0.14578  -0.59446   0.00112
  35   33920.0    294.8   0.080974048   0.78590  -0.07881  -0.88179   0.04613
  36   34217.8    292.2   0.213007239   2.04936  -1.09736  -0.91346  -0.10374
  37   34439.5    290.4   0.071017127   0.67886  -0.81670   0.01006   0.10843
  38   34461.9    290.2   0.013210196   0.12620   0.33841   0.04078  -0.10006
  39   34826.4    287.1   0.022296673   0.21077  -0.42617   0.17051   0.00876
  40   34942.9    286.2   0.025061268   0.23611  -0.12320  -0.45825  -0.10461
  41   35001.4    285.7   0.015195047   0.14292   0.18099  -0.28399   0.17179
  42   35032.7    285.4   0.001620369   0.01523  -0.09848  -0.07296  -0.01434
  43   35510.0    281.6   0.124805210   1.15707  -0.96394  -0.47720   0.01302
  44   35563.2    281.2   0.000763245   0.00707  -0.01067  -0.08234  -0.01307
  45   35832.1    279.1   0.004322485   0.03971  -0.19296   0.04939   0.00620
  46   35911.6    278.5   0.061497195   0.56376   0.61979   0.41566   0.08272
  47   36248.4    275.9   0.002957087   0.02686  -0.13623   0.08349  -0.03641
  48   36793.5    271.8   0.011100918   0.09933  -0.02540  -0.28001  -0.14240
  49   36854.9    271.3   0.014887879   0.13299  -0.12479   0.32686  -0.10286
  50   36878.1    271.2   0.034216746   0.30545  -0.50926  -0.21163   0.03630

-----------------------------------------------------------------------------
         ABSORPTION SPECTRUM VIA TRANSITION VELOCITY DIPOLE MOMENTS
-----------------------------------------------------------------------------
State   Energy    Wavelength   fosc        P2         PX        PY        PZ  
        (cm-1)      (nm)                 (au**2)     (au)      (au)      (au) 
-----------------------------------------------------------------------------
   1   19592.4    510.4   0.292351391   0.03915   0.19190  -0.04757  -0.00758
   2   21322.5    469.0   0.000172109   0.00003   0.00086  -0.00428   0.00246
   3   21768.0    459.4   0.138350071   0.02058  -0.13345   0.05258  -0.00289
   4   24113.3    414.7   0.003501554   0.00058  -0.01579   0.01796   0.00224
   5   25340.9    394.6   0.016548010   0.00287   0.03811   0.03741   0.00376
   6   25922.9    385.8   0.018112173   0.00321   0.03485  -0.04460  -0.00227
   7   26253.3    380.9   0.059284849   0.01064  -0.07658   0.06902  -0.00307
   8   26672.7    374.9   0.002649721   0.00048   0.00545  -0.02104   0.00329
   9   27399.5    365.0   0.010194020   0.00191  -0.04266   0.00923  -0.00198
  10   27635.2    361.9   0.004104268   0.00078   0.02202   0.00981   0.01394
  11   27775.5    360.0   0.012390178   0.00235  -0.03437   0.03415  -0.00198
  12   28175.6    354.9   0.111045727   0.02138   0.14519   0.01593  -0.00702
  13   28562.1    350.1   0.014908924   0.00291   0.01374   0.05152  -0.00818
  14   28730.2    348.1   0.003914712   0.00077   0.01774   0.02067   0.00519
  15   29422.1    339.9   0.005368958   0.00108  -0.02916  -0.01504  -0.00169
  16   29818.1    335.4   0.004290873   0.00087   0.01369   0.02621  -0.00041
  17   30009.9    333.2   0.005791486   0.00119   0.02866  -0.01697   0.00885
  18   30542.2    327.4   0.000189858   0.00004  -0.00516   0.00358   0.00043
  19   30841.4    324.2   0.018350752   0.00387   0.04809   0.03496  -0.01825
  20   31202.3    320.5   0.029394513   0.00627  -0.00840  -0.07773  -0.01249
  21   31436.5    318.1   0.000529148   0.00011  -0.00640  -0.00429  -0.00737
  22   31630.2    316.2   0.016754849   0.00362   0.04035  -0.04444   0.00431
  23   31697.7    315.5   0.001737250   0.00038  -0.01488  -0.01063   0.00647
  24   31834.0    314.1   0.005332942   0.00116  -0.03309  -0.00755   0.00291
  25   31852.7    313.9   0.000913552   0.00020  -0.00543   0.00938  -0.00903
  26   32115.0    311.4   0.004362376   0.00096  -0.00844   0.01746   0.02411
  27   32308.5    309.5   0.018690099   0.00413  -0.05214  -0.03521  -0.01297
  28   32488.9    307.8   0.001491296   0.00033   0.00536   0.01629   0.00609
  29   32754.5    305.3   0.009142076   0.00205  -0.04322   0.00586  -0.01201
  30   32917.8    303.8   0.024265098   0.00546   0.07219   0.01396   0.00728
  31   33156.4    301.6   0.006980829   0.00158   0.00473   0.03944   0.00199
  32   33300.8    300.3   0.004468192   0.00102   0.03078   0.00487  -0.00677
  33   33422.1    299.2   0.024686920   0.00564  -0.06751  -0.00428  -0.03260
  34   33842.3    295.5   0.003620085   0.00084  -0.00021  -0.02482   0.01487
  35   33920.0    294.8   0.019570987   0.00454   0.01636   0.06486   0.00793
  36   34217.8    292.2   0.013765477   0.00322   0.02789   0.04518  -0.02000
  37   34439.5    290.4   0.006986311   0.00164   0.02784  -0.02927   0.00359
  38   34461.9    290.2   0.008741731   0.00206  -0.04535  -0.00042   0.00149
  39   34826.4    287.1   0.002937944   0.00070   0.02317  -0.00958   0.00842
  40   34942.9    286.2   0.001606325   0.00038   0.01798   0.00070   0.00773
  41   35001.4    285.7   0.000740271   0.00018   0.01238   0.00118   0.00473
  42   35032.7    285.4   0.000189524   0.00005   0.00660   0.00132   0.00033
  43   35510.0    281.6   0.005888986   0.00143   0.03528  -0.01212   0.00612
  44   35563.2    281.2   0.000021828   0.00001  -0.00092   0.00070  -0.00199
  45   35832.1    279.1   0.001712081   0.00042  -0.00438   0.01996  -0.00135
  46   35911.6    278.5   0.006225276   0.00153  -0.02644   0.02857   0.00360
  47   36248.4    275.9   0.007062764   0.00175   0.01190  -0.03970  -0.00566
  48   36793.5    271.8   0.001458923   0.00037  -0.00803   0.00791  -0.01549
  49   36854.9    271.3   0.001025539   0.00026   0.00353   0.01515   0.00403
  50   36878.1    271.2   0.007398591   0.00186   0.03690  -0.02100   0.00787

-------------------------------------------------------------------
                             CD SPECTRUM
-------------------------------------------------------------------
State  Energy     Wavelength     R         MX        MY        MZ   
       (cm-1)       (nm)     (1e40*cgs)   (au)      (au)      (au)  
-------------------------------------------------------------------
   1   19592.4    510.4    -14.97964   0.03763   0.00906  -0.47887
   2   21322.5    469.0     26.97715  -0.03026  -0.03376   0.20032
   3   21768.0    459.4    -68.45924  -0.08116  -0.03921   0.36180
   4   24113.3    414.7      4.66794  -0.06633   0.00917   0.28250
   5   25340.9    394.6    -29.79549   0.05179   0.03105  -0.19767
   6   25922.9    385.8    -66.93470   0.00923  -0.14717   0.22823
   7   26253.3    380.9     17.79771   0.10162   0.07208  -0.12895
   8   26672.7    374.9     11.75253  -0.11174   0.12130   0.25243
   9   27399.5    365.0      1.19771  -0.00347  -0.02518   0.03096
  10   27635.2    361.9     17.15073   0.01874  -0.13564  -0.09723
  11   27775.5    360.0    -21.35124   0.04595   0.04364  -0.12257
  12   28175.6    354.9    -99.16343   0.09466   0.07720  -0.60099
  13   28562.1    350.1     -6.54031   0.04443  -0.00201  -0.09481
  14   28730.2    348.1     43.47030   0.03988  -0.15069   0.65321
  15   29422.1    339.9     38.51987   0.03798   0.10057  -0.24829
  16   29818.1    335.4     -1.62594   0.00574   0.01846  -0.24014
  17   30009.9    333.2      0.38467   0.04185   0.02586  -0.05659
  18   30542.2    327.4      0.64588  -0.00777  -0.01477   0.06040
  19   30841.4    324.2    -28.83430   0.03842   0.09298  -0.07394
  20   31202.3    320.5     16.57846   0.06051   0.01761   0.19691
  21   31436.5    318.1     -8.72679  -0.00072  -0.03225   0.10780
  22   31630.2    316.2     17.13378  -0.01518   0.05537  -0.13907
  23   31697.7    315.5      4.90732  -0.01872  -0.04769   0.51837
  24   31834.0    314.1     -2.50475  -0.01418   0.00223   0.08740
  25   31852.7    313.9      4.78948   0.03486  -0.02570   0.07012
  26   32115.0    311.4      0.49307   0.07357   0.07726   0.01529
  27   32308.5    309.5      5.18729  -0.01038   0.06607  -0.05547
  28   32488.9    307.8     -1.78475   0.00652   0.05682  -0.06070
  29   32754.5    305.3     12.39203   0.06164   0.05793  -0.07077
  30   32917.8    303.8    -20.82262   0.05233  -0.04575   0.00695
  31   33156.4    301.6      7.78687   0.01346  -0.02002   0.35116
  32   33300.8    300.3     -5.45964   0.00059  -0.04035   0.02302
  33   33422.1    299.2    -37.69252   0.05807   0.16088  -0.04986
  34   33842.3    295.5     28.26425  -0.11105  -0.07298   0.33620
  35   33920.0    294.8      4.13537  -0.01630  -0.02303  -0.27797
  36   34217.8    292.2     21.83935  -0.00215  -0.02288  -0.22229
  37   34439.5    290.4      0.64939   0.03810  -0.01406   0.30097
  38   34461.9    290.2      9.43310   0.00046   0.04936  -0.17830
  39   34826.4    287.1      2.89486   0.00714   0.05635  -0.04855
  40   34942.9    286.2     29.19678  -0.02380  -0.14067   0.05223
  41   35001.4    285.7     10.35334   0.02472  -0.04958   0.01983
  42   35032.7    285.4      0.22058  -0.00026  -0.00947   0.01735
  43   35510.0    281.6    -12.21170   0.05503  -0.04729   0.35138
  44   35563.2    281.2     -0.00337  -0.00480  -0.00019   0.00568
  45   35832.1    279.1     -4.98697   0.06730   0.05913  -0.08257
  46   35911.6    278.5     36.50838   0.08277   0.05170   0.05618
  47   36248.4    275.9      8.76735  -0.01750   0.06147  -0.30432
  48   36793.5    271.8     15.40432   0.02794  -0.09064  -0.05622
  49   36854.9    271.3      4.80863  -0.04788   0.02312   0.03239
  50   36878.1    271.2      3.87374  -0.02819   0.05968   0.17875

Total run time:    11643.883 sec

           *** ORCA-CIS/TD-DFT FINISHED WITHOUT ERROR ***

-----------------------
CIS/TD-DFT TOTAL ENERGY
-----------------------

    E(SCF)  =  -5989.621277743 Eh
    DE(CIS) =      0.089269672 Eh (Root  1)
    ----------------------------- ---------
    E(tot)  =  -5989.532008070 Eh


-------------------------   --------------------
FINAL SINGLE POINT ENERGY     -5989.532008070468
-------------------------   --------------------


                            ***************************************
                            *     ORCA property calculations      *
                            ***************************************

                                    ---------------------
                                    Active property flags
                                    ---------------------
   (+) Dipole Moment


------------------------------------------------------------------------------
                       ORCA ELECTRIC PROPERTIES CALCULATION
------------------------------------------------------------------------------

Dipole Moment Calculation                       ... on
Quadrupole Moment Calculation                   ... off
Polarizability Calculation                      ... off
GBWName                                         ... PBDB-T-2Cl_dimer.gbw
Electron density file                           ... PBDB-T-2Cl_dimer.scfp
The origin for moment calculation is the CENTER OF MASS  = (-8.191773,  3.656074  0.375866)

-------------
DIPOLE MOMENT
-------------
                                X             Y             Z
Electronic contribution:     31.09464       6.04574      15.18434
Nuclear contribution   :    -30.86847      -6.08265     -15.74712
                        -----------------------------------------
Total Dipole Moment    :      0.22617      -0.03691      -0.56278
                        -----------------------------------------
Magnitude (a.u.)       :      0.60765
Magnitude (Debye)      :      1.54452



--------------------
Rotational spectrum 
--------------------
 
Rotational constants in cm-1:     0.001347     0.000499     0.000373 
Rotational constants in MHz :    40.367687    14.955612    11.184649 

 Dipole components along the rotational axes: 
x,y,z [a.u.] :    -0.214075     0.058145    -0.565710 
x,y,z [Debye]:    -0.544136     0.147792    -1.437922 

 

Timings for individual modules:

Sum of individual times         ...    13273.663 sec (= 221.228 min)
GTO integral calculation        ...        5.488 sec (=   0.091 min)   0.0 %
SCF iterations                  ...     1622.673 sec (=  27.045 min)  12.2 %
CIS module                      ...    11645.503 sec (= 194.092 min)  87.7 %
                             ****ORCA TERMINATED NORMALLY****
TOTAL RUN TIME: 0 days 3 hours 41 minutes 15 seconds 260 msec
