
                                 *****************
                                 * O   R   C   A *
                                 *****************

           --- An Ab Initio, DFT and Semiempirical electronic structure package ---

                  #######################################################
                  #                        -***-                        #
                  #          Department of theory and spectroscopy      #
                  #               Directorship: Frank Neese             #
                  #        Max Planck Institute fuer Kohlenforschung    #
                  #                Kaiser Wilhelm Platz 1               #
                  #                 D-45470 Muelheim/Ruhr               #
                  #                      Germany                        #
                  #                                                     #
                  #                  All rights reserved                #
                  #                        -***-                        #
                  #######################################################


                         Program Version 4.2.0 -  RELEASE  -


 With contributions from (in alphabetic order):
   Daniel Aravena         : Magnetic Suceptibility
   Michael Atanasov       : Ab Initio Ligand Field Theory (pilot matlab implementation)
   Alexander A. Auer      : GIAO ZORA, VPT2
   Ute Becker             : Parallelization
   Giovanni Bistoni       : ED, misc. LED, open-shell LED, HFLED
   Martin Brehm           : Molecular dynamics
   Dmytro Bykov           : SCF Hessian
   Vijay G. Chilkuri      : MRCI spin determinant printing, contributions to CSF-ICE
   Dipayan Datta          : RHF DLPNO-CCSD density
   Achintya Kumar Dutta   : EOM-CC, STEOM-CC
   Dmitry Ganyushin       : Spin-Orbit,Spin-Spin,Magnetic field MRCI
   Miquel Garcia          : C-PCM Hessian, Gaussian charge scheme
   Yang Guo               : DLPNO-NEVPT2, CIM, IAO-localization
   Andreas Hansen         : Spin unrestricted coupled pair/coupled cluster methods
   Benjamin Helmich-Paris : CASSCF linear response (MC-RPA)
   Lee Huntington         : MR-EOM, pCC
   Robert Izsak           : Overlap fitted RIJCOSX, COSX-SCS-MP3, EOM
   Christian Kollmar      : KDIIS, OOCD, Brueckner-CCSD(T), CCSD density
   Simone Kossmann        : Meta GGA functionals, TD-DFT gradient, OOMP2, MP2 Hessian
   Martin Krupicka        : AUTO-CI
   Lucas Lang             : DCDCAS
   Dagmar Lenk            : GEPOL surface, SMD
   Dimitrios Liakos       : Extrapolation schemes; Compound Job, initial MDCI parallelization
   Dimitrios Manganas     : Further ROCIS development; embedding schemes
   Dimitrios Pantazis     : SARC Basis sets
   Taras Petrenko         : DFT Hessian,TD-DFT gradient, ASA, ECA, R-Raman, ABS, FL, XAS/XES, NRVS
   Peter Pinski           : DLPNO-MP2, DLPNO-MP2 Gradient
   Christoph Reimann      : Effective Core Potentials
   Marius Retegan         : Local ZFS, SOC
   Christoph Riplinger    : Optimizer, TS searches, QM/MM, DLPNO-CCSD(T), (RO)-DLPNO pert. Triples
   Tobias Risthaus        : Range-separated hybrids, TD-DFT gradient, RPA, STAB
   Michael Roemelt        : Original ROCIS implementation
   Masaaki Saitow         : Open-shell DLPNO-CCSD energy and density
   Barbara Sandhoefer     : DKH picture change effects
   Avijit Sen             : IP-ROCIS
   Kantharuban Sivalingam : CASSCF convergence, NEVPT2, FIC-MRCI
   Bernardo de Souza      : ESD, SOC TD-DFT
   Georgi Stoychev        : AutoAux, RI-MP2 NMR
   Willem Van den Heuvel  : Paramagnetic NMR
   Boris Wezisla          : Elementary symmetry handling
   Frank Wennmohs         : Technical directorship


 We gratefully acknowledge several colleagues who have allowed us to
 interface, adapt or use parts of their codes:
   Stefan Grimme, W. Hujo, H. Kruse,             : VdW corrections, initial TS optimization,
                  C. Bannwarth                     DFT functionals, gCP, sTDA/sTD-DF
   Ed Valeev, F. Pavosevic, A. Kumar             : LibInt (2-el integral package), F12 methods
   Garnet Chan, S. Sharma, J. Yang, R. Olivares  : DMRG
   Ulf Ekstrom                                   : XCFun DFT Library
   Mihaly Kallay                                 : mrcc  (arbitrary order and MRCC methods)
   Andreas Klamt, Michael Diedenhofen            : otool_cosmo (COSMO solvation model)
   Jiri Pittner, Ondrej Demel                    : Mk-CCSD
   Frank Weinhold                                : gennbo (NPA and NBO analysis)
   Christopher J. Cramer and Donald G. Truhlar   : smd solvation model
   Lars Goerigk                                  : TD-DFT with DH, B97 family of functionals
   V. Asgeirsson, H. Jonsson                     : NEB implementation
   FAccTs GmbH                                   : IRC, NEB, NEB-TS, Multilevel, MM, QM/MM, CI optimization
   S Lehtola, MJT Oliveira, MAL Marques          : LibXC Library


 Your calculation uses the libint2 library for the computation of 2-el integrals
 For citations please refer to: http://libint.valeyev.net

 Your ORCA version has been built with support for libXC version: 4.2.3
 For citations please refer to: https://tddft.org/programs/libxc/

 This ORCA versions uses:
   CBLAS   interface :  Fast vector & matrix operations
   LAPACKE interface :  Fast linear algebra routines
   SCALAPACK package :  Parallel linear algebra routines


----- Orbital basis set information -----
Your calculation utilizes the basis: def2-TZVP
   F. Weigend and R. Ahlrichs, Phys. Chem. Chem. Phys. 7, 3297 (2005).

----- AuxJ basis set information -----
Your calculation utilizes the auxiliary basis: def2/J
   F. Weigend, Phys. Chem. Chem. Phys. 8, 1057 (2006).

================================================================================
                                        WARNINGS
                       Please study these warnings very carefully!
================================================================================

INFO   : Checking CIS options ...

WARNING: CIS/ROCIS methods need fully converged wavefunctions
  ===> : Setting SCFConvForced true
         You can overwrite this default with %scf ConvForced false 


INFO   : the flag for use of LIBINT has been found!

================================================================================
                                       INPUT FILE
================================================================================
NAME = PDCBT-Cl_tetra.inp
|  1> # ORCA input file
|  2> # PDCBT-Cl_tetra.out
|  3> ! B3LYP def2-TZVP def2/J RIJCOSX Grid4 TightSCF
|  4> %maxcore 1000
|  5> %tddft
|  6>   maxdim 5
|  7>   nroots 50
|  8>   end
|  9> * xyz 0 1
| 10>    C       -0.26750        -0.13986        -0.23715
| 11>    C        1.21304        -0.19314        -0.16286
| 12>    C        2.12521         0.83719        -0.10474
| 13>    C        3.46617         0.38442        -0.04098
| 14>    C        3.58230        -0.97616        -0.04975
| 15>    S        2.00783        -1.72428        -0.13845
| 16>    C        1.83207         2.27863        -0.09960
| 17>    O        0.51751         2.55088        -0.17664
| 18>    O        2.67798         3.13669        -0.03234
| 19>    C        0.17608         3.92873        -0.17044
| 20>    C        8.56434        -2.57253         0.11474
| 21>    C        9.33484        -1.42758         0.07053
| 22>    C       10.70579        -1.67961        -0.00469
| 23>    S        9.57981        -3.98419         0.07411
| 24>    C        7.14004        -2.58819         0.12904
| 25>    C        6.19880        -3.60872         0.08980
| 26>    C        4.87264        -3.13422         0.00571
| 27>    C        4.76516        -1.77095         0.00407
| 28>    S        6.33858        -1.03496         0.08246
| 29>    C        6.40802        -5.06519         0.13215
| 30>    O        7.54813        -5.41500         0.74649
| 31>    O        5.61810        -5.86765        -0.29905
| 32>    C        7.81293        -6.80719         0.82822
| 33>    C       14.72285        -4.20695        -0.27511
| 34>    C       13.89540        -5.31680        -0.21327
| 35>    C       12.54516        -5.00833        -0.12507
| 36>    C       12.30077        -3.64790        -0.10842
| 37>    S       13.78309        -2.74702        -0.22635
| 38>    C       16.14374        -4.26503        -0.32141
| 39>    C       17.13999        -3.29535        -0.32734
| 40>    C       18.44044        -3.83792        -0.27674
| 41>    C       18.47698        -5.20578        -0.25487
| 42>    S       16.86415        -5.85826        -0.27242
| 43>    C       17.00860        -1.82951        -0.38240
| 44>    O       15.86983        -1.42364        -0.96156
| 45>    O       17.85728        -1.06837         0.01142
| 46>    C       15.67395        -0.02035        -1.04559
| 47>    C       11.03017        -3.02369        -0.02714
| 48>    C       23.36469        -7.06366        -0.10947
| 49>    C       24.19631        -5.96311        -0.11362
| 50>    C       25.54701        -6.28123         0.05319
| 51>    S       24.29520        -8.51930         0.09927
| 52>    C       21.94393        -7.00516        -0.19492
| 53>    C       20.94814        -7.97365        -0.17355
| 54>    C       19.64743        -7.42906        -0.17654
| 55>    C       19.61343        -6.06153        -0.22220
| 56>    S       21.22770        -5.41186        -0.23890
| 57>    C       21.08363        -9.43975        -0.16298
| 58>    O       22.23318        -9.86462        -0.70777
| 59>    O       20.23270       -10.18759         0.25040
| 60>    C       22.43058       -11.26977        -0.73668
| 61>    C       25.78974        -7.63250         0.20178
| 62>   Cl       11.87486        -0.42761        -0.06557
| 63>   Cl       26.77987        -5.08651         0.07293
| 64>    C       27.01896        -8.32132         0.39947
| 65>    S       28.55304        -7.50036         0.46880
| 66>    C       29.37492        -8.98568         0.70894
| 67>    C       28.52827       -10.05086         0.73631
| 68>    C       27.18701        -9.67728         0.56064
| 69>    H       -0.58270         0.40985        -1.12302
| 70>    H       -0.67146         0.38307         0.62880
| 71>    H       -0.68056        -1.14487        -0.27322
| 72>    H        4.30254         1.05811         0.00919
| 73>    H        0.46124         4.38625         0.77920
| 74>    H       -0.90114         3.97504        -0.30810
| 75>    H        0.69119         4.45203        -0.97854
| 76>    H        8.91951        -0.43623         0.08588
| 77>    H        4.02927        -3.79978        -0.04338
| 78>    H        7.03843        -7.30362         1.41631
| 79>    H        8.78166        -6.90091         1.31163
| 80>    H        7.83447        -7.24850        -0.17011
| 81>    H       14.27827        -6.32212        -0.22990
| 82>    H       11.75782        -5.73897        -0.07456
| 83>    H       19.31968        -3.21868        -0.26444
| 84>    H       16.46310         0.43512        -1.64594
| 85>    H       15.68753         0.42453        -0.04935
| 86>    H       14.70401         0.12096        -1.51360
| 87>    H       23.84130        -4.95516        -0.22999
| 88>    H       18.76717        -8.04645        -0.15265
| 89>    H       21.70647       -11.73768        -1.40660
| 90>    H       22.30898       -11.69071         0.26310
| 91>    H       23.44320       -11.42375        -1.09972
| 92>    H       30.44126        -8.98244         0.81707
| 93>    H       28.85213       -11.06633         0.87774
| 94>    H       26.36133       -10.36627         0.55301
| 95> *
| 96> 
| 97>                          ****END OF INPUT****
================================================================================

                       ****************************
                       * Single Point Calculation *
                       ****************************

---------------------------------
CARTESIAN COORDINATES (ANGSTROEM)
---------------------------------
  C     -0.267500   -0.139860   -0.237150
  C      1.213040   -0.193140   -0.162860
  C      2.125210    0.837190   -0.104740
  C      3.466170    0.384420   -0.040980
  C      3.582300   -0.976160   -0.049750
  S      2.007830   -1.724280   -0.138450
  C      1.832070    2.278630   -0.099600
  O      0.517510    2.550880   -0.176640
  O      2.677980    3.136690   -0.032340
  C      0.176080    3.928730   -0.170440
  C      8.564340   -2.572530    0.114740
  C      9.334840   -1.427580    0.070530
  C     10.705790   -1.679610   -0.004690
  S      9.579810   -3.984190    0.074110
  C      7.140040   -2.588190    0.129040
  C      6.198800   -3.608720    0.089800
  C      4.872640   -3.134220    0.005710
  C      4.765160   -1.770950    0.004070
  S      6.338580   -1.034960    0.082460
  C      6.408020   -5.065190    0.132150
  O      7.548130   -5.415000    0.746490
  O      5.618100   -5.867650   -0.299050
  C      7.812930   -6.807190    0.828220
  C     14.722850   -4.206950   -0.275110
  C     13.895400   -5.316800   -0.213270
  C     12.545160   -5.008330   -0.125070
  C     12.300770   -3.647900   -0.108420
  S     13.783090   -2.747020   -0.226350
  C     16.143740   -4.265030   -0.321410
  C     17.139990   -3.295350   -0.327340
  C     18.440440   -3.837920   -0.276740
  C     18.476980   -5.205780   -0.254870
  S     16.864150   -5.858260   -0.272420
  C     17.008600   -1.829510   -0.382400
  O     15.869830   -1.423640   -0.961560
  O     17.857280   -1.068370    0.011420
  C     15.673950   -0.020350   -1.045590
  C     11.030170   -3.023690   -0.027140
  C     23.364690   -7.063660   -0.109470
  C     24.196310   -5.963110   -0.113620
  C     25.547010   -6.281230    0.053190
  S     24.295200   -8.519300    0.099270
  C     21.943930   -7.005160   -0.194920
  C     20.948140   -7.973650   -0.173550
  C     19.647430   -7.429060   -0.176540
  C     19.613430   -6.061530   -0.222200
  S     21.227700   -5.411860   -0.238900
  C     21.083630   -9.439750   -0.162980
  O     22.233180   -9.864620   -0.707770
  O     20.232700  -10.187590    0.250400
  C     22.430580  -11.269770   -0.736680
  C     25.789740   -7.632500    0.201780
  Cl    11.874860   -0.427610   -0.065570
  Cl    26.779870   -5.086510    0.072930
  C     27.018960   -8.321320    0.399470
  S     28.553040   -7.500360    0.468800
  C     29.374920   -8.985680    0.708940
  C     28.528270  -10.050860    0.736310
  C     27.187010   -9.677280    0.560640
  H     -0.582700    0.409850   -1.123020
  H     -0.671460    0.383070    0.628800
  H     -0.680560   -1.144870   -0.273220
  H      4.302540    1.058110    0.009190
  H      0.461240    4.386250    0.779200
  H     -0.901140    3.975040   -0.308100
  H      0.691190    4.452030   -0.978540
  H      8.919510   -0.436230    0.085880
  H      4.029270   -3.799780   -0.043380
  H      7.038430   -7.303620    1.416310
  H      8.781660   -6.900910    1.311630
  H      7.834470   -7.248500   -0.170110
  H     14.278270   -6.322120   -0.229900
  H     11.757820   -5.738970   -0.074560
  H     19.319680   -3.218680   -0.264440
  H     16.463100    0.435120   -1.645940
  H     15.687530    0.424530   -0.049350
  H     14.704010    0.120960   -1.513600
  H     23.841300   -4.955160   -0.229990
  H     18.767170   -8.046450   -0.152650
  H     21.706470  -11.737680   -1.406600
  H     22.308980  -11.690710    0.263100
  H     23.443200  -11.423750   -1.099720
  H     30.441260   -8.982440    0.817070
  H     28.852130  -11.066330    0.877740
  H     26.361330  -10.366270    0.553010

----------------------------
CARTESIAN COORDINATES (A.U.)
----------------------------
  NO LB      ZA    FRAG     MASS         X           Y           Z
   0 C     6.0000    0    12.011   -0.505502   -0.264297   -0.448149
   1 C     6.0000    0    12.011    2.292313   -0.364982   -0.307761
   2 C     6.0000    0    12.011    4.016065    1.582060   -0.197930
   3 C     6.0000    0    12.011    6.550112    0.726449   -0.077441
   4 C     6.0000    0    12.011    6.769566   -1.844675   -0.094014
   5 S    16.0000    0    32.060    3.794249   -3.258417   -0.261633
   6 C     6.0000    0    12.011    3.462111    4.305987   -0.188217
   7 O     8.0000    0    15.999    0.977952    4.820465   -0.333801
   8 O     8.0000    0    15.999    5.060649    5.927485   -0.061114
   9 C     6.0000    0    12.011    0.332743    7.424224   -0.322085
  10 C     6.0000    0    12.011   16.184257   -4.861377    0.216827
  11 C     6.0000    0    12.011   17.640291   -2.697735    0.133282
  12 C     6.0000    0    12.011   20.231011   -3.174003   -0.008863
  13 S    16.0000    0    32.060   18.103217   -7.529028    0.140048
  14 C     6.0000    0    12.011   13.492720   -4.890970    0.243850
  15 C     6.0000    0    12.011   11.714034   -6.819492    0.169697
  16 C     6.0000    0    12.011    9.207955   -5.922817    0.010790
  17 C     6.0000    0    12.011    9.004847   -3.346610    0.007691
  18 S    16.0000    0    32.060   11.978180   -1.955791    0.155827
  19 C     6.0000    0    12.011   12.109403   -9.571822    0.249727
  20 O     8.0000    0    15.999   14.263899  -10.232867    1.410662
  21 O     8.0000    0    15.999   10.616670  -11.088252   -0.565123
  22 C     6.0000    0    12.011   14.764298  -12.863725    1.565109
  23 C     6.0000    0    12.011   27.822154   -7.949983   -0.519883
  24 C     6.0000    0    12.011   26.258501  -10.047296   -0.403022
  25 C     6.0000    0    12.011   23.706917   -9.464372   -0.236348
  26 C     6.0000    0    12.011   23.245087   -6.893532   -0.204884
  27 S    16.0000    0    32.060   26.046265   -5.191115   -0.427740
  28 C     6.0000    0    12.011   30.507247   -8.059739   -0.607377
  29 C     6.0000    0    12.011   32.389887   -6.227309   -0.618583
  30 C     6.0000    0    12.011   34.847381   -7.252618   -0.522963
  31 C     6.0000    0    12.011   34.916432   -9.837499   -0.481634
  32 S    16.0000    0    32.060   31.868625  -11.070507   -0.514799
  33 C     6.0000    0    12.011   32.141596   -3.457273   -0.722631
  34 O     8.0000    0    15.999   29.989632   -2.690290   -1.817085
  35 O     8.0000    0    15.999   33.745369   -2.018927    0.021581
  36 C     6.0000    0    12.011   29.619473   -0.038456   -1.975879
  37 C     6.0000    0    12.011   20.844001   -5.713946   -0.051287
  38 C     6.0000    0    12.011   44.152865  -13.348383   -0.206868
  39 C     6.0000    0    12.011   45.724399  -11.268645   -0.214711
  40 C     6.0000    0    12.011   48.276852  -11.869804    0.100515
  41 S    16.0000    0    32.060   45.911274  -16.099144    0.187593
  42 C     6.0000    0    12.011   41.468018  -13.237834   -0.368345
  43 C     6.0000    0    12.011   39.586248  -15.068015   -0.327962
  44 C     6.0000    0    12.011   37.128262  -14.038889   -0.333612
  45 C     6.0000    0    12.011   37.064011  -11.454632   -0.419897
  46 S    16.0000    0    32.060   40.114539  -10.226933   -0.451456
  47 C     6.0000    0    12.011   39.842287  -17.838542   -0.307988
  48 O     8.0000    0    15.999   42.014621  -18.641430   -1.337491
  49 O     8.0000    0    15.999   38.234262  -19.251755    0.473187
  50 C     6.0000    0    12.011   42.387653  -21.296779   -1.392123
  51 C     6.0000    0    12.011   48.735546  -14.423335    0.381309
  52 Cl   17.0000    0    35.453   22.440233   -0.808066   -0.123909
  53 Cl   17.0000    0    35.453   50.606620   -9.612111    0.137818
  54 C     6.0000    0    12.011   51.058435  -15.725016    0.754889
  55 S    16.0000    0    32.060   53.957426  -14.173626    0.885904
  56 C     6.0000    0    12.011   55.510554  -16.980474    1.339702
  57 C     6.0000    0    12.011   53.910617  -18.993373    1.391424
  58 C     6.0000    0    12.011   51.376003  -18.287409    1.059456
  59 H     1.0000    0     1.008   -1.101143    0.774504   -2.122200
  60 H     1.0000    0     1.008   -1.268876    0.723897    1.188260
  61 H     1.0000    0     1.008   -1.286072   -2.163491   -0.516311
  62 H     1.0000    0     1.008    8.130622    1.999538    0.017367
  63 H     1.0000    0     1.008    0.871617    8.288811    1.472475
  64 H     1.0000    0     1.008   -1.702908    7.511737   -0.582225
  65 H     1.0000    0     1.008    1.306160    8.413117   -1.849173
  66 H     1.0000    0     1.008   16.855431   -0.824355    0.162290
  67 H     1.0000    0     1.008    7.614217   -7.180544   -0.081976
  68 H     1.0000    0     1.008   13.300705  -13.801842    2.676438
  69 H     1.0000    0     1.008   16.594932  -13.040830    2.478621
  70 H     1.0000    0     1.008   14.805003  -13.697680   -0.321461
  71 H     1.0000    0     1.008   26.982020  -11.947075   -0.434448
  72 H     1.0000    0     1.008   22.219060  -10.845082   -0.140898
  73 H     1.0000    0     1.008   36.508904   -6.082424   -0.499719
  74 H     1.0000    0     1.008   31.110750    0.822258   -3.110376
  75 H     1.0000    0     1.008   29.645135    0.802245   -0.093258
  76 H     1.0000    0     1.008   27.786552    0.228581   -2.860289
  77 H     1.0000    0     1.008   45.053528   -9.363895   -0.434618
  78 H     1.0000    0     1.008   35.464812  -15.205587   -0.288467
  79 H     1.0000    0     1.008   41.019284  -22.181001   -2.658089
  80 H     1.0000    0     1.008   42.157863  -22.092240    0.497187
  81 H     1.0000    0     1.008   44.301228  -21.587759   -2.078170
  82 H     1.0000    0     1.008   57.525645  -16.974352    1.544039
  83 H     1.0000    0     1.008   54.522624  -20.912333    1.658688
  84 H     1.0000    0     1.008   49.815694  -19.589411    1.045037

--------------------------------
INTERNAL COORDINATES (ANGSTROEM)
--------------------------------
 C      0   0   0     0.000000000000     0.00000000     0.00000000
 C      1   0   0     1.483359853205     0.00000000     0.00000000
 C      2   1   0     1.377320569875   129.51376342     0.00000000
 C      3   2   1     1.416770882006   112.93412842   179.94857960
 C      4   3   2     1.365555208038   113.49176293     0.00000000
 S      2   1   3     1.725304811272   119.49683584   179.92445747
 C      3   2   1     1.470954368021   126.95757090     0.15714120
 O      7   3   2     1.344664723156   113.14304822   359.21824488
 O      7   3   2     1.206795177029   123.86662809   179.16216494
 C      8   7   3     1.419536370580   115.55696315   179.77320157
 C      5   4   3     5.234135716487   112.62048905   179.13161673
 C     11   5   4     1.380773434203   106.09529465   356.41960432
 C     12  11   5     1.395951672444   113.58088697   184.97541129
 S     11   5   4     1.739429237825   143.36604945   183.52231788
 C     11   5   4     1.424457867260    18.54713948   171.65295582
 C     15  11   5     1.388867882882   133.26883317   169.83816732
 C     16  15  11     1.411000256449   113.05019374   185.33996690
 C     17  16  15     1.367501273455   114.15379361   358.84813059
 S     18  17  16     1.738814759714   110.53548492     0.92887255
 C     16  15  11     1.472029684415   129.04206798     5.75391484
 O     20  16  15     1.341503441591   113.07722359    25.63551414
 O     20  16  15     1.205756649577   123.71675777   203.27565005
 C     21  20  16     1.419504078543   116.14525104   179.79101833
 C     13  12  11     4.753666531805   158.27373334     1.71377830
 C     24  13  12     1.385736161973    85.33565007   357.85724518
 C     25  24  13     1.387833217105   113.93906173     0.21322804
 C     26  25  24     1.382307302845   113.04939902   359.61752473
 S     24  13  12     1.736928898977    25.08503734   176.98537600
 C     24  13  12     1.422830056085   150.16317841   182.09985879
 C     29  24  13     1.390262036380   133.41534440   358.12454895
 C     30  29  24     1.410004527440   113.10206659   175.32350555
 C     31  30  29     1.368522724729   114.19309407     1.06353750
 S     32  31  30     1.739901940283   110.48221098   359.11580798
 C     30  29  24     1.472746360138   129.08248192   355.10190810
 O     34  30  29     1.340505082198   113.15966731   334.40994351
 O     34  30  29     1.206103658232   123.58205923   156.77733906
 C     35  34  30     1.419384669285   116.24137414   179.81819649
 C     13  12  11     1.382851197092   113.99948615     0.29815489
 C     32  31  30     5.230924229857   112.35803256   179.50244186
 C     39  32  31     1.379427181623   106.25221485   359.69104592
 C     40  39  32     1.397646736661   113.61998638   174.14850847
 S     39  32  31     1.740203740170   143.13554874   170.95763205
 C     39  32  31     1.424529020449    18.52805210   186.41242650
 C     43  39  32     1.389254217593   133.26177273   189.71722915
 C     44  43  39     1.410118332730   113.07287050   174.94926721
 C     45  44  43     1.368714410131   114.13271740     1.03065154
 S     46  45  44     1.740177471352   110.50499579   359.14854443
 C     44  43  39     1.472385301136   128.92520113   354.25860579
 O     48  44  43     1.341184500171   113.04109208   334.41069401
 O     48  44  43     1.205914406125   123.71239977   156.76448663
 C     49  48  44     1.419242428410   116.17604195   180.23019420
 C     41  40  39     1.380915440532   113.91855867   359.46232902
 Cl    13  12  11     1.714040559409   122.67529597   180.21687765
 Cl    41  40  39     1.716883608635   122.47594167   179.60346732
 C     52  41  40     1.422861952861   129.83053338   180.48226684
 S     55  52  41     1.741316575727   122.57384130   358.99936594
 C     56  55  52     1.714447274313    91.11494017   180.00671871
 C     57  56  55     1.360945910681   112.49886540   359.95083392
 C     55  52  41     1.375806706264   126.79291145   178.94991343
 H      1   2   3     1.089172980293   110.34706376    58.97595743
 H      1   2   3     1.089269878864   110.33924303   300.59919243
 H      1   2   3     1.087182003438   110.34499533   179.80371083
 H      4   3   2     1.075123258934   122.55774806   179.99155817
 H     10   8   7     1.091996751644   110.34432139   295.95928333
 H     10   8   7     1.086967258063   106.21042538   176.10880883
 H     10   8   7     1.091882233622   110.39485981    56.06137089
 H     12  11   5     1.074946256284   123.27528053     4.58952787
 H     17  16  15     1.075477986107   122.11631984   179.36067757
 H     23  21  20     1.091852940189   110.15776951   297.52863766
 H     23  21  20     1.086695209983   106.05083376   177.69465238
 H     23  21  20     1.091733152652   110.33329976    57.70612725
 H     25  24  13     1.075887678245   122.35713176   180.39409061
 H     26  25  24     1.075309418400   124.35552126   179.58908263
 H     31  30  29     1.075487073470   122.19880407   180.62287825
 H     37  35  34     1.091160284239   110.20928653    61.39173054
 H     37  35  34     1.091144705527   110.32380893   301.15642188
 H     37  35  34     1.086179303706   106.10309074   181.35216755
 H     40  39  32     1.074959198993   123.32046012   354.37992468
 H     45  44  43     1.075452840342   122.22464299   180.57151369
 H     51  49  48     1.091818605172   110.15482224    66.53665684
 H     51  49  48     1.091575509069   110.34338582   306.34731436
 H     51  49  48     1.086695516877   106.06340988   186.28622266
 H     57  56  55     1.071813225380   119.23867289   180.00656544
 H     58  57  56     1.075205592154   123.67323454   180.07996445
 H     59  55  52     1.075412897170   122.46742748   359.82984614

---------------------------
INTERNAL COORDINATES (A.U.)
---------------------------
 C      0   0   0     0.000000000000     0.00000000     0.00000000
 C      1   0   0     2.803143880611     0.00000000     0.00000000
 C      2   1   0     2.602758675680   129.51376342     0.00000000
 C      3   2   1     2.677308961505   112.93412842   179.94857960
 C      4   3   2     2.580525363942   113.49176293     0.00000000
 S      2   1   3     3.260353590842   119.49683584   179.92445747
 C      3   2   1     2.779700911055   126.95757090     0.15714120
 O      7   3   2     2.541048068710   113.14304822   359.21824488
 O      7   3   2     2.280512384321   123.86662809   179.16216494
 C      8   7   3     2.682534977537   115.55696315   179.77320157
 C      5   4   3     9.891083051935   112.62048905   179.13161673
 C     11   5   4     2.609283643637   106.09529465   356.41960432
 C     12  11   5     2.637966357109   113.58088697   184.97541129
 S     11   5   4     3.287044888824   143.36604945   183.52231788
 C     11   5   4     2.691835258432    18.54713948   171.65295582
 C     15  11   5     2.624579934845   133.26883317   169.83816732
 C     16  15  11     2.666404059582   113.05019374   185.33996690
 C     17  16  15     2.584202894618   114.15379361   358.84813059
 S     18  17  16     3.285883693480   110.53548492     0.92887255
 C     16  15  11     2.781732964548   129.04206798     5.75391484
 O     20  16  15     2.535074112319   113.07722359    25.63551414
 O     20  16  15     2.278549851856   123.71675777   203.27565005
 C     21  20  16     2.682473954430   116.14525104   179.79101833
 C     13  12  11     8.983127877098   158.27373334     1.71377830
 C     24  13  12     2.618661840000    85.33565007   357.85724518
 C     25  24  13     2.622624699887   113.93906173     0.21322804
 C     26  25  24     2.612182235297   113.04939902   359.61752473
 S     24  13  12     3.282319933159    25.08503734   176.98537600
 C     24  13  12     2.688759141113   150.16317841   182.09985879
 C     29  24  13     2.627214503146   133.41534440   358.12454895
 C     30  29  24     2.664522404450   113.10206659   175.32350555
 C     31  30  29     2.586133157786   114.19309407     1.06353750
 S     32  31  30     3.287938167013   110.48221098   359.11580798
 C     30  29  24     2.783087285390   129.08248192   355.10190810
 O     34  30  29     2.533187486485   113.15966731   334.40994351
 O     34  30  29     2.279205603179   123.58205923   156.77733906
 C     35  34  30     2.682248303634   116.24137414   179.81819649
 C     13  12  11     2.613210046470   113.99948615     0.29815489
 C     32  31  30     9.885014221722   112.35803256   179.50244186
 C     39  32  31     2.606739594954   106.25221485   359.69104592
 C     40  39  32     2.641169564259   113.61998638   174.14850847
 S     39  32  31     3.288508486146   143.13554874   170.95763205
 C     39  32  31     2.691969718471    18.52805210   186.41242650
 C     43  39  32     2.625310001646   133.26177273   189.71722915
 C     44  43  39     2.664737465281   113.07287050   174.94926721
 C     45  44  43     2.586495390699   114.13271740     1.03065154
 S     46  45  44     3.288458845274   110.50499579   359.14854443
 C     44  43  39     2.782404982757   128.92520113   354.25860579
 O     48  44  43     2.534471400384   113.04109208   334.41069401
 O     48  44  43     2.278847968527   123.71239977   156.76448663
 C     49  48  44     2.681979507337   116.17604195   180.23019420
 C     41  40  39     2.609551996709   113.91855867   359.46232902
 Cl    13  12  11     3.239067239717   122.67529597   180.21687765
 Cl    41  40  39     3.244439824139   122.47594167   179.60346732
 C     52  41  40     2.688819417284   129.83053338   180.48226684
 S     55  52  41     3.290611440581   122.57384130   358.99936594
 C     56  55  52     3.239835819500    91.11494017   180.00671871
 C     57  56  55     2.571815054268   112.49886540   359.95083392
 C     55  52  41     2.599897888051   126.79291145   178.94991343
 H      1   2   3     2.058238645220   110.34706376    58.97595743
 H      1   2   3     2.058421756982   110.33924303   300.59919243
 H      1   2   3     2.054476244226   110.34499533   179.80371083
 H      4   3   2     2.031688519593   122.55774806   179.99155817
 H     10   8   7     2.063574799738   110.34432139   295.95928333
 H     10   8   7     2.054070434278   106.21042538   176.10880883
 H     10   8   7     2.063358392040   110.39485981    56.06137089
 H     12  11   5     2.031354033062   123.27528053     4.58952787
 H     17  16  15     2.032358856803   122.11631984   179.36067757
 H     23  21  20     2.063303035474   110.15776951   297.52863766
 H     23  21  20     2.053556337912   106.05083376   177.69465238
 H     23  21  20     2.063076669835   110.33329976    57.70612725
 H     25  24  13     2.033133062744   122.35713176   180.39409061
 H     26  25  24     2.032040310002   124.35552126   179.58908263
 H     31  30  29     2.032376029430   122.19880407   180.62287825
 H     37  35  34     2.061994105423   110.20928653    61.39173054
 H     37  35  34     2.061964665925   110.32380893   301.15642188
 H     37  35  34     2.052581416338   106.10309074   181.35216755
 H     40  39  32     2.031378491236   123.32046012   354.37992468
 H     45  44  43     2.032311338194   122.22464299   180.57151369
 H     51  49  48     2.063238151695   110.15482224    66.53665684
 H     51  49  48     2.062778766637   110.34338582   306.34731436
 H     51  49  48     2.053556917857   106.06340988   186.28622266
 H     57  56  55     2.025433462683   119.23867289   180.00656544
 H     58  57  56     2.031844106832   123.67323454   180.07996445
 H     59  55  52     2.032235856538   122.46742748   359.82984614

---------------------
BASIS SET INFORMATION
---------------------
There are 5 groups of distinct atoms

 Group   1 Type C   : 11s6p2d1f contracted to 5s3p2d1f pattern {62111/411/11/1}
 Group   2 Type S   : 14s9p3d1f contracted to 5s5p2d1f pattern {73211/51111/21/1}
 Group   3 Type O   : 11s6p2d1f contracted to 5s3p2d1f pattern {62111/411/11/1}
 Group   4 Type Cl  : 14s9p3d1f contracted to 5s5p2d1f pattern {73211/51111/21/1}
 Group   5 Type H   : 5s1p contracted to 3s1p pattern {311/1}

Atom   0C    basis set group =>   1
Atom   1C    basis set group =>   1
Atom   2C    basis set group =>   1
Atom   3C    basis set group =>   1
Atom   4C    basis set group =>   1
Atom   5S    basis set group =>   2
Atom   6C    basis set group =>   1
Atom   7O    basis set group =>   3
Atom   8O    basis set group =>   3
Atom   9C    basis set group =>   1
Atom  10C    basis set group =>   1
Atom  11C    basis set group =>   1
Atom  12C    basis set group =>   1
Atom  13S    basis set group =>   2
Atom  14C    basis set group =>   1
Atom  15C    basis set group =>   1
Atom  16C    basis set group =>   1
Atom  17C    basis set group =>   1
Atom  18S    basis set group =>   2
Atom  19C    basis set group =>   1
Atom  20O    basis set group =>   3
Atom  21O    basis set group =>   3
Atom  22C    basis set group =>   1
Atom  23C    basis set group =>   1
Atom  24C    basis set group =>   1
Atom  25C    basis set group =>   1
Atom  26C    basis set group =>   1
Atom  27S    basis set group =>   2
Atom  28C    basis set group =>   1
Atom  29C    basis set group =>   1
Atom  30C    basis set group =>   1
Atom  31C    basis set group =>   1
Atom  32S    basis set group =>   2
Atom  33C    basis set group =>   1
Atom  34O    basis set group =>   3
Atom  35O    basis set group =>   3
Atom  36C    basis set group =>   1
Atom  37C    basis set group =>   1
Atom  38C    basis set group =>   1
Atom  39C    basis set group =>   1
Atom  40C    basis set group =>   1
Atom  41S    basis set group =>   2
Atom  42C    basis set group =>   1
Atom  43C    basis set group =>   1
Atom  44C    basis set group =>   1
Atom  45C    basis set group =>   1
Atom  46S    basis set group =>   2
Atom  47C    basis set group =>   1
Atom  48O    basis set group =>   3
Atom  49O    basis set group =>   3
Atom  50C    basis set group =>   1
Atom  51C    basis set group =>   1
Atom  52Cl   basis set group =>   4
Atom  53Cl   basis set group =>   4
Atom  54C    basis set group =>   1
Atom  55S    basis set group =>   2
Atom  56C    basis set group =>   1
Atom  57C    basis set group =>   1
Atom  58C    basis set group =>   1
Atom  59H    basis set group =>   5
Atom  60H    basis set group =>   5
Atom  61H    basis set group =>   5
Atom  62H    basis set group =>   5
Atom  63H    basis set group =>   5
Atom  64H    basis set group =>   5
Atom  65H    basis set group =>   5
Atom  66H    basis set group =>   5
Atom  67H    basis set group =>   5
Atom  68H    basis set group =>   5
Atom  69H    basis set group =>   5
Atom  70H    basis set group =>   5
Atom  71H    basis set group =>   5
Atom  72H    basis set group =>   5
Atom  73H    basis set group =>   5
Atom  74H    basis set group =>   5
Atom  75H    basis set group =>   5
Atom  76H    basis set group =>   5
Atom  77H    basis set group =>   5
Atom  78H    basis set group =>   5
Atom  79H    basis set group =>   5
Atom  80H    basis set group =>   5
Atom  81H    basis set group =>   5
Atom  82H    basis set group =>   5
Atom  83H    basis set group =>   5
Atom  84H    basis set group =>   5
---------------------------------
AUXILIARY/J BASIS SET INFORMATION
---------------------------------
There are 5 groups of distinct atoms

 Group   1 Type C   : 12s5p4d2f1g contracted to 6s4p3d1f1g pattern {711111/2111/211/2/1}
 Group   2 Type S   : 14s5p5d2f1g contracted to 8s4p3d1f1g pattern {71111111/2111/311/2/1}
 Group   3 Type O   : 12s5p4d2f1g contracted to 6s4p3d1f1g pattern {711111/2111/211/2/1}
 Group   4 Type Cl  : 14s5p5d2f1g contracted to 8s4p3d1f1g pattern {71111111/2111/311/2/1}
 Group   5 Type H   : 5s2p1d contracted to 3s1p1d pattern {311/2/1}

Atom   0C    basis set group =>   1
Atom   1C    basis set group =>   1
Atom   2C    basis set group =>   1
Atom   3C    basis set group =>   1
Atom   4C    basis set group =>   1
Atom   5S    basis set group =>   2
Atom   6C    basis set group =>   1
Atom   7O    basis set group =>   3
Atom   8O    basis set group =>   3
Atom   9C    basis set group =>   1
Atom  10C    basis set group =>   1
Atom  11C    basis set group =>   1
Atom  12C    basis set group =>   1
Atom  13S    basis set group =>   2
Atom  14C    basis set group =>   1
Atom  15C    basis set group =>   1
Atom  16C    basis set group =>   1
Atom  17C    basis set group =>   1
Atom  18S    basis set group =>   2
Atom  19C    basis set group =>   1
Atom  20O    basis set group =>   3
Atom  21O    basis set group =>   3
Atom  22C    basis set group =>   1
Atom  23C    basis set group =>   1
Atom  24C    basis set group =>   1
Atom  25C    basis set group =>   1
Atom  26C    basis set group =>   1
Atom  27S    basis set group =>   2
Atom  28C    basis set group =>   1
Atom  29C    basis set group =>   1
Atom  30C    basis set group =>   1
Atom  31C    basis set group =>   1
Atom  32S    basis set group =>   2
Atom  33C    basis set group =>   1
Atom  34O    basis set group =>   3
Atom  35O    basis set group =>   3
Atom  36C    basis set group =>   1
Atom  37C    basis set group =>   1
Atom  38C    basis set group =>   1
Atom  39C    basis set group =>   1
Atom  40C    basis set group =>   1
Atom  41S    basis set group =>   2
Atom  42C    basis set group =>   1
Atom  43C    basis set group =>   1
Atom  44C    basis set group =>   1
Atom  45C    basis set group =>   1
Atom  46S    basis set group =>   2
Atom  47C    basis set group =>   1
Atom  48O    basis set group =>   3
Atom  49O    basis set group =>   3
Atom  50C    basis set group =>   1
Atom  51C    basis set group =>   1
Atom  52Cl   basis set group =>   4
Atom  53Cl   basis set group =>   4
Atom  54C    basis set group =>   1
Atom  55S    basis set group =>   2
Atom  56C    basis set group =>   1
Atom  57C    basis set group =>   1
Atom  58C    basis set group =>   1
Atom  59H    basis set group =>   5
Atom  60H    basis set group =>   5
Atom  61H    basis set group =>   5
Atom  62H    basis set group =>   5
Atom  63H    basis set group =>   5
Atom  64H    basis set group =>   5
Atom  65H    basis set group =>   5
Atom  66H    basis set group =>   5
Atom  67H    basis set group =>   5
Atom  68H    basis set group =>   5
Atom  69H    basis set group =>   5
Atom  70H    basis set group =>   5
Atom  71H    basis set group =>   5
Atom  72H    basis set group =>   5
Atom  73H    basis set group =>   5
Atom  74H    basis set group =>   5
Atom  75H    basis set group =>   5
Atom  76H    basis set group =>   5
Atom  77H    basis set group =>   5
Atom  78H    basis set group =>   5
Atom  79H    basis set group =>   5
Atom  80H    basis set group =>   5
Atom  81H    basis set group =>   5
Atom  82H    basis set group =>   5
Atom  83H    basis set group =>   5
Atom  84H    basis set group =>   5
------------------------------------------------------------------------------
                           ORCA GTO INTEGRAL CALCULATION
                           -- RI-GTO INTEGRALS CHOSEN --
------------------------------------------------------------------------------

                         BASIS SET STATISTICS AND STARTUP INFO

Gaussian basis set:
 # of primitive gaussian shells          ... 1406
 # of primitive gaussian functions       ... 3092
 # of contracted shells                  ...  773
 # of contracted basis functions         ... 2045
 Highest angular momentum                ...    3
 Maximum contraction depth               ...    7
Auxiliary gaussian basis set:
 # of primitive gaussian shells          ... 1654
 # of primitive gaussian functions       ... 4616
 # of contracted shells                  ... 1035
 # of contracted aux-basis functions     ... 3197
 Highest angular momentum                ...    4
 Maximum contraction depth               ...    7
Ratio of auxiliary to basis functions    ...  1.56
Integral package used                  ... LIBINT
 One Electron integrals                  ... done
 Ordering auxiliary basis shells         ... done
 Integral threshhold             Thresh  ...  2.500e-11
 Primitive cut-off               TCut    ...  2.500e-12
 Pre-screening matrix                    ... done
 Shell pair data                         ... 
 Ordering of the shell pairs             ... done (   0.021 sec) 89991 of 299151 pairs
 Determination of significant pairs      ... done (   0.000 sec)
 Creation of shell pair data             ... done (   0.012 sec)
 Storage of shell pair data              ... done (   0.017 sec)
 Shell pair data done in (   0.050 sec)
 Computing two index integrals           ... done
 Cholesky decomposition of the V-matrix  ... done


Timings:
 Total evaluation time                   ...   4.831 sec (  0.081 min)
 One electron matrix time                ...   1.287 sec (  0.021 min) = 26.6%
 Schwartz matrix evaluation time         ...   2.799 sec (  0.047 min) = 57.9%
 Two index repulsion integral time       ...   0.244 sec (  0.004 min) =  5.1%
 Cholesky decomposition of V             ...   0.433 sec (  0.007 min) =  9.0%
 Three index repulsion integral time     ...   0.000 sec (  0.000 min) =  0.0%

-------------------------------------------------------------------------------
                                 ORCA SCF
-------------------------------------------------------------------------------

------------
SCF SETTINGS
------------
Hamiltonian:
 Density Functional     Method          .... DFT(GTOs)
 Exchange Functional    Exchange        .... B88
   X-Alpha parameter    XAlpha          ....  0.666667
   Becke's b parameter  XBeta           ....  0.004200
 Correlation Functional Correlation     .... LYP
 LDA part of GGA corr.  LDAOpt          .... VWN-5
 Gradients option       PostSCFGGA      .... off
 Hybrid DFT is turned on
   Fraction HF Exchange ScalHFX         ....  0.200000
   Scaling of DF-GGA-X  ScalDFX         ....  0.720000
   Scaling of DF-GGA-C  ScalDFC         ....  0.810000
   Scaling of DF-LDA-C  ScalLDAC        ....  1.000000
   Perturbative correction              ....  0.000000
   Density functional embedding theory  .... OFF
   NL short-range parameter             ....  4.800000
 RI-approximation to the Coulomb term is turned on
   Number of auxiliary basis functions  .... 3197
   RIJ-COSX (HFX calculated with COS-X)).... on


General Settings:
 Integral files         IntName         .... PDCBT-Cl_tetra
 Hartree-Fock type      HFTyp           .... RHF
 Total Charge           Charge          ....    0
 Multiplicity           Mult            ....    1
 Number of Electrons    NEL             ....  498
 Basis Dimension        Dim             .... 2045
 Nuclear Repulsion      ENuc            ....   9419.9729771656 Eh

Convergence Acceleration:
 DIIS                   CNVDIIS         .... on
   Start iteration      DIISMaxIt       ....    12
   Startup error        DIISStart       ....  0.200000
   # of expansion vecs  DIISMaxEq       ....     5
   Bias factor          DIISBfac        ....   1.050
   Max. coefficient     DIISMaxC        ....  10.000
 Newton-Raphson         CNVNR           .... off
 SOSCF                  CNVSOSCF        .... on
   Start iteration      SOSCFMaxIt      ....   150
   Startup grad/error   SOSCFStart      ....  0.003300
 Level Shifting         CNVShift        .... on
   Level shift para.    LevelShift      ....    0.2500
   Turn off err/grad.   ShiftErr        ....    0.0010
 Zerner damping         CNVZerner       .... off
 Static damping         CNVDamp         .... on
   Fraction old density DampFac         ....    0.7000
   Max. Damping (<1)    DampMax         ....    0.9800
   Min. Damping (>=0)   DampMin         ....    0.0000
   Turn off err/grad.   DampErr         ....    0.1000
 Fernandez-Rico         CNVRico         .... off

SCF Procedure:
 Maximum # iterations   MaxIter         ....   125
 SCF integral mode      SCFMode         .... Direct
   Integral package                     .... LIBINT
 Reset frequency        DirectResetFreq ....    20
 Integral Threshold     Thresh          ....  2.500e-11 Eh
 Primitive CutOff       TCut            ....  2.500e-12 Eh

Convergence Tolerance:
 Convergence Check Mode ConvCheckMode   .... Total+1el-Energy
 Convergence forced     ConvForced      .... 1
 Energy Change          TolE            ....  1.000e-08 Eh
 1-El. energy change                    ....  1.000e-05 Eh
 Orbital Gradient       TolG            ....  1.000e-05
 Orbital Rotation angle TolX            ....  1.000e-05
 DIIS Error             TolErr          ....  5.000e-07


Diagonalization of the overlap matrix:
Smallest eigenvalue                        ... 4.357e-06
Time for diagonalization                   ...    2.405 sec
Threshold for overlap eigenvalues          ... 1.000e-08
Number of eigenvalues below threshold      ... 0
Time for construction of square roots      ...    0.673 sec
Total time needed                          ...    3.091 sec

-------------------
DFT GRID GENERATION
-------------------

General Integration Accuracy     IntAcc      ...  4.670
Radial Grid Type                 RadialGrid  ... Gauss-Chebyshev
Angular Grid (max. acc.)         AngularGrid ... Lebedev-302
Angular grid pruning method      GridPruning ... 3 (G Style)
Weight generation scheme         WeightScheme... Becke
Basis function cutoff            BFCut       ...    1.0000e-11
Integration weight cutoff        WCut        ...    1.0000e-14
Grids for H and He will be reduced by one unit

# of grid points (after initial pruning)     ... 460876 (   0.7 sec)
# of grid points (after weights+screening)   ... 403298 (  13.5 sec)
nearest neighbour list constructed           ...    0.0 sec
Grid point re-assignment to atoms done       ...    0.1 sec
Grid point division into batches done        ...    1.6 sec
Reduced shell lists constructed in   12.4 sec

Total number of grid points                  ...   403298
Total number of batches                      ...     6346
Average number of points per batch           ...       63
Average number of grid points per atom       ...     4745
Average number of shells per batch           ...   126.91 (16.42%)
Average number of basis functions per batch  ...   329.39 (16.11%)
Average number of large shells per batch     ...    80.43 (63.37%)
Average number of large basis fcns per batch ...   211.68 (64.26%)
Maximum spatial batch extension              ...  18.85, 21.55, 23.12 au
Average spatial batch extension              ...   2.07,  2.17,  2.43 au

Time for grid setup =   26.673 sec

------------------------------
INITIAL GUESS: MODEL POTENTIAL
------------------------------
Loading Hartree-Fock densities                     ... done
Calculating cut-offs                               ... done
Setting up the integral package                    ... done
Initializing the effective Hamiltonian             ... done
Starting the Coulomb interaction                   ... done (  16.6 sec)
Reading the grid                                   ... done
Mapping shells                                     ... done
Starting the XC term evaluation                    ... done (  17.5 sec)
  promolecular density results
     # of electrons  =    497.987573105
     EX              =   -539.853596878
     EC              =    -18.401349290
     EX+EC           =   -558.254946168
Transforming the Hamiltonian                       ... done (   0.7 sec)
Diagonalizing the Hamiltonian                      ... done (   2.2 sec)
Back transforming the eigenvectors                 ... done (   0.3 sec)
Now organizing SCF variables                       ... done
                      ------------------
                      INITIAL GUESS DONE (  64.4 sec)
                      ------------------
--------------------
COSX GRID GENERATION
--------------------

General Integration Accuracy     IntAcc      ...  3.340
Radial Grid Type                 RadialGrid  ... Gauss-Chebyshev
Angular Grid (max. acc.)         AngularGrid ... Lebedev-50
Angular grid pruning method      GridPruning ... 3 (G Style)
Weight generation scheme         WeightScheme... Becke
Basis function cutoff            BFCut       ...    1.0000e-11
Integration weight cutoff        WCut        ...    1.0000e-14
Grids for H and He will be reduced by one unit

# of grid points (after initial pruning)     ...  43800 (   0.1 sec)
# of grid points (after weights+screening)   ...  39886 (   1.3 sec)
nearest neighbour list constructed           ...    0.0 sec
Grid point re-assignment to atoms done       ...    0.0 sec
Grid point division into batches done        ...    0.0 sec
Reduced shell lists constructed in    1.5 sec

Total number of grid points                  ...    39886
Total number of batches                      ...      666
Average number of points per batch           ...       59
Average number of grid points per atom       ...      469
Average number of shells per batch           ...   154.95 (20.04%)
Average number of basis functions per batch  ...   406.66 (19.89%)
Average number of large shells per batch     ...    99.31 (64.09%)
Average number of large basis fcns per batch ...   265.68 (65.33%)
Maximum spatial batch extension              ...  16.92, 18.68, 35.81 au
Average spatial batch extension              ...   3.88,  4.19,  6.08 au

Overlap Fitting                  UseSFitting ... on
Constructing numerical overlap ... done (      1.2 sec)
Inverting numerical overlap    ... done (      0.2 sec)
Obtaining analytic overlap     ... done (      0.0 sec)
Final contraction and storage  ... done (      0.3 sec)


General Integration Accuracy     IntAcc      ...  3.670
Radial Grid Type                 RadialGrid  ... Gauss-Chebyshev
Angular Grid (max. acc.)         AngularGrid ... Lebedev-50
Angular grid pruning method      GridPruning ... 3 (G Style)
Weight generation scheme         WeightScheme... Becke
Basis function cutoff            BFCut       ...    1.0000e-11
Integration weight cutoff        WCut        ...    1.0000e-14
Grids for H and He will be reduced by one unit

# of grid points (after initial pruning)     ...  54774 (   0.1 sec)
# of grid points (after weights+screening)   ...  49694 (   1.6 sec)
nearest neighbour list constructed           ...    0.0 sec
Grid point re-assignment to atoms done       ...    0.0 sec
Grid point division into batches done        ...    0.0 sec
Reduced shell lists constructed in    1.7 sec

Total number of grid points                  ...    49694
Total number of batches                      ...      820
Average number of points per batch           ...       60
Average number of grid points per atom       ...      585
Average number of shells per batch           ...   151.45 (19.59%)
Average number of basis functions per batch  ...   396.93 (19.41%)
Average number of large shells per batch     ...    96.69 (63.84%)
Average number of large basis fcns per batch ...   257.95 (64.99%)
Maximum spatial batch extension              ...  19.17, 20.63, 33.72 au
Average spatial batch extension              ...   3.59,  3.93,  5.46 au

Overlap Fitting                  UseSFitting ... on
Constructing numerical overlap ... done (      1.4 sec)
Inverting numerical overlap    ... done (      0.2 sec)
Obtaining analytic overlap     ... done (      0.0 sec)
Final contraction and storage  ... done (      0.3 sec)


General Integration Accuracy     IntAcc      ...  4.010
Radial Grid Type                 RadialGrid  ... Gauss-Chebyshev
Angular Grid (max. acc.)         AngularGrid ... Lebedev-110
Angular grid pruning method      GridPruning ... 3 (G Style)
Weight generation scheme         WeightScheme... Becke
Basis function cutoff            BFCut       ...    1.0000e-11
Integration weight cutoff        WCut        ...    1.0000e-14
Grids for H and He will be reduced by one unit

# of grid points (after initial pruning)     ... 105300 (   0.1 sec)
# of grid points (after weights+screening)   ...  94589 (   3.0 sec)
nearest neighbour list constructed           ...    0.0 sec
Grid point re-assignment to atoms done       ...    0.0 sec
Grid point division into batches done        ...    0.1 sec
Reduced shell lists constructed in    3.4 sec

Total number of grid points                  ...    94589
Total number of batches                      ...     1522
Average number of points per batch           ...       62
Average number of grid points per atom       ...     1113
Average number of shells per batch           ...   143.69 (18.59%)
Average number of basis functions per batch  ...   375.88 (18.38%)
Average number of large shells per batch     ...    92.03 (64.05%)
Average number of large basis fcns per batch ...   244.89 (65.15%)
Maximum spatial batch extension              ...  19.37, 19.96, 26.67 au
Average spatial batch extension              ...   3.13,  3.33,  4.34 au

Overlap Fitting                  UseSFitting ... on
Constructing numerical overlap ... done (      2.5 sec)
Inverting numerical overlap    ... done (      0.2 sec)
Obtaining analytic overlap     ... done (      0.0 sec)
Final contraction and storage  ... done (      0.3 sec)

Time for X-Grid setup             =   19.581 sec
--------------
SCF ITERATIONS
--------------
ITER       Energy         Delta-E        Max-DP      RMS-DP      [F,P]     Damp
               ***  Starting incremental Fock matrix formation  ***
  0  -6283.2880480183   0.000000000000 0.25756138  0.00089611  0.3119292 0.7000
  1  -6284.1047234843  -0.816675465980 0.18831886  0.00068374  0.1191129 0.7000
                               ***Turning on DIIS***
  2  -6284.3918504603  -0.287126976060 0.20464240  0.00105320  0.0388830 0.0000
  3  -6284.8266961365  -0.434845676140 0.17730535  0.00049221  0.0560461 0.0000
  4  -6284.9533084925  -0.126612356014 0.03057025  0.00015283  0.0168890 0.0000
  5  -6284.9615136072  -0.008205114731 0.02108431  0.00006764  0.0145866 0.0000
                      *** Initiating the SOSCF procedure ***
                           *** Shutting down DIIS ***
                      *** Re-Reading the Fockian *** 
                      *** Removing any level shift *** 
ITER      Energy       Delta-E        Grad      Rot      Max-DP    RMS-DP
  6  -6284.96310888  -0.0015952744  0.000644  0.000644  0.006045  0.000024
               *** Restarting incremental Fock matrix formation ***
  7  -6284.96320100  -0.0000921234  0.000259  0.001960  0.009461  0.000074
  8  -6284.96318611   0.0000148905  0.000456  0.001494  0.002907  0.000018
  9  -6284.96322082  -0.0000347048  0.000101  0.000641  0.002942  0.000018
 10  -6284.96321830   0.0000025189  0.000130  0.000307  0.000328  0.000002
 11  -6284.96322310  -0.0000048011  0.000036  0.000163  0.000606  0.000004
 12  -6284.96322268   0.0000004191  0.000046  0.000099  0.000282  0.000002
 13  -6284.96322327  -0.0000005886  0.000007  0.000035  0.000227  0.000001
 14  -6284.96322329  -0.0000000190  0.000012  0.000025  0.000110  0.000000
                  ***Gradient check signals convergence***
              ***Rediagonalizing the Fockian in SOSCF/NRSCF***

               *****************************************************
               *                     SUCCESS                       *
               *           SCF CONVERGED AFTER  15 CYCLES          *
               *****************************************************

Setting up the final grid:

General Integration Accuracy     IntAcc      ...  5.010
Radial Grid Type                 RadialGrid  ... Gauss-Chebyshev
Angular Grid (max. acc.)         AngularGrid ... Lebedev-434
Angular grid pruning method      GridPruning ... 3 (G Style)
Weight generation scheme         WeightScheme... Becke
Basis function cutoff            BFCut       ...    1.0000e-11
Integration weight cutoff        WCut        ...    1.0000e-14
Grids for H and He will be reduced by one unit

# of grid points (after initial pruning)     ... 817034 (   1.3 sec)
# of grid points (after weights+screening)   ... 713302 (  24.1 sec)
nearest neighbour list constructed           ...    0.0 sec
Grid point re-assignment to atoms done       ...    0.1 sec
Grid point division into batches done        ...    4.9 sec
Reduced shell lists constructed in   21.5 sec

Total number of grid points                  ...   713302
Total number of batches                      ...    11189
Average number of points per batch           ...       63
Average number of grid points per atom       ...     8392
Average number of shells per batch           ...   122.32 (15.82%)
Average number of basis functions per batch  ...   316.53 (15.48%)
Average number of large shells per batch     ...    77.29 (63.19%)
Average number of large basis fcns per batch ...   202.83 (64.08%)
Maximum spatial batch extension              ...  19.69, 21.68, 26.37 au
Average spatial batch extension              ...   1.73,  1.80,  1.97 au

Final grid set up in   46.9 sec
Final integration                            ... done (  42.0 sec)
Change in XC energy                          ...    -0.000168918
Integrated number of electrons               ...   497.999968906
Previous integrated no of electrons          ...   497.999966098
Old exchange energy                            =   -108.708616063 Eh
New exchange energy                            =   -108.711578270 Eh
Exchange energy change after final integration =     -0.002962207 Eh
Total energy after final integration           =  -6284.966354435 Eh
Final COS-X integration done in                =  1050.028 sec

----------------
TOTAL SCF ENERGY
----------------

Total Energy       :        -6284.96635443 Eh         -171022.62913 eV

Components:
Nuclear Repulsion  :         9419.97297717 Eh          256330.49630 eV
Electronic Energy  :       -15704.93933160 Eh         -427353.12543 eV
One Electron Energy:       -27415.92890280 Eh         -746025.35264 eV
Two Electron Energy:        11710.98957120 Eh          318672.22722 eV

Virial components:
Potential Energy   :       -12555.75389372 Eh         -341659.43308 eV
Kinetic Energy     :         6270.78753929 Eh          170636.80395 eV
Virial Ratio       :            2.00226109


DFT components:
N(Alpha)           :      248.999984453120 electrons
N(Beta)            :      248.999984453120 electrons
N(Total)           :      497.999968906240 electrons
E(X)               :     -432.017421317542 Eh       
E(C)               :      -21.573703036156 Eh       
E(XC)              :     -453.591124353697 Eh       
DFET-embed. en.    :        0.000000000000 Eh       

---------------
SCF CONVERGENCE
---------------

  Last Energy change         ...   -2.0364e-08  Tolerance :   1.0000e-08
  Last MAX-Density change    ...    4.8850e-15  Tolerance :   1.0000e-07
  Last RMS-Density change    ...    1.5527e-17  Tolerance :   5.0000e-09
  Last Orbital Gradient      ...    1.3078e-06  Tolerance :   1.0000e-05
  Last Orbital Rotation      ...    5.7978e-06  Tolerance :   1.0000e-05

             **** THE GBW FILE WAS UPDATED (PDCBT-Cl_tetra.gbw) ****
             **** DENSITY FILE WAS UPDATED (PDCBT-Cl_tetra.scfp) ****
             **** ENERGY FILE WAS UPDATED (PDCBT-Cl_tetra.en.tmp) ****
             **** THE GBW FILE WAS UPDATED (PDCBT-Cl_tetra.gbw) ****
             **** DENSITY FILE WAS UPDATED (PDCBT-Cl_tetra.scfp) ****
----------------
ORBITAL ENERGIES
----------------

  NO   OCC          E(Eh)            E(eV) 
   0   2.0000    -101.542010     -2763.0986 
   1   2.0000    -101.536353     -2762.9446 
   2   2.0000     -88.898835     -2419.0603 
   3   2.0000     -88.898742     -2419.0577 
   4   2.0000     -88.897272     -2419.0178 
   5   2.0000     -88.896843     -2419.0061 
   6   2.0000     -88.895147     -2418.9599 
   7   2.0000     -88.894204     -2418.9343 
   8   2.0000     -88.889246     -2418.7994 
   9   2.0000     -88.887079     -2418.7404 
  10   2.0000     -19.186581      -522.0934 
  11   2.0000     -19.184409      -522.0343 
  12   2.0000     -19.180361      -521.9242 
  13   2.0000     -19.178207      -521.8656 
  14   2.0000     -19.119968      -520.2808 
  15   2.0000     -19.118208      -520.2329 
  16   2.0000     -19.114599      -520.1347 
  17   2.0000     -19.113276      -520.0987 
  18   2.0000     -10.311430      -280.5883 
  19   2.0000     -10.309634      -280.5394 
  20   2.0000     -10.306246      -280.4472 
  21   2.0000     -10.304640      -280.4035 
  22   2.0000     -10.244229      -278.7596 
  23   2.0000     -10.239589      -278.6334 
  24   2.0000     -10.238789      -278.6116 
  25   2.0000     -10.237221      -278.5690 
  26   2.0000     -10.235339      -278.5177 
  27   2.0000     -10.234149      -278.4853 
  28   2.0000     -10.232250      -278.4337 
  29   2.0000     -10.231685      -278.4183 
  30   2.0000     -10.229566      -278.3607 
  31   2.0000     -10.228783      -278.3393 
  32   2.0000     -10.227454      -278.3032 
  33   2.0000     -10.227432      -278.3026 
  34   2.0000     -10.226218      -278.2695 
  35   2.0000     -10.226194      -278.2689 
  36   2.0000     -10.224252      -278.2160 
  37   2.0000     -10.223475      -278.1949 
  38   2.0000     -10.222740      -278.1749 
  39   2.0000     -10.221966      -278.1538 
  40   2.0000     -10.219841      -278.0960 
  41   2.0000     -10.219683      -278.0917 
  42   2.0000     -10.216547      -278.0064 
  43   2.0000     -10.205110      -277.6952 
  44   2.0000     -10.203018      -277.6382 
  45   2.0000     -10.200665      -277.5742 
  46   2.0000     -10.198267      -277.5089 
  47   2.0000     -10.197505      -277.4882 
  48   2.0000     -10.195690      -277.4388 
  49   2.0000     -10.194023      -277.3935 
  50   2.0000     -10.190486      -277.2972 
  51   2.0000     -10.189553      -277.2718 
  52   2.0000     -10.188656      -277.2474 
  53   2.0000     -10.188458      -277.2420 
  54   2.0000     -10.188164      -277.2340 
  55   2.0000     -10.186324      -277.1840 
  56   2.0000     -10.185714      -277.1674 
  57   2.0000     -10.181254      -277.0460 
  58   2.0000     -10.179823      -277.0071 
  59   2.0000      -9.474818      -257.8229 
  60   2.0000      -9.469046      -257.6658 
  61   2.0000      -7.975756      -217.0314 
  62   2.0000      -7.975451      -217.0231 
  63   2.0000      -7.973768      -216.9773 
  64   2.0000      -7.973515      -216.9704 
  65   2.0000      -7.972104      -216.9320 
  66   2.0000      -7.970467      -216.8874 
  67   2.0000      -7.965347      -216.7481 
  68   2.0000      -7.963281      -216.6919 
  69   2.0000      -7.236269      -196.9089 
  70   2.0000      -7.230543      -196.7531 
  71   2.0000      -7.227954      -196.6826 
  72   2.0000      -7.227665      -196.6748 
  73   2.0000      -7.222132      -196.5242 
  74   2.0000      -7.221914      -196.5183 
  75   2.0000      -5.938292      -161.5891 
  76   2.0000      -5.937729      -161.5738 
  77   2.0000      -5.936312      -161.5353 
  78   2.0000      -5.936262      -161.5339 
  79   2.0000      -5.934647      -161.4900 
  80   2.0000      -5.934394      -161.4831 
  81   2.0000      -5.933972      -161.4716 
  82   2.0000      -5.933199      -161.4505 
  83   2.0000      -5.932421      -161.4294 
  84   2.0000      -5.932396      -161.4287 
  85   2.0000      -5.932258      -161.4250 
  86   2.0000      -5.932232      -161.4242 
  87   2.0000      -5.930754      -161.3840 
  88   2.0000      -5.930242      -161.3701 
  89   2.0000      -5.929715      -161.3557 
  90   2.0000      -5.929170      -161.3409 
  91   2.0000      -5.928577      -161.3248 
  92   2.0000      -5.927999      -161.3091 
  93   2.0000      -5.926696      -161.2736 
  94   2.0000      -5.925786      -161.2488 
  95   2.0000      -5.923817      -161.1953 
  96   2.0000      -5.921790      -161.1401 
  97   2.0000      -5.921598      -161.1349 
  98   2.0000      -5.920260      -161.0985 
  99   2.0000      -1.126695       -30.6589 
 100   2.0000      -1.124693       -30.6044 
 101   2.0000      -1.120971       -30.5032 
 102   2.0000      -1.117474       -30.4080 
 103   2.0000      -1.033273       -28.1168 
 104   2.0000      -1.031361       -28.0647 
 105   2.0000      -1.027740       -27.9662 
 106   2.0000      -1.025246       -27.8984 
 107   2.0000      -0.932142       -25.3649 
 108   2.0000      -0.927987       -25.2518 
 109   2.0000      -0.918379       -24.9904 
 110   2.0000      -0.916015       -24.9260 
 111   2.0000      -0.904506       -24.6129 
 112   2.0000      -0.898861       -24.4592 
 113   2.0000      -0.889057       -24.1925 
 114   2.0000      -0.885856       -24.1054 
 115   2.0000      -0.866761       -23.5858 
 116   2.0000      -0.861856       -23.4523 
 117   2.0000      -0.816958       -22.2306 
 118   2.0000      -0.810120       -22.0445 
 119   2.0000      -0.797446       -21.6996 
 120   2.0000      -0.790329       -21.5059 
 121   2.0000      -0.781934       -21.2775 
 122   2.0000      -0.779596       -21.2139 
 123   2.0000      -0.776128       -21.1195 
 124   2.0000      -0.771138       -20.9837 
 125   2.0000      -0.756553       -20.5869 
 126   2.0000      -0.753050       -20.4915 
 127   2.0000      -0.748982       -20.3808 
 128   2.0000      -0.745764       -20.2933 
 129   2.0000      -0.739655       -20.1270 
 130   2.0000      -0.736634       -20.0448 
 131   2.0000      -0.734164       -19.9776 
 132   2.0000      -0.732827       -19.9412 
 133   2.0000      -0.729812       -19.8592 
 134   2.0000      -0.721554       -19.6345 
 135   2.0000      -0.706059       -19.2128 
 136   2.0000      -0.693605       -18.8740 
 137   2.0000      -0.686876       -18.6908 
 138   2.0000      -0.648429       -17.6447 
 139   2.0000      -0.640750       -17.4357 
 140   2.0000      -0.635036       -17.2802 
 141   2.0000      -0.622657       -16.9434 
 142   2.0000      -0.620150       -16.8751 
 143   2.0000      -0.606845       -16.5131 
 144   2.0000      -0.605654       -16.4807 
 145   2.0000      -0.599531       -16.3141 
 146   2.0000      -0.587550       -15.9880 
 147   2.0000      -0.584164       -15.8959 
 148   2.0000      -0.573791       -15.6136 
 149   2.0000      -0.570654       -15.5283 
 150   2.0000      -0.563455       -15.3324 
 151   2.0000      -0.561066       -15.2674 
 152   2.0000      -0.557673       -15.1751 
 153   2.0000      -0.555249       -15.1091 
 154   2.0000      -0.554825       -15.0975 
 155   2.0000      -0.544537       -14.8176 
 156   2.0000      -0.543673       -14.7941 
 157   2.0000      -0.539085       -14.6692 
 158   2.0000      -0.536722       -14.6050 
 159   2.0000      -0.533860       -14.5271 
 160   2.0000      -0.520747       -14.1703 
 161   2.0000      -0.508100       -13.8261 
 162   2.0000      -0.502124       -13.6635 
 163   2.0000      -0.500610       -13.6223 
 164   2.0000      -0.500382       -13.6161 
 165   2.0000      -0.496398       -13.5077 
 166   2.0000      -0.496129       -13.5004 
 167   2.0000      -0.491920       -13.3858 
 168   2.0000      -0.489703       -13.3255 
 169   2.0000      -0.487403       -13.2629 
 170   2.0000      -0.481701       -13.1077 
 171   2.0000      -0.478331       -13.0161 
 172   2.0000      -0.474351       -12.9078 
 173   2.0000      -0.471550       -12.8315 
 174   2.0000      -0.463722       -12.6185 
 175   2.0000      -0.460499       -12.5308 
 176   2.0000      -0.456183       -12.4134 
 177   2.0000      -0.452641       -12.3170 
 178   2.0000      -0.447266       -12.1707 
 179   2.0000      -0.443356       -12.0643 
 180   2.0000      -0.441523       -12.0144 
 181   2.0000      -0.439503       -11.9595 
 182   2.0000      -0.438613       -11.9353 
 183   2.0000      -0.435972       -11.8634 
 184   2.0000      -0.433556       -11.7977 
 185   2.0000      -0.431469       -11.7409 
 186   2.0000      -0.427627       -11.6363 
 187   2.0000      -0.426563       -11.6074 
 188   2.0000      -0.425216       -11.5707 
 189   2.0000      -0.423234       -11.5168 
 190   2.0000      -0.422429       -11.4949 
 191   2.0000      -0.418458       -11.3868 
 192   2.0000      -0.416726       -11.3397 
 193   2.0000      -0.411873       -11.2076 
 194   2.0000      -0.411596       -11.2001 
 195   2.0000      -0.409871       -11.1532 
 196   2.0000      -0.407796       -11.0967 
 197   2.0000      -0.406995       -11.0749 
 198   2.0000      -0.405155       -11.0248 
 199   2.0000      -0.402709       -10.9583 
 200   2.0000      -0.399764       -10.8781 
 201   2.0000      -0.398762       -10.8509 
 202   2.0000      -0.394671       -10.7395 
 203   2.0000      -0.394367       -10.7313 
 204   2.0000      -0.391430       -10.6514 
 205   2.0000      -0.390492       -10.6258 
 206   2.0000      -0.385659       -10.4943 
 207   2.0000      -0.383419       -10.4334 
 208   2.0000      -0.383084       -10.4243 
 209   2.0000      -0.380805       -10.3622 
 210   2.0000      -0.376288       -10.2393 
 211   2.0000      -0.373482       -10.1630 
 212   2.0000      -0.369715       -10.0605 
 213   2.0000      -0.364925        -9.9301 
 214   2.0000      -0.362045        -9.8518 
 215   2.0000      -0.358977        -9.7683 
 216   2.0000      -0.358463        -9.7543 
 217   2.0000      -0.356115        -9.6904 
 218   2.0000      -0.355569        -9.6755 
 219   2.0000      -0.353464        -9.6183 
 220   2.0000      -0.351891        -9.5754 
 221   2.0000      -0.349451        -9.5090 
 222   2.0000      -0.348726        -9.4893 
 223   2.0000      -0.327240        -8.9046 
 224   2.0000      -0.323774        -8.8103 
 225   2.0000      -0.318585        -8.6691 
 226   2.0000      -0.318223        -8.6593 
 227   2.0000      -0.315478        -8.5846 
 228   2.0000      -0.310389        -8.4461 
 229   2.0000      -0.308412        -8.3923 
 230   2.0000      -0.304688        -8.2910 
 231   2.0000      -0.295297        -8.0354 
 232   2.0000      -0.294227        -8.0063 
 233   2.0000      -0.289956        -7.8901 
 234   2.0000      -0.288451        -7.8492 
 235   2.0000      -0.287358        -7.8194 
 236   2.0000      -0.277199        -7.5430 
 237   2.0000      -0.273911        -7.4535 
 238   2.0000      -0.272630        -7.4186 
 239   2.0000      -0.269434        -7.3317 
 240   2.0000      -0.266143        -7.2421 
 241   2.0000      -0.264463        -7.1964 
 242   2.0000      -0.262080        -7.1316 
 243   2.0000      -0.261767        -7.1231 
 244   2.0000      -0.257941        -7.0189 
 245   2.0000      -0.244717        -6.6591 
 246   2.0000      -0.222045        -6.0421 
 247   2.0000      -0.202208        -5.5024 
 248   2.0000      -0.186036        -5.0623 
 249   0.0000      -0.102799        -2.7973 
 250   0.0000      -0.089827        -2.4443 
 251   0.0000      -0.072627        -1.9763 
 252   0.0000      -0.056577        -1.5395 
 253   0.0000      -0.041844        -1.1386 
 254   0.0000      -0.033828        -0.9205 
 255   0.0000      -0.029255        -0.7961 
 256   0.0000      -0.023038        -0.6269 
 257   0.0000      -0.004003        -0.1089 
 258   0.0000      -0.001629        -0.0443 
 259   0.0000      -0.000433        -0.0118 
 260   0.0000       0.002859         0.0778 
 261   0.0000       0.005961         0.1622 
 262   0.0000       0.007479         0.2035 
 263   0.0000       0.010828         0.2946 
 264   0.0000       0.011486         0.3125 
 265   0.0000       0.019085         0.5193 
 266   0.0000       0.021316         0.5800 
 267   0.0000       0.027540         0.7494 
 268   0.0000       0.028055         0.7634 
 269   0.0000       0.030627         0.8334 
 270   0.0000       0.031249         0.8503 
 271   0.0000       0.035334         0.9615 
 272   0.0000       0.040880         1.1124 
 273   0.0000       0.042120         1.1461 
 274   0.0000       0.045948         1.2503 
 275   0.0000       0.048056         1.3077 
 276   0.0000       0.050727         1.3803 
 277   0.0000       0.053122         1.4455 
 278   0.0000       0.054859         1.4928 
 279   0.0000       0.058359         1.5880 
 280   0.0000       0.059720         1.6251 
 281   0.0000       0.061632         1.6771 
 282   0.0000       0.063251         1.7212 
 283   0.0000       0.064923         1.7666 
 284   0.0000       0.065667         1.7869 
 285   0.0000       0.069679         1.8961 
 286   0.0000       0.070683         1.9234 
 287   0.0000       0.073900         2.0109 
 288   0.0000       0.075321         2.0496 
 289   0.0000       0.075744         2.0611 
 290   0.0000       0.076713         2.0875 
 291   0.0000       0.078510         2.1364 
 292   0.0000       0.079494         2.1631 
 293   0.0000       0.081802         2.2259 
 294   0.0000       0.082393         2.2420 
 295   0.0000       0.083298         2.2667 
 296   0.0000       0.085013         2.3133 
 297   0.0000       0.087088         2.3698 
 298   0.0000       0.088538         2.4092 
 299   0.0000       0.088979         2.4212 
 300   0.0000       0.093950         2.5565 
 301   0.0000       0.097323         2.6483 
 302   0.0000       0.098834         2.6894 
 303   0.0000       0.101583         2.7642 
 304   0.0000       0.106123         2.8878 
 305   0.0000       0.107811         2.9337 
 306   0.0000       0.110594         3.0094 
 307   0.0000       0.110911         3.0180 
 308   0.0000       0.113912         3.0997 
 309   0.0000       0.114091         3.1046 
 310   0.0000       0.117716         3.2032 
 311   0.0000       0.118703         3.2301 
 312   0.0000       0.119637         3.2555 
 313   0.0000       0.119924         3.2633 
 314   0.0000       0.122605         3.3362 
 315   0.0000       0.123792         3.3686 
 316   0.0000       0.126231         3.4349 
 317   0.0000       0.129128         3.5137 
 318   0.0000       0.130317         3.5461 
 319   0.0000       0.131132         3.5683 
 320   0.0000       0.136429         3.7124 
 321   0.0000       0.140611         3.8262 
 322   0.0000       0.146686         3.9915 
 323   0.0000       0.153471         4.1761 
 324   0.0000       0.159004         4.3267 
 325   0.0000       0.160120         4.3571 
 326   0.0000       0.161866         4.4046 
 327   0.0000       0.169006         4.5989 
 328   0.0000       0.169506         4.6125 
 329   0.0000       0.172446         4.6925 
 330   0.0000       0.173734         4.7276 
 331   0.0000       0.174836         4.7575 
 332   0.0000       0.177867         4.8400 
 333   0.0000       0.180055         4.8995 
 334   0.0000       0.183570         4.9952 
 335   0.0000       0.185381         5.0445 
 336   0.0000       0.187674         5.1069 
 337   0.0000       0.189886         5.1671 
 338   0.0000       0.193173         5.2565 
 339   0.0000       0.194717         5.2985 
 340   0.0000       0.196137         5.3371 
 341   0.0000       0.197138         5.3644 
 342   0.0000       0.198026         5.3886 
 343   0.0000       0.200082         5.4445 
 344   0.0000       0.202465         5.5094 
 345   0.0000       0.203028         5.5247 
 346   0.0000       0.205376         5.5886 
 347   0.0000       0.206348         5.6150 
 348   0.0000       0.206837         5.6283 
 349   0.0000       0.207518         5.6469 
 350   0.0000       0.210337         5.7236 
 351   0.0000       0.210737         5.7344 
 352   0.0000       0.212575         5.7845 
 353   0.0000       0.214325         5.8321 
 354   0.0000       0.217056         5.9064 
 355   0.0000       0.217805         5.9268 
 356   0.0000       0.218921         5.9571 
 357   0.0000       0.220208         5.9922 
 358   0.0000       0.222018         6.0414 
 359   0.0000       0.224702         6.1144 
 360   0.0000       0.225941         6.1482 
 361   0.0000       0.226524         6.1640 
 362   0.0000       0.226767         6.1706 
 363   0.0000       0.228055         6.2057 
 364   0.0000       0.229873         6.2552 
 365   0.0000       0.232090         6.3155 
 366   0.0000       0.236100         6.4246 
 367   0.0000       0.238311         6.4848 
 368   0.0000       0.239001         6.5036 
 369   0.0000       0.239372         6.5137 
 370   0.0000       0.240938         6.5562 
 371   0.0000       0.243252         6.6192 
 372   0.0000       0.243662         6.6304 
 373   0.0000       0.246012         6.6943 
 374   0.0000       0.246519         6.7081 
 375   0.0000       0.248767         6.7693 
 376   0.0000       0.249036         6.7766 
 377   0.0000       0.251200         6.8355 
 378   0.0000       0.252922         6.8824 
 379   0.0000       0.254983         6.9384 
 380   0.0000       0.256196         6.9715 
 381   0.0000       0.259852         7.0709 
 382   0.0000       0.262215         7.1352 
 383   0.0000       0.262673         7.1477 
 384   0.0000       0.264454         7.1962 
 385   0.0000       0.268732         7.3126 
 386   0.0000       0.269722         7.3395 
 387   0.0000       0.272146         7.4055 
 388   0.0000       0.276176         7.5151 
 389   0.0000       0.277120         7.5408 
 390   0.0000       0.278820         7.5871 
 391   0.0000       0.279830         7.6146 
 392   0.0000       0.281395         7.6572 
 393   0.0000       0.282322         7.6824 
 394   0.0000       0.283914         7.7257 
 395   0.0000       0.286283         7.7902 
 396   0.0000       0.288383         7.8473 
 397   0.0000       0.290367         7.9013 
 398   0.0000       0.292161         7.9501 
 399   0.0000       0.294280         8.0078 
 400   0.0000       0.294513         8.0141 
 401   0.0000       0.296802         8.0764 
 402   0.0000       0.299250         8.1430 
 403   0.0000       0.300958         8.1895 
 404   0.0000       0.302465         8.2305 
 405   0.0000       0.304726         8.2920 
 406   0.0000       0.306343         8.3360 
 407   0.0000       0.309017         8.4088 
 408   0.0000       0.309803         8.4302 
 409   0.0000       0.311732         8.4827 
 410   0.0000       0.312409         8.5011 
 411   0.0000       0.312964         8.5162 
 412   0.0000       0.314307         8.5527 
 413   0.0000       0.316410         8.6100 
 414   0.0000       0.317217         8.6319 
 415   0.0000       0.319021         8.6810 
 416   0.0000       0.322160         8.7664 
 417   0.0000       0.323807         8.8112 
 418   0.0000       0.324015         8.8169 
 419   0.0000       0.325137         8.8474 
 420   0.0000       0.328036         8.9263 
 421   0.0000       0.329703         8.9717 
 422   0.0000       0.331342         9.0163 
 423   0.0000       0.333228         9.0676 
 424   0.0000       0.335464         9.1284 
 425   0.0000       0.335640         9.1332 
[...]
   247a -> 256a  :     0.532152 (c= -0.72948727)

STATE 44:  E=   0.168586 au      4.587 eV    37000.3 cm**-1
   231a -> 249a  :     0.091756 (c=  0.30291300)
   231a -> 250a  :     0.012469 (c= -0.11166434)
   232a -> 249a  :     0.042749 (c= -0.20675711)
   234a -> 249a  :     0.012271 (c=  0.11077404)
   236a -> 249a  :     0.065466 (c=  0.25586310)
   237a -> 250a  :     0.081641 (c=  0.28572971)
   238a -> 249a  :     0.010276 (c=  0.10136985)
   238a -> 250a  :     0.057927 (c= -0.24067972)
   239a -> 249a  :     0.020798 (c=  0.14421601)
   239a -> 250a  :     0.339144 (c=  0.58236045)
   239a -> 251a  :     0.015041 (c= -0.12264140)
   240a -> 250a  :     0.051782 (c= -0.22755654)
   241a -> 250a  :     0.021437 (c= -0.14641323)
   246a -> 253a  :     0.078014 (c= -0.27931069)
   247a -> 254a  :     0.010625 (c= -0.10307719)

STATE 45:  E=   0.169550 au      4.614 eV    37212.0 cm**-1
   231a -> 249a  :     0.077646 (c= -0.27865117)
   231a -> 250a  :     0.021006 (c=  0.14493471)
   232a -> 249a  :     0.065927 (c=  0.25676220)
   233a -> 249a  :     0.035221 (c= -0.18767246)
   236a -> 249a  :     0.103330 (c= -0.32145033)
   236a -> 250a  :     0.023033 (c= -0.15176567)
   237a -> 250a  :     0.090706 (c=  0.30117498)
   238a -> 250a  :     0.122844 (c= -0.35049148)
   246a -> 253a  :     0.195046 (c= -0.44164008)
   247a -> 255a  :     0.015146 (c= -0.12307046)
   247a -> 256a  :     0.109104 (c= -0.33030877)
   248a -> 261a  :     0.016040 (c=  0.12664733)

STATE 46:  E=   0.170466 au      4.639 eV    37412.9 cm**-1
   231a -> 249a  :     0.029078 (c= -0.17052309)
   232a -> 249a  :     0.012027 (c= -0.10966692)
   232a -> 250a  :     0.021498 (c= -0.14662360)
   233a -> 249a  :     0.011957 (c= -0.10934982)
   233a -> 250a  :     0.010574 (c= -0.10282970)
   237a -> 249a  :     0.015526 (c= -0.12460531)
   237a -> 250a  :     0.110178 (c=  0.33193109)
   238a -> 250a  :     0.083299 (c= -0.28861485)
   239a -> 250a  :     0.014518 (c=  0.12049187)
   241a -> 251a  :     0.016242 (c= -0.12744480)
   246a -> 253a  :     0.455076 (c=  0.67459339)
   246a -> 254a  :     0.032385 (c=  0.17995854)
   248a -> 261a  :     0.031056 (c=  0.17622770)

STATE 47:  E=   0.170629 au      4.643 eV    37448.8 cm**-1
   239a -> 250a  :     0.010559 (c=  0.10275830)
   247a -> 259a  :     0.014166 (c=  0.11902183)
   247a -> 260a  :     0.019118 (c= -0.13826695)
   247a -> 262a  :     0.086111 (c= -0.29344636)
   248a -> 257a  :     0.024525 (c=  0.15660528)
   248a -> 259a  :     0.011655 (c=  0.10795639)
   248a -> 260a  :     0.010881 (c= -0.10431091)
   248a -> 262a  :     0.706298 (c= -0.84041512)

STATE 48:  E=   0.172263 au      4.688 eV    37807.3 cm**-1
   232a -> 249a  :     0.013181 (c=  0.11481064)
   235a -> 249a  :     0.706693 (c=  0.84065034)
   235a -> 250a  :     0.052818 (c= -0.22982092)
   235a -> 251a  :     0.015342 (c=  0.12386273)
   238a -> 250a  :     0.019704 (c=  0.14037183)
   239a -> 250a  :     0.078067 (c=  0.27940533)
   243a -> 251a  :     0.010771 (c= -0.10378294)

STATE 49:  E=   0.172537 au      4.695 eV    37867.6 cm**-1
   231a -> 249a  :     0.045916 (c=  0.21427948)
   231a -> 250a  :     0.015846 (c= -0.12588114)
   232a -> 249a  :     0.111097 (c= -0.33331186)
   233a -> 250a  :     0.036823 (c= -0.19189366)
   235a -> 249a  :     0.184993 (c=  0.43010790)
   235a -> 250a  :     0.012881 (c= -0.11349653)
   236a -> 249a  :     0.038448 (c=  0.19608223)
   237a -> 250a  :     0.027934 (c=  0.16713601)
   238a -> 250a  :     0.046412 (c= -0.21543347)
   239a -> 250a  :     0.231876 (c= -0.48153549)
   240a -> 250a  :     0.021332 (c=  0.14605529)
   240a -> 251a  :     0.017541 (c= -0.13244306)
   243a -> 251a  :     0.035732 (c=  0.18902817)
   246a -> 253a  :     0.024574 (c= -0.15676140)
   247a -> 255a  :     0.020690 (c=  0.14384048)

STATE 50:  E=   0.173086 au      4.710 eV    37987.9 cm**-1
   247a -> 260a  :     0.018552 (c=  0.13620553)
   247a -> 261a  :     0.052874 (c=  0.22994238)
   247a -> 262a  :     0.012216 (c= -0.11052437)
   247a -> 263a  :     0.159191 (c=  0.39898753)
   248a -> 261a  :     0.146238 (c= -0.38241052)
   248a -> 263a  :     0.519023 (c= -0.72043248)


-----------------------------
TD-DFT/TDA-EXCITATION SPECTRA
-----------------------------

Center of mass = ( 27.3618, -7.8313, -0.0993)
Calculating the Dipole integrals                  ... done
Transforming integrals                            ... done
Calculating the Linear Momentum integrals         ... done
Transforming integrals                            ... done
Calculating angular momentum integrals            ... done
Transforming integrals                            ... done

-----------------------------------------------------------------------------
         ABSORPTION SPECTRUM VIA TRANSITION ELECTRIC DIPOLE MOMENTS
-----------------------------------------------------------------------------
State   Energy    Wavelength  fosc         T2        TX        TY        TZ  
        (cm-1)      (nm)                 (au**2)    (au)      (au)      (au) 
-----------------------------------------------------------------------------
   1   16543.1    604.5   2.793604070  55.59328  -7.19262   1.96416  -0.04017
   2   19055.7    524.8   0.089846676   1.55222  -1.18247   0.38799  -0.05862
   3   21460.1    466.0   0.118591241   1.81927   1.32851  -0.10495  -0.20810
   4   22368.6    447.1   0.056939721   0.83802  -0.85624   0.31308  -0.08276
   5   23153.7    431.9   0.348155659   4.95026  -2.14742   0.55255  -0.18311
   6   25629.3    390.2   0.065887467   0.84633  -0.88150   0.17500  -0.19665
   7   26161.9    382.2   0.008351140   0.10509  -0.25551   0.19563  -0.03918
   8   26433.0    378.3   0.001171198   0.01459   0.08349  -0.02081   0.08475
   9   27140.9    368.4   0.003566979   0.04327   0.09627  -0.18431  -0.00539
  10   28461.3    351.4   0.001201932   0.01390  -0.07884   0.03327  -0.08112
  11   29905.1    334.4   0.038091238   0.41933  -0.64106   0.06666  -0.06265
  12   30153.2    331.6   0.021406413   0.23372  -0.48087  -0.02364  -0.04387
  13   30429.1    328.6   0.049080039   0.53100   0.72867  -0.00585  -0.00096
  14   31197.2    320.5   0.111088607   1.17227  -0.73870   0.78706  -0.08440
  15   31411.9    318.4   0.021683000   0.22725   0.47467  -0.04148   0.01486
  16   31618.3    316.3   0.059291246   0.61735   0.60073  -0.50097   0.07416
  17   31730.5    315.2   0.022686472   0.23538   0.35564  -0.32701   0.04432
  18   31858.6    313.9   0.052743584   0.54503   0.70905  -0.20458  -0.02043
  19   32289.1    309.7   0.056792224   0.57904   0.63539  -0.41870   0.00416
  20   32815.7    304.7   0.007107959   0.07131   0.25141  -0.08055  -0.04018
  21   32845.1    304.5   0.005834393   0.05848   0.09302   0.22279   0.01375
  22   33063.7    302.4   0.004030666   0.04013   0.17077  -0.02792   0.10096
  23   33402.3    299.4   0.022124375   0.21806   0.30781  -0.34746   0.05080
  24   33724.6    296.5   0.023063539   0.22514   0.21717   0.42169   0.01224
  25   34113.6    293.1   0.016161562   0.15597  -0.39211  -0.04048   0.02407
  26   34197.3    292.4   0.042642978   0.41052  -0.43589   0.46447  -0.06914
  27   34551.6    289.4   0.016313080   0.15543   0.23193   0.31868   0.00907
  28   34650.7    288.6   0.019492518   0.18520  -0.07490   0.42259   0.03167
  29   34821.2    287.2   0.018390946   0.17387  -0.41067   0.06982  -0.01873
  30   35013.2    285.6   0.011369445   0.10690   0.13614  -0.29340   0.04779
  31   35105.4    284.9   0.006319879   0.05927  -0.08504  -0.22705  -0.02198
  32   35256.1    283.6   0.010455216   0.09763   0.22675   0.21496  -0.00228
  33   35273.0    283.5   0.011555266   0.10785   0.26342  -0.19603  -0.00567
  34   35337.0    283.0   0.007201657   0.06709  -0.25110   0.05916   0.02323
  35   35462.9    282.0   0.006463881   0.06001   0.18436  -0.15750  -0.03480
  36   35564.1    281.2   0.045041220   0.41694   0.43375  -0.47684   0.03773
  37   35789.3    279.4   0.022431234   0.20634   0.17484  -0.41821   0.02944
  38   35925.0    278.4   0.009179438   0.08412  -0.01309   0.28884  -0.02285
  39   36152.0    276.6   0.026037352   0.23710  -0.33389   0.35243  -0.03768
  40   36261.2    275.8   0.022414077   0.20350  -0.03992  -0.44723  -0.04345
  41   36385.7    274.8   0.001462479   0.01323  -0.08394  -0.07703  -0.01590
  42   36619.4    273.1   0.011623161   0.10449   0.12154  -0.29921   0.01394
  43   36720.1    272.3   0.004305590   0.03860  -0.11134   0.16163   0.00887
  44   37000.3    270.3   0.002832755   0.02520   0.13889  -0.07666   0.00612
  45   37212.0    268.7   0.008641497   0.07645   0.13266   0.24214   0.01479
  46   37412.9    267.3   0.040231686   0.35402  -0.41176   0.42526  -0.06023
  47   37448.8    267.0   0.001235915   0.01086   0.06764  -0.06146  -0.05012
  48   37807.3    264.5   0.016615676   0.14468  -0.15560   0.34708  -0.00251
  49   37867.6    264.1   0.061706298   0.53646   0.30614  -0.66436   0.03702
  50   37987.9    263.2   0.001194267   0.01035  -0.03311  -0.08572  -0.04365

-----------------------------------------------------------------------------
         ABSORPTION SPECTRUM VIA TRANSITION VELOCITY DIPOLE MOMENTS
-----------------------------------------------------------------------------
State   Energy    Wavelength   fosc        P2         PX        PY        PZ  
        (cm-1)      (nm)                 (au**2)     (au)      (au)      (au) 
-----------------------------------------------------------------------------
   1   16543.1    604.5   0.957026080   0.10821   0.30937  -0.11179  -0.00021
   2   19055.7    524.8   0.031696003   0.00413   0.05823  -0.02702   0.00278
   3   21460.1    466.0   0.062943338   0.00923  -0.09398   0.01702   0.01050
   4   22368.6    447.1   0.020171140   0.00308   0.04939  -0.02526   0.00248
   5   23153.7    431.9   0.100070942   0.01584   0.11996  -0.03745   0.00658
   6   25629.3    390.2   0.002341358   0.00041   0.01883  -0.00538   0.00517
   7   26161.9    382.2   0.001569340   0.00028   0.01630  -0.00349   0.00168
   8   26433.0    378.3   0.000227312   0.00004   0.00601  -0.00221   0.00007
   9   27140.9    368.4   0.008974944   0.00166  -0.01833   0.03634   0.00292
  10   28461.3    351.4   0.005918567   0.00115  -0.02573  -0.02171   0.00422
  11   29905.1    334.4   0.002118123   0.00043   0.01750   0.01124   0.00063
  12   30153.2    331.6   0.004109942   0.00085   0.01645   0.02401   0.00014
  13   30429.1    328.6   0.008796119   0.00183  -0.03883   0.01790   0.00101
  14   31197.2    320.5   0.067740468   0.01444   0.10967  -0.04913   0.00152
  15   31411.9    318.4   0.032208827   0.00691  -0.05563   0.06171  -0.00350
  16   31618.3    316.3   0.023235393   0.00502  -0.06963   0.01304  -0.00158
  17   31730.5    315.2   0.028645351   0.00621  -0.05417   0.05717  -0.00298
  18   31858.6    313.9   0.075990782   0.01655  -0.10427   0.07530  -0.00206
  19   32289.1    309.7   0.042091007   0.00929  -0.08155   0.05106  -0.00562
  20   32815.7    304.7   0.002392026   0.00054  -0.01744  -0.01433   0.00521
  21   32845.1    304.5   0.011828162   0.00266   0.01451   0.04912  -0.00564
  22   33063.7    302.4   0.002610740   0.00059   0.00843   0.02155  -0.00739
  23   33402.3    299.4   0.004972880   0.00114  -0.02078  -0.02652  -0.00013
  24   33724.6    296.5   0.004558889   0.00105   0.01066   0.03020   0.00499
  25   34113.6    293.1   0.016431751   0.00383   0.03703  -0.04931   0.00528
  26   34197.3    292.4   0.014096330   0.00329   0.04808   0.03126   0.00246
  27   34551.6    289.4   0.018304067   0.00432   0.00851   0.06518   0.00098
  28   34650.7    288.6   0.020463388   0.00485   0.06846  -0.01207  -0.00369
  29   34821.2    287.2   0.018215005   0.00433   0.04319  -0.04963  -0.00267
  30   35013.2    285.6   0.001425256   0.00034   0.01767  -0.00483   0.00231
  31   35105.4    284.9   0.004445406   0.00107  -0.03211   0.00594  -0.00048
  32   35256.1    283.6   0.011967093   0.00288   0.00221   0.05354  -0.00345
  33   35273.0    283.5   0.008884617   0.00214  -0.04072   0.02186   0.00241
  34   35337.0    283.0   0.014199033   0.00343   0.03861  -0.04386  -0.00382
  35   35462.9    282.0   0.000767779   0.00019  -0.01038   0.00284  -0.00838
  36   35564.1    281.2   0.008671342   0.00211  -0.03868  -0.02468   0.00160
  37   35789.3    279.4   0.021109282   0.00516  -0.05710   0.04126  -0.01415
  38   35925.0    278.4   0.004001862   0.00098   0.02965  -0.00942  -0.00381
  39   36152.0    276.6   0.007503585   0.00185   0.04199   0.00766  -0.00568
  40   36261.2    275.8   0.015974387   0.00396  -0.05141  -0.03591  -0.00517
  41   36385.7    274.8   0.001384845   0.00034  -0.00936  -0.01503   0.00554
  42   36619.4    273.1   0.003744636   0.00094  -0.02806   0.00663   0.01028
  43   36720.1    272.3   0.006085768   0.00153   0.02741   0.02633   0.00908
  44   37000.3    270.3   0.002241852   0.00057  -0.02210  -0.00887   0.00001
  45   37212.0    268.7   0.000107569   0.00003  -0.00049   0.00517   0.00060
  46   37412.9    267.3   0.009417998   0.00241   0.04341  -0.02277   0.00217
  47   37448.8    267.0   0.000667309   0.00017  -0.01034   0.00091  -0.00794
  48   37807.3    264.5   0.004803132   0.00124   0.03251   0.01345   0.00176
  49   37867.6    264.1   0.017085643   0.00442  -0.06253  -0.02239  -0.00332
  50   37987.9    263.2   0.000767599   0.00020  -0.01028  -0.00826  -0.00505

-------------------------------------------------------------------
                             CD SPECTRUM
-------------------------------------------------------------------
State  Energy     Wavelength     R         MX        MY        MZ   
       (cm-1)       (nm)     (1e40*cgs)   (au)      (au)      (au)  
-------------------------------------------------------------------
   1   16543.1    604.5      3.55007   0.02107   0.07987  -0.05580
   2   19055.7    524.8     -0.49463   0.00796   0.02869   0.04727
   3   21460.1    466.0    -19.80051   0.01152   0.02116   0.26468
   4   22368.6    447.1      1.50615   0.00717   0.01876  -0.04183
   5   23153.7    431.9    -10.39427   0.02084   0.07201   0.09333
   6   25629.3    390.2     15.03250   0.00758   0.04960  -0.15199
   7   26161.9    382.2      0.88979  -0.00247  -0.01232  -0.09359
   8   26433.0    378.3      3.95169  -0.00019  -0.01677   0.09497
   9   27140.9    368.4     -2.07046   0.00241   0.02017   0.16826
  10   28461.3    351.4      3.67271   0.00493   0.00069  -0.10055
  11   29905.1    334.4      1.89650  -0.00611   0.00725   0.00600
  12   30153.2    331.6     -2.73461   0.00260   0.02549   0.08993
  13   30429.1    328.6      2.62342   0.00795   0.01034   0.17462
  14   31197.2    320.5      9.15412   0.02482   0.04989   0.01797
  15   31411.9    318.4     -5.56402  -0.02295  -0.05793  -0.22296
  16   31618.3    316.3      7.99469  -0.00689   0.00199   0.29792
  17   31730.5    315.2      3.14763   0.00058   0.01435   0.25180
  18   31858.6    313.9     -7.25055  -0.00257   0.03568   0.30631
  19   32289.1    309.7      6.87445  -0.01566  -0.05989  -0.13123
  20   32815.7    304.7      0.61090  -0.00145   0.01750  -0.07639
  21   32845.1    304.5     -7.48741  -0.00606  -0.04437  -0.39522
  22   33063.7    302.4      2.16123  -0.00857  -0.00667   0.05806
  23   33402.3    299.4      2.07362   0.00969  -0.03027  -0.17917
  24   33724.6    296.5      2.72701   0.01649   0.00409   0.03894
  25   34113.6    293.1     -3.21232   0.03604   0.06013   0.40528
  26   34197.3    292.4      0.97303  -0.02094  -0.02280  -0.05100
  27   34551.6    289.4     -4.91521  -0.02428  -0.01799   0.10326
  28   34650.7    288.6     -9.92318  -0.05274  -0.03827  -0.27863
  29   34821.2    287.2     10.27963  -0.03101  -0.00502  -0.50285
  30   35013.2    285.6      2.69880   0.00472   0.04300   0.37029
  31   35105.4    284.9     -5.47571   0.04355   0.04067  -0.06020
  32   35256.1    283.6     -3.24677  -0.00297  -0.03304  -0.39073
  33   35273.0    283.5     -0.82678  -0.01679  -0.01334  -0.00980
  34   35337.0    283.0     -0.77283  -0.00341  -0.01479  -0.06973
  35   35462.9    282.0     -1.51209   0.03687   0.04745   0.07271
  36   35564.1    281.2      4.40973  -0.00020  -0.01724   0.03233
  37   35789.3    279.4      1.66236  -0.03391  -0.00158   0.29875
  38   35925.0    278.4     -5.36543   0.00852  -0.04291  -0.04917
  39   36152.0    276.6     -2.19894   0.03468  -0.00757  -0.25436
  40   36261.2    275.8     -8.87962   0.01940   0.04229  -0.01967
  41   36385.7    274.8      8.35557  -0.04922  -0.14561  -0.14941
  42   36619.4    273.1    -15.88138   0.09901   0.14558  -0.15499
  43   36720.1    272.3      6.43400   0.07963   0.12444   0.27036
  44   37000.3    270.3      1.14782   0.03566   0.03764   0.06005
  45   37212.0    268.7    -14.38477  -0.05975  -0.10239   0.14933
  46   37412.9    267.3    -10.43618  -0.02405  -0.03455   0.28798
  47   37448.8    267.0     -1.99657   0.00652   0.13177  -0.06830
  48   37807.3    264.5     -3.28884  -0.02763  -0.03323  -0.10310
  49   37867.6    264.1    -24.23397   0.01121   0.09331   0.19334
  50   37987.9    263.2      1.90385  -0.05495  -0.05406   0.05533

Total run time:   124139.049 sec

           *** ORCA-CIS/TD-DFT FINISHED WITHOUT ERROR ***

-----------------------
CIS/TD-DFT TOTAL ENERGY
-----------------------

    E(SCF)  =  -6284.966354435 Eh
    DE(CIS) =      0.075376131 Eh (Root  1)
    ----------------------------- ---------
    E(tot)  =  -6284.890978304 Eh


-------------------------   --------------------
FINAL SINGLE POINT ENERGY     -6284.890978304295
-------------------------   --------------------


                            ***************************************
                            *     ORCA property calculations      *
                            ***************************************

                                    ---------------------
                                    Active property flags
                                    ---------------------
   (+) Dipole Moment


------------------------------------------------------------------------------
                       ORCA ELECTRIC PROPERTIES CALCULATION
------------------------------------------------------------------------------

Dipole Moment Calculation                       ... on
Quadrupole Moment Calculation                   ... off
Polarizability Calculation                      ... off
GBWName                                         ... PDCBT-Cl_tetra.gbw
Electron density file                           ... PDCBT-Cl_tetra.scfp
The origin for moment calculation is the CENTER OF MASS  = (27.361781, -7.831259 -0.099257)

-------------
DIPOLE MOMENT
-------------
                                X             Y             Z
Electronic contribution:     58.50626       0.08039       1.24047
Nuclear contribution   :    -59.81307      -0.72067      -1.53529
                        -----------------------------------------
Total Dipole Moment    :     -1.30680      -0.64027      -0.29482
                        -----------------------------------------
Magnitude (a.u.)       :      1.48479
Magnitude (Debye)      :      3.77404



--------------------
Rotational spectrum 
--------------------
 
Rotational constants in cm-1:     0.003763     0.000206     0.000196 
Rotational constants in MHz :   112.810286     6.185802     5.879807 

 Dipole components along the rotational axes: 
x,y,z [a.u.] :     1.040951    -1.006613    -0.328264 
x,y,z [Debye]:     2.645887    -2.558607    -0.834381 

 

Timings for individual modules:

Sum of individual times         ...   133161.905 sec (=2219.365 min)
GTO integral calculation        ...        6.124 sec (=   0.102 min)   0.0 %
SCF iterations                  ...     9015.059 sec (= 150.251 min)   6.8 %
CIS module                      ...   124140.722 sec (=2069.012 min)  93.2 %
                             ****ORCA TERMINATED NORMALLY****
TOTAL RUN TIME: 1 days 12 hours 59 minutes 24 seconds 471 msec
