
                                 *****************
                                 * O   R   C   A *
                                 *****************

           --- An Ab Initio, DFT and Semiempirical electronic structure package ---

                  #######################################################
                  #                        -***-                        #
                  #          Department of theory and spectroscopy      #
                  #               Directorship: Frank Neese             #
                  #        Max Planck Institute fuer Kohlenforschung    #
                  #                Kaiser Wilhelm Platz 1               #
                  #                 D-45470 Muelheim/Ruhr               #
                  #                      Germany                        #
                  #                                                     #
                  #                  All rights reserved                #
                  #                        -***-                        #
                  #######################################################


                         Program Version 4.2.0 -  RELEASE  -


 With contributions from (in alphabetic order):
   Daniel Aravena         : Magnetic Suceptibility
   Michael Atanasov       : Ab Initio Ligand Field Theory (pilot matlab implementation)
   Alexander A. Auer      : GIAO ZORA, VPT2
   Ute Becker             : Parallelization
   Giovanni Bistoni       : ED, misc. LED, open-shell LED, HFLED
   Martin Brehm           : Molecular dynamics
   Dmytro Bykov           : SCF Hessian
   Vijay G. Chilkuri      : MRCI spin determinant printing, contributions to CSF-ICE
   Dipayan Datta          : RHF DLPNO-CCSD density
   Achintya Kumar Dutta   : EOM-CC, STEOM-CC
   Dmitry Ganyushin       : Spin-Orbit,Spin-Spin,Magnetic field MRCI
   Miquel Garcia          : C-PCM Hessian, Gaussian charge scheme
   Yang Guo               : DLPNO-NEVPT2, CIM, IAO-localization
   Andreas Hansen         : Spin unrestricted coupled pair/coupled cluster methods
   Benjamin Helmich-Paris : CASSCF linear response (MC-RPA)
   Lee Huntington         : MR-EOM, pCC
   Robert Izsak           : Overlap fitted RIJCOSX, COSX-SCS-MP3, EOM
   Christian Kollmar      : KDIIS, OOCD, Brueckner-CCSD(T), CCSD density
   Simone Kossmann        : Meta GGA functionals, TD-DFT gradient, OOMP2, MP2 Hessian
   Martin Krupicka        : AUTO-CI
   Lucas Lang             : DCDCAS
   Dagmar Lenk            : GEPOL surface, SMD
   Dimitrios Liakos       : Extrapolation schemes; Compound Job, initial MDCI parallelization
   Dimitrios Manganas     : Further ROCIS development; embedding schemes
   Dimitrios Pantazis     : SARC Basis sets
   Taras Petrenko         : DFT Hessian,TD-DFT gradient, ASA, ECA, R-Raman, ABS, FL, XAS/XES, NRVS
   Peter Pinski           : DLPNO-MP2, DLPNO-MP2 Gradient
   Christoph Reimann      : Effective Core Potentials
   Marius Retegan         : Local ZFS, SOC
   Christoph Riplinger    : Optimizer, TS searches, QM/MM, DLPNO-CCSD(T), (RO)-DLPNO pert. Triples
   Tobias Risthaus        : Range-separated hybrids, TD-DFT gradient, RPA, STAB
   Michael Roemelt        : Original ROCIS implementation
   Masaaki Saitow         : Open-shell DLPNO-CCSD energy and density
   Barbara Sandhoefer     : DKH picture change effects
   Avijit Sen             : IP-ROCIS
   Kantharuban Sivalingam : CASSCF convergence, NEVPT2, FIC-MRCI
   Bernardo de Souza      : ESD, SOC TD-DFT
   Georgi Stoychev        : AutoAux, RI-MP2 NMR
   Willem Van den Heuvel  : Paramagnetic NMR
   Boris Wezisla          : Elementary symmetry handling
   Frank Wennmohs         : Technical directorship


 We gratefully acknowledge several colleagues who have allowed us to
 interface, adapt or use parts of their codes:
   Stefan Grimme, W. Hujo, H. Kruse,             : VdW corrections, initial TS optimization,
                  C. Bannwarth                     DFT functionals, gCP, sTDA/sTD-DF
   Ed Valeev, F. Pavosevic, A. Kumar             : LibInt (2-el integral package), F12 methods
   Garnet Chan, S. Sharma, J. Yang, R. Olivares  : DMRG
   Ulf Ekstrom                                   : XCFun DFT Library
   Mihaly Kallay                                 : mrcc  (arbitrary order and MRCC methods)
   Andreas Klamt, Michael Diedenhofen            : otool_cosmo (COSMO solvation model)
   Jiri Pittner, Ondrej Demel                    : Mk-CCSD
   Frank Weinhold                                : gennbo (NPA and NBO analysis)
   Christopher J. Cramer and Donald G. Truhlar   : smd solvation model
   Lars Goerigk                                  : TD-DFT with DH, B97 family of functionals
   V. Asgeirsson, H. Jonsson                     : NEB implementation
   FAccTs GmbH                                   : IRC, NEB, NEB-TS, Multilevel, MM, QM/MM, CI optimization
   S Lehtola, MJT Oliveira, MAL Marques          : LibXC Library


 Your calculation uses the libint2 library for the computation of 2-el integrals
 For citations please refer to: http://libint.valeyev.net

 Your ORCA version has been built with support for libXC version: 4.2.3
 For citations please refer to: https://tddft.org/programs/libxc/

 This ORCA versions uses:
   CBLAS   interface :  Fast vector & matrix operations
   LAPACKE interface :  Fast linear algebra routines
   SCALAPACK package :  Parallel linear algebra routines


----- Orbital basis set information -----
Your calculation utilizes the basis: def2-TZVP
   F. Weigend and R. Ahlrichs, Phys. Chem. Chem. Phys. 7, 3297 (2005).

----- AuxJ basis set information -----
Your calculation utilizes the auxiliary basis: def2/J
   F. Weigend, Phys. Chem. Chem. Phys. 8, 1057 (2006).

================================================================================
                                        WARNINGS
                       Please study these warnings very carefully!
================================================================================

INFO   : Checking CIS options ...

WARNING: CIS/ROCIS methods need fully converged wavefunctions
  ===> : Setting SCFConvForced true
         You can overwrite this default with %scf ConvForced false 


INFO   : the flag for use of LIBINT has been found!

================================================================================
                                       INPUT FILE
================================================================================
NAME = PTB7-Th_tetra.inp
|  1> # ORCA input file
|  2> # PTB7-Th_tetra.out: Geometry 66
|  3> ! B3LYP def2-TZVP def2/J RIJCOSX Grid4 TightSCF
|  4> 
|  5> %maxcore 6000
|  6> %tddft
|  7>   maxdim 5
|  8>   nroots 50
|  9>   end
| 10> %pal
| 11>   nprocs 6
| 12>   end
| 13> 
| 14> 
| 15> * xyz 0 1
| 16>    C        0.45792         2.25695         0.30686
| 17>    C        1.42119         1.21537         0.28377
| 18>    C        0.99853        -0.15061         0.23067
| 19>    C       -0.34294        -0.54828         0.18254
| 20>    C       -1.30706         0.49480         0.21395
| 21>    C       -0.88554         1.85927         0.27000
| 22>    C        2.84989         1.32945         0.27139
| 23>    C        3.50074         0.11899         0.23367
| 24>    S        2.37684        -1.23932         0.16794
| 25>    C       -2.73057         0.38570         0.24805
| 26>    C       -3.39038         1.59731         0.31420
| 27>    S       -2.25420         2.95032         0.35354
| 28>    C        0.81994         3.67834         0.37631
| 29>    C       -0.70644        -1.96643         0.08478
| 30>    C        4.92346        -0.10681         0.25515
| 31>    C        0.31149         4.73180        -0.35521
| 32>    C        0.85442         5.99530         0.02000
| 33>    C        1.77001         5.92161         1.04444
| 34>    S        1.97013         4.26861         1.55733
| 35>    C       -0.20306        -3.03815         0.79191
| 36>    C       -0.73128        -4.29303         0.36921
| 37>    C       -1.63133        -4.19401        -0.66619
| 38>    S       -1.83929        -2.52638        -1.12897
| 39>    S        5.60738        -1.69438         0.56894
| 40>    C        7.24930        -1.14763         0.48555
| 41>    C        7.26532         0.21449         0.21992
| 42>    C        5.95992         0.80021         0.10347
| 43>    C        8.28442         1.20825         0.03216
| 44>    C        7.80989         2.47093        -0.21153
| 45>    S        6.03072         2.52540        -0.18180
| 46>    F        9.57707         0.87721         0.11323
| 47>    C        8.46325         3.80033        -0.32092
| 48>    C        2.51968         7.03706         1.71762
| 49>    C        3.98150         6.71468         2.05096
| 50>    C       -2.34902        -5.29703        -1.39219
| 51>    C       -3.81318        -4.99504        -1.73110
| 52>    O        9.76261         3.88001        -0.65708
| 53>    O        7.83893         4.80405        -0.07348
| 54>    C       10.41510         3.00636        -1.58972
| 55>    C       11.16459         3.86746        -2.58724
| 56>    C      -12.32389         0.96670        -0.21173
| 57>    C      -10.97504         0.54344        -0.11803
| 58>    C      -10.64090        -0.84496        -0.09182
| 59>    C      -11.60473        -1.86020        -0.13847
| 60>    C      -12.95971        -1.44107        -0.21927
| 61>    C      -13.28692        -0.04970        -0.25763
| 62>    C       -9.81404         1.36980        -0.03354
| 63>    C       -8.63010         0.67644         0.01624
| 64>    S       -8.89243        -1.07337        -0.00935
| 65>    C      -14.14822        -2.25644        -0.26667
| 66>    C      -15.29324        -1.52536        -0.35689
| 67>    S      -15.02157         0.19716        -0.38308
| 68>    C      -12.67745         2.39229        -0.23107
| 69>    C      -11.22223        -3.27883        -0.09717
| 70>    C       -7.32927         1.28296         0.10436
| 71>    C      -13.58477         3.06998         0.55580
| 72>    C      -13.59361         4.47798         0.32237
| 73>    C      -12.70652         4.88337        -0.64797
| 74>    S      -11.85817         3.51064        -1.30125
| 75>    C      -10.38241        -3.91856         0.78930
| 76>    C      -10.24377        -5.31502         0.52900
| 77>    C      -10.96275        -5.74861        -0.55988
| 78>    S      -11.82052        -4.41580        -1.28618
| 79>    S       -5.84185         0.36875         0.14882
| 80>    C       -4.81992         1.78405         0.30315
| 81>    C       -5.63143         2.93208         0.33087
| 82>    C       -7.02873         2.63691         0.19375
| 83>    C       -5.44841         4.35139         0.47069
| 84>    C       -6.59871         5.09543         0.38242
| 85>    S       -8.02958         4.07044         0.20055
| 86>    F       -4.25170         4.88264         0.71945
| 87>    C       -6.91017         6.53608         0.57309
| 88>    C      -12.40610         6.26674        -1.14875
| 89>    C      -10.91096         6.60726        -1.16604
| 90>    C      -11.07761        -7.13443        -1.12699
| 91>    C      -12.51933        -7.64429        -1.24555
| 92>    O       -5.94853         7.46633         0.46058
| 93>    O       -8.03854         6.87003         0.85390
| 94>    C       -4.82079         7.38365        -0.42720
| 95>    C       -4.62043         8.74878        -1.05915
| 96>    C        8.39602        -2.08837         0.67449
| 97>    H        3.36941         2.28404         0.31825
| 98>    H       -3.25249        -0.57003         0.22205
| 99>    H       -0.41377         4.59350        -1.15786
|100>    H        0.57944         6.93677        -0.45856
|101>    H        0.51005        -2.91973         1.60838
|102>    H       -0.45337        -5.24731         0.81973
|103>    H        1.99138         7.32156         2.64620
|104>    H        2.45871         7.91852         1.05845
|105>    H        4.05287         5.88542         2.77313
|106>    H        4.48191         7.58548         2.50183
|107>    H        4.54670         6.41606         1.15467
|108>    H       -2.27765        -6.20284        -0.76818
|109>    H       -1.80508        -5.53301        -2.32528
|110>    H       -4.39172        -4.75455        -0.82580
|111>    H       -4.28769        -5.85598        -2.22699
|112>    H       -3.89786        -4.13476        -2.41432
|113>    H        9.67395         2.36527        -2.09369
|114>    H       11.10140         2.35514        -1.02919
|115>    H       10.46866         4.48496        -3.17620
|116>    H       11.74358         3.23353        -3.27797
|117>    H       11.86011         4.53948        -2.06210
|118>    H       -9.87559         2.45317        -0.01529
|119>    H      -14.13292        -3.34475        -0.23571
|120>    H      -16.31244        -1.90715        -0.40582
|121>    H      -14.19487         2.57061         1.30934
|122>    H      -14.22460         5.17920         0.87081
|123>    H       -9.90350        -3.40115         1.62123
|124>    H       -9.63501        -5.98734         1.13615
|125>    H      -12.95181         6.97745        -0.50813
|126>    H      -12.82437         6.39173        -2.16465
|127>    H      -10.46027         6.53564        -0.16583
|128>    H      -10.74758         7.62878        -1.54350
|129>    H      -10.35482         5.92073        -1.82344
|130>    H      -10.48964        -7.80780        -0.48314
|131>    H      -10.59737        -7.17062        -2.12160
|132>    H      -13.01070        -7.67982        -0.26113
|133>    H      -12.54266        -8.65400        -1.68436
|134>    H      -13.12028        -6.98555        -1.89147
|135>    H       -5.00393         6.61456        -1.19463
|136>    H       -3.93824         7.08286         0.15365
|137>    H       -5.50572         9.05064        -1.63962
|138>    H       -3.74941         8.73082        -1.73348
|139>    H       -4.44188         9.50813        -0.28377
|140>    H        8.13979        -2.89954         1.37153
|141>    H        9.26515        -1.54737         1.07389
|142>    H        8.70263        -2.55593        -0.27772
|143> *
|144> 
|145>                          ****END OF INPUT****
================================================================================

                       ****************************
                       * Single Point Calculation *
                       ****************************

---------------------------------
CARTESIAN COORDINATES (ANGSTROEM)
---------------------------------
  C      0.457920    2.256950    0.306860
  C      1.421190    1.215370    0.283770
  C      0.998530   -0.150610    0.230670
  C     -0.342940   -0.548280    0.182540
  C     -1.307060    0.494800    0.213950
  C     -0.885540    1.859270    0.270000
  C      2.849890    1.329450    0.271390
  C      3.500740    0.118990    0.233670
  S      2.376840   -1.239320    0.167940
  C     -2.730570    0.385700    0.248050
  C     -3.390380    1.597310    0.314200
  S     -2.254200    2.950320    0.353540
  C      0.819940    3.678340    0.376310
  C     -0.706440   -1.966430    0.084780
  C      4.923460   -0.106810    0.255150
  C      0.311490    4.731800   -0.355210
  C      0.854420    5.995300    0.020000
  C      1.770010    5.921610    1.044440
  S      1.970130    4.268610    1.557330
  C     -0.203060   -3.038150    0.791910
  C     -0.731280   -4.293030    0.369210
  C     -1.631330   -4.194010   -0.666190
  S     -1.839290   -2.526380   -1.128970
  S      5.607380   -1.694380    0.568940
  C      7.249300   -1.147630    0.485550
  C      7.265320    0.214490    0.219920
  C      5.959920    0.800210    0.103470
  C      8.284420    1.208250    0.032160
  C      7.809890    2.470930   -0.211530
  S      6.030720    2.525400   -0.181800
  F      9.577070    0.877210    0.113230
  C      8.463250    3.800330   -0.320920
  C      2.519680    7.037060    1.717620
  C      3.981500    6.714680    2.050960
  C     -2.349020   -5.297030   -1.392190
  C     -3.813180   -4.995040   -1.731100
  O      9.762610    3.880010   -0.657080
  O      7.838930    4.804050   -0.073480
  C     10.415100    3.006360   -1.589720
  C     11.164590    3.867460   -2.587240
  C    -12.323890    0.966700   -0.211730
  C    -10.975040    0.543440   -0.118030
  C    -10.640900   -0.844960   -0.091820
  C    -11.604730   -1.860200   -0.138470
  C    -12.959710   -1.441070   -0.219270
  C    -13.286920   -0.049700   -0.257630
  C     -9.814040    1.369800   -0.033540
  C     -8.630100    0.676440    0.016240
  S     -8.892430   -1.073370   -0.009350
  C    -14.148220   -2.256440   -0.266670
  C    -15.293240   -1.525360   -0.356890
  S    -15.021570    0.197160   -0.383080
  C    -12.677450    2.392290   -0.231070
  C    -11.222230   -3.278830   -0.097170
  C     -7.329270    1.282960    0.104360
  C    -13.584770    3.069980    0.555800
  C    -13.593610    4.477980    0.322370
  C    -12.706520    4.883370   -0.647970
  S    -11.858170    3.510640   -1.301250
  C    -10.382410   -3.918560    0.789300
  C    -10.243770   -5.315020    0.529000
  C    -10.962750   -5.748610   -0.559880
  S    -11.820520   -4.415800   -1.286180
  S     -5.841850    0.368750    0.148820
  C     -4.819920    1.784050    0.303150
  C     -5.631430    2.932080    0.330870
  C     -7.028730    2.636910    0.193750
  C     -5.448410    4.351390    0.470690
  C     -6.598710    5.095430    0.382420
  S     -8.029580    4.070440    0.200550
  F     -4.251700    4.882640    0.719450
  C     -6.910170    6.536080    0.573090
  C    -12.406100    6.266740   -1.148750
  C    -10.910960    6.607260   -1.166040
  C    -11.077610   -7.134430   -1.126990
  C    -12.519330   -7.644290   -1.245550
  O     -5.948530    7.466330    0.460580
  O     -8.038540    6.870030    0.853900
  C     -4.820790    7.383650   -0.427200
  C     -4.620430    8.748780   -1.059150
  C      8.396020   -2.088370    0.674490
  H      3.369410    2.284040    0.318250
  H     -3.252490   -0.570030    0.222050
  H     -0.413770    4.593500   -1.157860
  H      0.579440    6.936770   -0.458560
  H      0.510050   -2.919730    1.608380
  H     -0.453370   -5.247310    0.819730
  H      1.991380    7.321560    2.646200
  H      2.458710    7.918520    1.058450
  H      4.052870    5.885420    2.773130
  H      4.481910    7.585480    2.501830
  H      4.546700    6.416060    1.154670
  H     -2.277650   -6.202840   -0.768180
  H     -1.805080   -5.533010   -2.325280
  H     -4.391720   -4.754550   -0.825800
  H     -4.287690   -5.855980   -2.226990
  H     -3.897860   -4.134760   -2.414320
  H      9.673950    2.365270   -2.093690
  H     11.101400    2.355140   -1.029190
  H     10.468660    4.484960   -3.176200
  H     11.743580    3.233530   -3.277970
  H     11.860110    4.539480   -2.062100
  H     -9.875590    2.453170   -0.015290
  H    -14.132920   -3.344750   -0.235710
  H    -16.312440   -1.907150   -0.405820
  H    -14.194870    2.570610    1.309340
  H    -14.224600    5.179200    0.870810
  H     -9.903500   -3.401150    1.621230
  H     -9.635010   -5.987340    1.136150
  H    -12.951810    6.977450   -0.508130
  H    -12.824370    6.391730   -2.164650
  H    -10.460270    6.535640   -0.165830
  H    -10.747580    7.628780   -1.543500
  H    -10.354820    5.920730   -1.823440
  H    -10.489640   -7.807800   -0.483140
  H    -10.597370   -7.170620   -2.121600
  H    -13.010700   -7.679820   -0.261130
  H    -12.542660   -8.654000   -1.684360
  H    -13.120280   -6.985550   -1.891470
  H     -5.003930    6.614560   -1.194630
  H     -3.938240    7.082860    0.153650
  H     -5.505720    9.050640   -1.639620
  H     -3.749410    8.730820   -1.733480
  H     -4.441880    9.508130   -0.283770
  H      8.139790   -2.899540    1.371530
  H      9.265150   -1.547370    1.073890
  H      8.702630   -2.555930   -0.277720

----------------------------
CARTESIAN COORDINATES (A.U.)
----------------------------
  NO LB      ZA    FRAG     MASS         X           Y           Z
   0 C     6.0000    0    12.011    0.865343    4.265017    0.579881
   1 C     6.0000    0    12.011    2.685660    2.296716    0.536248
   2 C     6.0000    0    12.011    1.886948   -0.284612    0.435903
   3 C     6.0000    0    12.011   -0.648063   -1.036099    0.344951
   4 C     6.0000    0    12.011   -2.469985    0.935036    0.404307
   5 C     6.0000    0    12.011   -1.673428    3.513511    0.510226
   6 C     6.0000    0    12.011    5.385512    2.512296    0.512853
   7 C     6.0000    0    12.011    6.615440    0.224859    0.441572
   8 S    16.0000    0    32.060    4.491577   -2.341975    0.317361
   9 C     6.0000    0    12.011   -5.160029    0.728867    0.468747
  10 C     6.0000    0    12.011   -6.406890    3.018478    0.593752
  11 S    16.0000    0    32.060   -4.259821    5.575297    0.668094
  12 C     6.0000    0    12.011    1.549462    6.951055    0.711123
  13 C     6.0000    0    12.011   -1.334978   -3.716014    0.160211
  14 C     6.0000    0    12.011    9.303991   -0.201842    0.482164
  15 C     6.0000    0    12.011    0.588631    8.941806   -0.671250
  16 C     6.0000    0    12.011    1.614620   11.329475    0.037795
  17 C     6.0000    0    12.011    3.344834   11.190221    1.973706
  18 S    16.0000    0    32.060    3.723006    8.066504    2.942927
  19 C     6.0000    0    12.011   -0.383728   -5.741271    1.496493
  20 C     6.0000    0    12.011   -1.381919   -8.112651    0.697706
  21 C     6.0000    0    12.011   -3.082767   -7.925530   -1.258917
  22 S    16.0000    0    32.060   -3.475754   -4.774166   -2.133444
  23 S    16.0000    0    32.060   10.596413   -3.201914    1.075141
  24 C     6.0000    0    12.011   13.699192   -2.168706    0.917557
  25 C     6.0000    0    12.011   13.729465    0.405327    0.415589
  26 C     6.0000    0    12.011   11.262617    1.512178    0.195530
  27 C     6.0000    0    12.011   15.655285    2.283262    0.060774
  28 C     6.0000    0    12.011   14.758553    4.669381   -0.399734
  29 S    16.0000    0    32.060   11.396409    4.772314   -0.343552
  30 F     9.0000    0    18.998   18.098039    1.657687    0.213974
  31 C     6.0000    0    12.011   15.993225    7.181583   -0.606451
  32 C     6.0000    0    12.011    4.761505   13.298116    3.245831
  33 C     6.0000    0    12.011    7.523945   12.688906    3.875753
  34 C     6.0000    0    12.011   -4.439004  -10.009936   -2.630858
  35 C     6.0000    0    12.011   -7.205866   -9.439258   -3.271305
  36 O     8.0000    0    15.999   18.448659    7.332156   -1.241701
  37 O     8.0000    0    15.999   14.813431    9.078339   -0.138857
  38 C     6.0000    0    12.011   19.681687    5.681197   -3.004135
  39 C     6.0000    0    12.011   21.098017    7.308440   -4.889175
  40 C     6.0000    0    12.011  -23.288777    1.826798   -0.400112
  41 C     6.0000    0    12.011  -20.739820    1.026953   -0.223044
  42 C     6.0000    0    12.011  -20.108387   -1.596743   -0.173515
  43 C     6.0000    0    12.011  -21.929762   -3.515269   -0.261670
  44 C     6.0000    0    12.011  -24.490303   -2.723228   -0.414360
  45 C     6.0000    0    12.011  -25.108640   -0.093919   -0.486850
  46 C     6.0000    0    12.011  -18.545848    2.588547   -0.063381
  47 C     6.0000    0    12.011  -16.308526    1.278286    0.030689
  48 S    16.0000    0    32.060  -16.804257   -2.028375   -0.017669
  49 C     6.0000    0    12.011  -26.736261   -4.264054   -0.503933
  50 C     6.0000    0    12.011  -28.900035   -2.882513   -0.674424
  51 S    16.0000    0    32.060  -28.386653    0.372578   -0.723916
  52 C     6.0000    0    12.011  -23.956909    4.520773   -0.436659
  53 C     6.0000    0    12.011  -21.206941   -6.196091   -0.183625
  54 C     6.0000    0    12.011  -13.850313    2.424443    0.197212
  55 C     6.0000    0    12.011  -25.671495    5.801421    1.050310
  56 C     6.0000    0    12.011  -25.688200    8.462156    0.609191
  57 C     6.0000    0    12.011  -24.011843    9.228232   -1.224486
  58 S    16.0000    0    32.060  -22.408694    6.634148   -2.459006
  59 C     6.0000    0    12.011  -19.619912   -7.405005    1.491561
  60 C     6.0000    0    12.011  -19.357920  -10.043932    0.999665
  61 C     6.0000    0    12.011  -20.716595  -10.863299   -1.058020
  62 S    16.0000    0    32.060  -22.337546   -8.344653   -2.430528
  63 S    16.0000    0    32.060  -11.039497    0.696837    0.281229
  64 C     6.0000    0    12.011   -9.108329    3.371366    0.572870
  65 C     6.0000    0    12.011  -10.641860    5.540828    0.625254
  66 C     6.0000    0    12.011  -13.282375    4.983038    0.366134
  67 C     6.0000    0    12.011  -10.296003    8.222935    0.889475
  68 C     6.0000    0    12.011  -12.469755    9.628967    0.722669
  69 S    16.0000    0    32.060  -15.173707    7.692017    0.378985
  70 F     9.0000    0    18.998   -8.034549    9.226852    1.359563
  71 C     6.0000    0    12.011  -13.058329   12.351401    1.082983
  72 C     6.0000    0    12.011  -23.444131   11.842422   -2.170823
  73 C     6.0000    0    12.011  -20.618726   12.485912   -2.203496
  74 C     6.0000    0    12.011  -20.933649  -13.482119   -2.129702
  75 C     6.0000    0    12.011  -23.658105  -14.445615   -2.353748
  76 O     8.0000    0    15.999  -11.241093   14.109319    0.870370
  77 O     8.0000    0    15.999  -15.190639   12.982475    1.613637
  78 C     6.0000    0    12.011   -9.109973   13.953076   -0.807291
  79 C     6.0000    0    12.011   -8.731347   16.532798   -2.001503
  80 C     6.0000    0    12.011   15.866178   -3.946447    1.274601
  81 H     1.0000    0     1.008    6.367262    4.316210    0.601405
  82 H     1.0000    0     1.008   -6.146315   -1.077201    0.419614
  83 H     1.0000    0     1.008   -0.781912    8.680457   -2.188038
  84 H     1.0000    0     1.008    1.094983   13.108596   -0.866553
  85 H     1.0000    0     1.008    0.963855   -5.517490    3.039398
  86 H     1.0000    0     1.008   -0.856745   -9.915979    1.549065
  87 H     1.0000    0     1.008    3.763163   13.835743    5.000593
  88 H     1.0000    0     1.008    4.646289   14.963834    2.000181
  89 H     1.0000    0     1.008    7.658814   11.121832    5.240456
  90 H     1.0000    0     1.008    8.469582   14.334480    4.727774
  91 H     1.0000    0     1.008    8.592018   12.124596    2.182010
  92 H     1.0000    0     1.008   -4.304135  -11.721669   -1.451650
  93 H     1.0000    0     1.008   -3.411107  -10.455874   -4.394142
  94 H     1.0000    0     1.008   -8.299148   -8.984797   -1.560536
  95 H     1.0000    0     1.008   -8.102560  -11.066198   -4.208401
  96 H     1.0000    0     1.008   -7.365888   -7.813564   -4.562404
  97 H     1.0000    0     1.008   18.281116    4.469713   -3.956501
  98 H     1.0000    0     1.008   20.978606    4.450570   -1.944887
  99 H     1.0000    0     1.008   19.782900    8.475346   -6.002148
 100 H     1.0000    0     1.008   22.192150    6.110486   -6.194466
 101 H     1.0000    0     1.008   22.412360    8.578374   -3.896804
 102 H     1.0000    0     1.008  -18.662161    4.635819   -0.028894
 103 H     1.0000    0     1.008  -26.707348   -6.320661   -0.445427
 104 H     1.0000    0     1.008  -30.826044   -3.603991   -0.766889
 105 H     1.0000    0     1.008  -26.824417    4.857749    2.474294
 106 H     1.0000    0     1.008  -26.880598    9.787270    1.645592
 107 H     1.0000    0     1.008  -18.714903   -6.427242    3.063681
 108 H     1.0000    0     1.008  -18.207530  -11.314433    2.147012
 109 H     1.0000    0     1.008  -24.475374   13.185470   -0.960227
 110 H     1.0000    0     1.008  -24.234547   12.078619   -4.090596
 111 H     1.0000    0     1.008  -19.767046   12.350570   -0.313373
 112 H     1.0000    0     1.008  -20.309983   14.416305   -2.916792
 113 H     1.0000    0     1.008  -19.567774   11.188558   -3.445802
 114 H     1.0000    0     1.008  -19.822547  -14.754604   -0.913002
 115 H     1.0000    0     1.008  -20.026127  -13.550508   -4.009243
 116 H     1.0000    0     1.008  -24.586660  -14.512757   -0.493464
 117 H     1.0000    0     1.008  -23.702192  -16.353690   -3.182979
 118 H     1.0000    0     1.008  -24.793736  -13.200776   -3.574360
 119 H     1.0000    0     1.008   -9.456057   12.499707   -2.257524
 120 H     1.0000    0     1.008   -7.442195   13.384666    0.290356
 121 H     1.0000    0     1.008  -10.404303   17.103231   -3.098433
 122 H     1.0000    0     1.008   -7.085358   16.498859   -3.275802
 123 H     1.0000    0     1.008   -8.393937   17.967762   -0.536248
 124 H     1.0000    0     1.008   15.381974   -5.479337    2.591816
 125 H     1.0000    0     1.008   17.508596   -2.924106    2.029358
 126 H     1.0000    0     1.008   16.445587   -4.830008   -0.524815

--------------------------------
INTERNAL COORDINATES (ANGSTROEM)
--------------------------------
 C      0   0   0     0.000000000000     0.00000000     0.00000000
 C      1   0   0     1.418911955479     0.00000000     0.00000000
 C      2   1   0     1.430860736061   120.05655802     0.00000000
 C      3   2   1     1.399999888107   123.74414140     0.79582918
 C      4   3   2     1.420749748865   116.16301171   358.86101278
 C      1   2   3     1.401567983938   116.23290741   359.77761390
 C      2   1   3     1.433300806112   128.20043036   178.18629672
 C      7   2   1     1.374860695671   113.70550132   180.70266144
 S      3   2   1     1.757544586376   111.16375225   178.47592608
 C      5   4   3     1.428091852823   128.37913277   183.56089882
 C     10   5   4     1.381203768710   114.22381720   178.13761670
 S      6   1   2     1.752312537677   124.80306460   177.40310131
 C      1   2   3     1.468411153254   122.95382654   179.29139665
 C      4   3   2     1.467255495849   120.94521454   177.96826481
 C      8   7   2     1.440687068312   127.23388526   182.11925312
 C     13   1   2     1.379645202398   128.54918022   134.88329371
 C     16  13   1     1.425478087871   113.38310802   177.23495091
 C     17  16  13     1.375940615652   113.70014356   359.47873161
 S     18  17  16     1.742272414549   110.26856548     0.04366293
 C     14   4   3     1.379133068163   128.79250966    45.47021355
 C     20  14   4     1.425628097647   113.37574421   183.95002521
 C     21  20  14     1.375481051451   113.72044174     0.45031503
 S     22  21  20     1.743101404652   110.29112288   359.81221760
 S     15   8   7     1.756869157166   121.91894940   165.77044049
 C     24  15   8     1.732567672849    94.31026371   181.86705585
 C     25  24  15     1.387871331104   109.26074434   359.81428682
 C     15   8   7     1.385619512853   129.37965288   348.52358560
 C     26  25  24     1.435749826815   135.44146949   180.46192060
 C     28  26  25     1.370738603600   114.52657841   180.24710778
 S     27  15   8     1.750049184737   133.90004158   359.31862861
 F     28  26  25     1.336826035429   120.46539471   359.57317162
 C     29  28  26     1.485311355137   133.25813863   172.49626953
 C     18  17  16     1.503131771935   128.72435376   181.41007003
 C     33  18  17     1.533610815168   114.62906690   219.57158743
 C     22  21  20     1.502933151042   128.55452684   177.85326088
 C     35  22  21     1.532913061397   114.72877209   140.09605351
 O     32  29  28     1.344503201037   119.77319176    24.37089733
 O     32  29  28     1.207665456325   120.09197696   206.37031597
 C     37  32  29     1.434860582844   124.46493131    36.12201410
 C     39  37  32     1.516006141313   107.85798713   129.80926469
 C     11  10   5     8.971168945968   114.28222420   174.79943419
 C     41  11  10     1.416800988177    21.42127567     6.35528107
 C     42  41  11     1.428282557374   120.95336371   181.51148391
 C     43  42  41     1.400662967669   122.88768000   359.16282523
 C     44  43  42     1.420622890601   116.38331377     0.20540185
 C     41  11  10     1.400929174120   137.51517961     5.42798171
 C     42  41  11     1.427561000343   127.24704864     1.84451383
 C     47  42  41     1.372931193323   114.27596467   181.43530429
 S     43  42  41     1.765253457694   110.99935606   178.67346694
 C     45  44  43     1.442092582673   128.39873365   180.69454789
 C     50  45  44     1.361502264119   113.05952196   180.66039175
 S     51  50  45     1.744008502101   113.59941602   359.71012626
 C     41  11  10     1.468906245238    99.91793580   184.71711008
 C     44  43  42     1.469871768863   121.30244198   180.55944907
 C     48  47  42     1.437981339830   124.70193438   180.04924148
 C     53  41  11     1.379006060683   128.88767590   231.33232462
 C     56  53  41     1.427246198278   113.30075942   175.54935141
 C     57  56  53     1.375801379488   113.70593132     0.55287501
 S     58  57  56     1.740936568000   110.27452603     0.69402288
 C     54  44  43     1.378543131788   128.64439947    50.02742702
 C     60  54  44     1.427262299369   113.32502546   179.78021292
 C     61  60  54     1.374988066457   113.71394290     0.56925181
 S     62  61  60     1.743463093673   110.24882683     0.31250820
 S     55  48  47     1.746474984676   123.45016735   180.66823489
 C     11  10   5     1.441727623964   125.93890758   177.19875929
 C     65  11  10     1.406161356104   132.67418542   181.76872630
 C     55  48  47     1.389782524786   127.62397792     2.04637082
 C     66  65  11     1.437875804407   137.25199367   354.63417140
 C     68  66  65     1.372799040100   114.96609655   177.68386138
 S     67  55  48     1.748357864798   132.47333576   358.51659533
 F     68  66  65     1.332750135697   121.72935723   355.17696039
 C     69  68  66     1.486214924902   133.84597640   174.00736001
 C     58  57  56     1.501580947435   129.47022249   181.45895144
 C     73  58  57     1.533524187648   113.79036057   129.11166093
 C     62  61  60     1.501766840791   129.05298946   180.73197990
 C     75  62  61     1.533809066214   114.06863130   124.40043631
 O     72  69  68     1.342674589094   120.71369366    22.45194648
 O     72  69  68     1.209791600029   119.52587328   203.65213120
 C     77  72  69     1.437632365523   125.01058741    32.72436217
 C     79  77  72     1.517591792611   107.99787813   137.61923101
 C     25  24  15     1.495211299315   121.47811096   180.29769311
 H      7   2   1     1.087813843495   123.06030789     2.47189336
 H     10   5   4     1.089264118247   122.96128022   358.01382102
 H     16  13   1     1.090585154905   122.58073946   355.63714980
 H     17  16  13     1.091329205556   123.59113957   179.16210503
 H     20  14   4     1.090491829130   122.56054414     5.37166950
 H     21  20  14     1.091261910313   123.57102598   180.47937143
 H     33  18  17     1.105577657336   109.19548215    96.85183323
 H     33  18  17     1.102358454134   107.33730399   342.75821024
 H     34  33  18     1.101950694632   111.24592669   296.92551997
 H     34  33  18     1.100902613767   110.85543657   177.61177381
 H     34  33  18     1.100890870386   111.68038458    56.69648764
 H     35  22  21     1.102258550931   107.38102771    16.95741432
 H     35  22  21     1.105537983110   109.23306448   262.78685493
 H     36  35  22     1.100959609477   111.29399961   302.80498735
 H     36  35  22     1.101037835771   110.92633499   182.09929729
 H     36  35  22     1.101835717882   111.36530126    62.60654005
 H     39  37  32     1.101946219876   110.22136851     8.20660332
 H     39  37  32     1.099676797655   108.24364272   250.34017770
 H     40  39  37     1.101135185388   110.97803506   296.09948149
 H     40  39  37     1.101909523464   110.20971749   175.72224114
 H     40  39  37     1.100513957385   110.20122225    55.92617437
 H     47  42  41     1.085270483290   122.18934725     1.18830757
 H     50  45  44     1.088857781209   123.54611277     0.53878050
 H     51  50  45     1.089461513317   126.98186445   180.06850078
 H     56  53  41     1.090603015996   122.50023193   358.18467761
 H     57  56  53     1.091166486885   123.73445803   181.81113635
 H     60  54  44     1.090493200850   122.54331807     1.59443467
 H     61  60  54     1.091436687353   123.74012124   181.14731616
 H     73  58  57     1.101499928552   107.53844121     6.68326775
 H     73  58  57     1.105723791460   109.56452936   252.02024729
 H     74  73  58     1.099395717929   112.02181090   300.66790082
 H     74  73  58     1.101213960318   110.76253295   179.82812333
 H     74  73  58     1.101267406446   111.14097139    60.54331318
 H     75  62  61     1.101670867501   107.60889790     1.94441460
 H     75  62  61     1.105074307818   109.68586755   247.17733344
 H     76  75  62     1.100813151357   111.17234320   299.64026591
 H     76  75  62     1.101186990978   110.82511180   178.88457572
 H     76  75  62     1.101041296455   111.06941113    59.26544521
 H     79  77  72     1.101811459643   109.86930188    16.30929299
 H     79  77  72     1.098524396224   108.62928706   258.24537008
 H     80  79  77     1.100819360567   111.10444057   299.15474656
 H     80  79  77     1.101689316868   110.15741241   178.87280499
 H     80  79  77     1.099866659827   110.42072293    59.26519671
 H     81  25  24     1.099779679481   111.43631447   328.22897103
 H     81  25  24     1.098903233638   110.04454802   207.84466129
 H     81  25  24     1.104230922317   111.73974927    88.38081316

---------------------------
INTERNAL COORDINATES (A.U.)
---------------------------
 C      0   0   0     0.000000000000     0.00000000     0.00000000
 C      1   0   0     2.681355004001     0.00000000     0.00000000
 C      2   1   0     2.703934926936   120.05655802     0.00000000
 C      3   2   1     2.645616376043   123.74414140     0.79582918
 C      4   3   2     2.684827930192   116.16301171   358.86101278
 C      1   2   3     2.648579647715   116.23290741   359.77761390
 C      2   1   3     2.708545991079   128.20043036   178.18629672
 C      7   2   1     2.598110187110   113.70550132   180.70266144
 S      3   2   1     3.321277936407   111.16375225   178.47592608
 C      5   4   3     2.698702495920   128.37913277   183.56089882
 C     10   5   4     2.610096858003   114.22381720   178.13761670
 S      6   1   2     3.311390797246   124.80306460   177.40310131
 C      1   2   3     2.774894931645   122.95382654   179.29139665
 C      4   3   2     2.772711055646   120.94521454   177.96826481
 C      8   7   2     2.722504003791   127.23388526   182.11925312
 C     13   1   2     2.607151594511   128.54918022   134.88329371
 C     16  13   1     2.693763195982   113.38310802   177.23495091
 C     17  16  13     2.600150940121   113.70014356   359.47873161
 S     18  17  16     3.292417714184   110.26856548     0.04366293
 C     14   4   3     2.606183801062   128.79250966    45.47021355
 C     20  14   4     2.694046673376   113.37574421   183.95002521
 C     21  20  14     2.599282489640   113.72044174     0.45031503
 S     22  21  20     3.293984278446   110.29112288   359.81221760
 S     15   8   7     3.320001560176   121.91894940   165.77044049
 C     24  15   8     3.274078410169    94.31026371   181.86705585
 C     25  24  15     2.622696724907   109.26074434   359.81428682
 C     15   8   7     2.618441405110   129.37965288   348.52358560
 C     26  25  24     2.713173969506   135.44146949   180.46192060
 C     28  26  25     2.590320561998   114.52657841   180.24710778
 S     27  15   8     3.307113680046   133.90004158   359.31862861
 F     28  26  25     2.526235095656   120.46539471   359.57317162
 C     29  28  26     2.806831684813   133.25813863   172.49626953
 C     18  17  16     2.840507392153   128.72435376   181.41007003
 C     33  18  17     2.898104436687   114.62906690   219.57158743
 C     22  21  20     2.840132053060   128.55452684   177.85326088
 C     35  22  21     2.896785873150   114.72877209   140.09605351
 O     32  29  28     2.540742836141   119.77319176    24.37089733
 O     32  29  28     2.282156973851   120.09197696   206.37031597
 C     37  32  29     2.711493541934   124.46493131    36.12201410
 C     39  37  32     2.864836424425   107.85798713   129.80926469
 C     11  10   5    16.953052409018   114.28222420   174.79943419
 C     41  11  10     2.677365853924    21.42127567     6.35528107
 C     42  41  11     2.699062875294   120.95336371   181.51148391
 C     43  42  41     2.646869414820   122.88768000   359.16282523
 C     44  43  42     2.684588202816   116.38331377     0.20540185
 C     41  11  10     2.647372472107   137.51517961     5.42798171
 C     42  41  11     2.697699330115   127.24704864     1.84451383
 C     47  42  41     2.594463956099   114.27596467   181.43530429
 S     43  42  41     3.335845591999   110.99935606   178.67346694
 C     45  44  43     2.725160041011   128.39873365   180.69454789
 C     50  45  44     2.572866409898   113.05952196   180.66039175
 S     51  50  45     3.295698444201   113.59941602   359.71012626
 C     41  11  10     2.775830519907    99.91793580   184.71711008
 C     44  43  42     2.777655095133   121.30244198   180.55944907
 C     48  47  42     2.717390917968   124.70193438   180.04924148
 C     53  41  11     2.605943791708   128.88767590   231.33232462
 C     56  53  41     2.697104440426   113.30075942   175.54935141
 C     57  56  53     2.599887821903   113.70593132     0.55287501
 S     58  57  56     3.289893330049   110.27452603     0.69402288
 C     54  44  43     2.605068982878   128.64439947    50.02742702
 C     60  54  44     2.697134867078   113.32502546   179.78021292
 C     61  60  54     2.598350883014   113.71394290     0.56925181
 S     62  61  60     3.294667771641   110.24882683     0.31250820
 S     55  48  47     3.300359420782   123.45016735   180.66823489
 C     11  10   5     2.724470369000   125.93890758   177.19875929
 C     65  11  10     2.657259863140   132.67418542   181.76872630
 C     55  48  47     2.626308357555   127.62397792     2.04637082
 C     66  65  11     2.717191484922   137.25199367   354.63417140
 C     68  66  65     2.594214222699   114.96609655   177.68386138
 S     67  55  48     3.303917548555   132.47333576   358.51659533
 F     68  66  65     2.518532761413   121.72935723   355.17696039
 C     69  68  66     2.808539184210   133.84597640   174.00736001
 C     58  57  56     2.837576758566   129.47022249   181.45895144
 C     73  58  57     2.897940734398   113.79036057   129.11166093
 C     62  61  60     2.837928046099   129.05298946   180.73197990
 C     75  62  61     2.898479076870   114.06863130   124.40043631
 O     72  69  68     2.537287260364   120.71369366    22.45194648
 O     72  69  68     2.286174803173   119.52587328   203.65213120
 C     77  72  69     2.716731452100   125.01058741    32.72436217
 C     79  77  72     2.867832871121   107.99787813   137.61923101
 C     25  24  15     2.825539868050   121.47811096   180.29769311
 H      7   2   1     2.055670248894   123.06030789     2.47189336
 H     10   5   4     2.058410870994   122.96128022   358.01382102
 H     16  13   1     2.060907268491   122.58073946   355.63714980
 H     17  16  13     2.062313320451   123.59113957   179.16210503
 H     20  14   4     2.060730908335   122.56054414     5.37166950
 H     21  20  14     2.062186150871   123.57102598   180.47937143
 H     33  18  17     2.089238992147   109.19548215    96.85183323
 H     33  18  17     2.083155579725   107.33730399   342.75821024
 H     34  33  18     2.082385025939   111.24592669   296.92551997
 H     34  33  18     2.080404440139   110.85543657   177.61177381
 H     34  33  18     2.080382248364   111.68038458    56.69648764
 H     35  22  21     2.082966790032   107.38102771    16.95741432
 H     35  22  21     2.089164018726   109.23306448   262.78685493
 H     36  35  22     2.080512146421   111.29399961   302.80498735
 H     36  35  22     2.080659972693   110.92633499   182.09929729
 H     36  35  22     2.082167751369   111.36530126    62.60654005
 H     39  37  32     2.082376569876   110.22136851     8.20660332
 H     39  37  32     2.078087983395   108.24364272   250.34017770
 H     40  39  37     2.080843936808   110.97803506   296.09948149
 H     40  39  37     2.082307223706   110.20971749   175.72224114
 H     40  39  37     2.079669986016   110.20122225    55.92617437
 H     47  42  41     2.050863994646   122.18934725     1.18830757
 H     50  45  44     2.057643005275   123.54611277     0.53878050
 H     51  50  45     2.058783893617   126.98186445   180.06850078
 H     56  53  41     2.060941021061   122.50023193   358.18467761
 H     57  56  53     2.062005826725   123.73445803   181.81113635
 H     60  54  44     2.060733500510   122.54331807     1.59443467
 H     61  60  54     2.062516431611   123.74012124   181.14731616
 H     73  58  57     2.081533201497   107.53844121     6.68326775
 H     73  58  57     2.089515145620   109.56452936   252.02024729
 H     74  73  58     2.077556819691   112.02181090   300.66790082
 H     74  73  58     2.080992799852   110.76253295   179.82812333
 H     74  73  58     2.081093798396   111.14097139    60.54331318
 H     75  62  61     2.081856229296   107.60889790     1.94441460
 H     75  62  61     2.088287799409   109.68586755   247.17733344
 H     76  75  62     2.080235380683   111.17234320   299.64026591
 H     76  75  62     2.080941835186   110.82511180   178.88457572
 H     76  75  62     2.080666512438   111.06941113    59.26544521
 H     79  77  72     2.082121909941   109.86930188    16.30929299
 H     79  77  72     2.075910260295   108.62928706   258.24537008
 H     80  79  77     2.080247114391   111.10444057   299.15474656
 H     80  79  77     2.081891093546   110.15741241   178.87280499
 H     80  79  77     2.078446770905   110.42072293    59.26519671
 H     81  25  24     2.078282401871   111.43631447   328.22897103
 H     81  25  24     2.076626159256   110.04454802   207.84466129
 H     81  25  24     2.086694031786   111.73974927    88.38081316

---------------------
BASIS SET INFORMATION
---------------------
There are 5 groups of distinct atoms

 Group   1 Type C   : 11s6p2d1f contracted to 5s3p2d1f pattern {62111/411/11/1}
 Group   2 Type S   : 14s9p3d1f contracted to 5s5p2d1f pattern {73211/51111/21/1}
 Group   3 Type F   : 11s6p2d1f contracted to 5s3p2d1f pattern {62111/411/11/1}
 Group   4 Type O   : 11s6p2d1f contracted to 5s3p2d1f pattern {62111/411/11/1}
 Group   5 Type H   : 5s1p contracted to 3s1p pattern {311/1}

Atom   0C    basis set group =>   1
Atom   1C    basis set group =>   1
Atom   2C    basis set group =>   1
Atom   3C    basis set group =>   1
Atom   4C    basis set group =>   1
Atom   5C    basis set group =>   1
Atom   6C    basis set group =>   1
Atom   7C    basis set group =>   1
Atom   8S    basis set group =>   2
Atom   9C    basis set group =>   1
Atom  10C    basis set group =>   1
Atom  11S    basis set group =>   2
Atom  12C    basis set group =>   1
Atom  13C    basis set group =>   1
Atom  14C    basis set group =>   1
Atom  15C    basis set group =>   1
Atom  16C    basis set group =>   1
Atom  17C    basis set group =>   1
Atom  18S    basis set group =>   2
Atom  19C    basis set group =>   1
Atom  20C    basis set group =>   1
Atom  21C    basis set group =>   1
Atom  22S    basis set group =>   2
Atom  23S    basis set group =>   2
Atom  24C    basis set group =>   1
Atom  25C    basis set group =>   1
Atom  26C    basis set group =>   1
Atom  27C    basis set group =>   1
Atom  28C    basis set group =>   1
Atom  29S    basis set group =>   2
Atom  30F    basis set group =>   3
Atom  31C    basis set group =>   1
Atom  32C    basis set group =>   1
Atom  33C    basis set group =>   1
Atom  34C    basis set group =>   1
Atom  35C    basis set group =>   1
Atom  36O    basis set group =>   4
Atom  37O    basis set group =>   4
Atom  38C    basis set group =>   1
Atom  39C    basis set group =>   1
Atom  40C    basis set group =>   1
Atom  41C    basis set group =>   1
Atom  42C    basis set group =>   1
Atom  43C    basis set group =>   1
Atom  44C    basis set group =>   1
Atom  45C    basis set group =>   1
Atom  46C    basis set group =>   1
Atom  47C    basis set group =>   1
Atom  48S    basis set group =>   2
Atom  49C    basis set group =>   1
Atom  50C    basis set group =>   1
Atom  51S    basis set group =>   2
Atom  52C    basis set group =>   1
Atom  53C    basis set group =>   1
Atom  54C    basis set group =>   1
Atom  55C    basis set group =>   1
Atom  56C    basis set group =>   1
Atom  57C    basis set group =>   1
Atom  58S    basis set group =>   2
Atom  59C    basis set group =>   1
Atom  60C    basis set group =>   1
Atom  61C    basis set group =>   1
Atom  62S    basis set group =>   2
Atom  63S    basis set group =>   2
Atom  64C    basis set group =>   1
Atom  65C    basis set group =>   1
Atom  66C    basis set group =>   1
Atom  67C    basis set group =>   1
Atom  68C    basis set group =>   1
Atom  69S    basis set group =>   2
Atom  70F    basis set group =>   3
Atom  71C    basis set group =>   1
Atom  72C    basis set group =>   1
Atom  73C    basis set group =>   1
Atom  74C    basis set group =>   1
Atom  75C    basis set group =>   1
Atom  76O    basis set group =>   4
Atom  77O    basis set group =>   4
Atom  78C    basis set group =>   1
Atom  79C    basis set group =>   1
Atom  80C    basis set group =>   1
Atom  81H    basis set group =>   5
Atom  82H    basis set group =>   5
Atom  83H    basis set group =>   5
Atom  84H    basis set group =>   5
Atom  85H    basis set group =>   5
Atom  86H    basis set group =>   5
Atom  87H    basis set group =>   5
Atom  88H    basis set group =>   5
Atom  89H    basis set group =>   5
Atom  90H    basis set group =>   5
Atom  91H    basis set group =>   5
Atom  92H    basis set group =>   5
Atom  93H    basis set group =>   5
Atom  94H    basis set group =>   5
Atom  95H    basis set group =>   5
Atom  96H    basis set group =>   5
Atom  97H    basis set group =>   5
Atom  98H    basis set group =>   5
Atom  99H    basis set group =>   5
Atom 100H    basis set group =>   5
Atom 101H    basis set group =>   5
Atom 102H    basis set group =>   5
Atom 103H    basis set group =>   5
Atom 104H    basis set group =>   5
Atom 105H    basis set group =>   5
Atom 106H    basis set group =>   5
Atom 107H    basis set group =>   5
Atom 108H    basis set group =>   5
Atom 109H    basis set group =>   5
Atom 110H    basis set group =>   5
Atom 111H    basis set group =>   5
Atom 112H    basis set group =>   5
Atom 113H    basis set group =>   5
Atom 114H    basis set group =>   5
Atom 115H    basis set group =>   5
Atom 116H    basis set group =>   5
Atom 117H    basis set group =>   5
Atom 118H    basis set group =>   5
Atom 119H    basis set group =>   5
Atom 120H    basis set group =>   5
Atom 121H    basis set group =>   5
Atom 122H    basis set group =>   5
Atom 123H    basis set group =>   5
Atom 124H    basis set group =>   5
Atom 125H    basis set group =>   5
Atom 126H    basis set group =>   5
---------------------------------
AUXILIARY/J BASIS SET INFORMATION
---------------------------------
There are 5 groups of distinct atoms

 Group   1 Type C   : 12s5p4d2f1g contracted to 6s4p3d1f1g pattern {711111/2111/211/2/1}
 Group   2 Type S   : 14s5p5d2f1g contracted to 8s4p3d1f1g pattern {71111111/2111/311/2/1}
 Group   3 Type F   : 12s5p4d2f1g contracted to 6s4p3d1f1g pattern {711111/2111/211/2/1}
 Group   4 Type O   : 12s5p4d2f1g contracted to 6s4p3d1f1g pattern {711111/2111/211/2/1}
 Group   5 Type H   : 5s2p1d contracted to 3s1p1d pattern {311/2/1}

Atom   0C    basis set group =>   1
Atom   1C    basis set group =>   1
Atom   2C    basis set group =>   1
Atom   3C    basis set group =>   1
Atom   4C    basis set group =>   1
Atom   5C    basis set group =>   1
Atom   6C    basis set group =>   1
Atom   7C    basis set group =>   1
Atom   8S    basis set group =>   2
Atom   9C    basis set group =>   1
Atom  10C    basis set group =>   1
Atom  11S    basis set group =>   2
Atom  12C    basis set group =>   1
Atom  13C    basis set group =>   1
Atom  14C    basis set group =>   1
Atom  15C    basis set group =>   1
Atom  16C    basis set group =>   1
Atom  17C    basis set group =>   1
Atom  18S    basis set group =>   2
Atom  19C    basis set group =>   1
Atom  20C    basis set group =>   1
Atom  21C    basis set group =>   1
Atom  22S    basis set group =>   2
Atom  23S    basis set group =>   2
Atom  24C    basis set group =>   1
Atom  25C    basis set group =>   1
Atom  26C    basis set group =>   1
Atom  27C    basis set group =>   1
Atom  28C    basis set group =>   1
Atom  29S    basis set group =>   2
Atom  30F    basis set group =>   3
Atom  31C    basis set group =>   1
Atom  32C    basis set group =>   1
Atom  33C    basis set group =>   1
Atom  34C    basis set group =>   1
Atom  35C    basis set group =>   1
Atom  36O    basis set group =>   4
Atom  37O    basis set group =>   4
Atom  38C    basis set group =>   1
Atom  39C    basis set group =>   1
Atom  40C    basis set group =>   1
Atom  41C    basis set group =>   1
Atom  42C    basis set group =>   1
Atom  43C    basis set group =>   1
Atom  44C    basis set group =>   1
Atom  45C    basis set group =>   1
Atom  46C    basis set group =>   1
Atom  47C    basis set group =>   1
Atom  48S    basis set group =>   2
Atom  49C    basis set group =>   1
Atom  50C    basis set group =>   1
Atom  51S    basis set group =>   2
Atom  52C    basis set group =>   1
Atom  53C    basis set group =>   1
Atom  54C    basis set group =>   1
Atom  55C    basis set group =>   1
Atom  56C    basis set group =>   1
Atom  57C    basis set group =>   1
Atom  58S    basis set group =>   2
Atom  59C    basis set group =>   1
Atom  60C    basis set group =>   1
Atom  61C    basis set group =>   1
Atom  62S    basis set group =>   2
Atom  63S    basis set group =>   2
Atom  64C    basis set group =>   1
Atom  65C    basis set group =>   1
Atom  66C    basis set group =>   1
Atom  67C    basis set group =>   1
Atom  68C    basis set group =>   1
Atom  69S    basis set group =>   2
Atom  70F    basis set group =>   3
Atom  71C    basis set group =>   1
Atom  72C    basis set group =>   1
Atom  73C    basis set group =>   1
Atom  74C    basis set group =>   1
Atom  75C    basis set group =>   1
Atom  76O    basis set group =>   4
Atom  77O    basis set group =>   4
Atom  78C    basis set group =>   1
Atom  79C    basis set group =>   1
Atom  80C    basis set group =>   1
Atom  81H    basis set group =>   5
Atom  82H    basis set group =>   5
Atom  83H    basis set group =>   5
Atom  84H    basis set group =>   5
Atom  85H    basis set group =>   5
Atom  86H    basis set group =>   5
Atom  87H    basis set group =>   5
Atom  88H    basis set group =>   5
Atom  89H    basis set group =>   5
Atom  90H    basis set group =>   5
Atom  91H    basis set group =>   5
Atom  92H    basis set group =>   5
Atom  93H    basis set group =>   5
Atom  94H    basis set group =>   5
Atom  95H    basis set group =>   5
Atom  96H    basis set group =>   5
Atom  97H    basis set group =>   5
Atom  98H    basis set group =>   5
Atom  99H    basis set group =>   5
Atom 100H    basis set group =>   5
Atom 101H    basis set group =>   5
Atom 102H    basis set group =>   5
Atom 103H    basis set group =>   5
Atom 104H    basis set group =>   5
Atom 105H    basis set group =>   5
Atom 106H    basis set group =>   5
Atom 107H    basis set group =>   5
Atom 108H    basis set group =>   5
Atom 109H    basis set group =>   5
Atom 110H    basis set group =>   5
Atom 111H    basis set group =>   5
Atom 112H    basis set group =>   5
Atom 113H    basis set group =>   5
Atom 114H    basis set group =>   5
Atom 115H    basis set group =>   5
Atom 116H    basis set group =>   5
Atom 117H    basis set group =>   5
Atom 118H    basis set group =>   5
Atom 119H    basis set group =>   5
Atom 120H    basis set group =>   5
Atom 121H    basis set group =>   5
Atom 122H    basis set group =>   5
Atom 123H    basis set group =>   5
Atom 124H    basis set group =>   5
Atom 125H    basis set group =>   5
Atom 126H    basis set group =>   5


           ************************************************************
           *        Program running with 6 parallel MPI-processes     *
           *              working on a common directory               *
           ************************************************************
------------------------------------------------------------------------------
                           ORCA GTO INTEGRAL CALCULATION
                           -- RI-GTO INTEGRALS CHOSEN --
------------------------------------------------------------------------------

                         BASIS SET STATISTICS AND STARTUP INFO

Gaussian basis set:
 # of primitive gaussian shells          ... 1980
 # of primitive gaussian functions       ... 4298
 # of contracted shells                  ... 1099
 # of contracted basis functions         ... 2859
 Highest angular momentum                ...    3
 Maximum contraction depth               ...    7
Auxiliary gaussian basis set:
 # of primitive gaussian shells          ... 2348
 # of primitive gaussian functions       ... 6490
 # of contracted shells                  ... 1469
 # of contracted aux-basis functions     ... 4499
 Highest angular momentum                ...    4
 Maximum contraction depth               ...    7
Ratio of auxiliary to basis functions    ...  1.57
Integral package used                  ... LIBINT
 One Electron integrals                  ... done
 Ordering auxiliary basis shells         ... done
 Integral threshhold             Thresh  ...  2.500e-11
 Primitive cut-off               TCut    ...  2.500e-12
 Pre-screening matrix                    ... done
 Shell pair data                         ... 
 Ordering of the shell pairs             ... done (   0.039 sec) 167551 of 604450 pairs
 Determination of significant pairs      ... done (   0.001 sec)
 Creation of shell pair data             ... done (   0.014 sec)
 Storage of shell pair data              ... done (   0.083 sec)
 Shell pair data done in (   0.136 sec)
 Computing two index integrals           ... done
 Cholesky decomposition of the V-matrix  ... done


Timings:
 Total evaluation time                   ...   8.783 sec (  0.146 min)
 One electron matrix time                ...   2.563 sec (  0.043 min) = 29.2%
 Schwartz matrix evaluation time         ...   4.462 sec (  0.074 min) = 50.8%
 Two index repulsion integral time       ...   0.338 sec (  0.006 min) =  3.8%
 Cholesky decomposition of V             ...   1.268 sec (  0.021 min) = 14.4%
 Three index repulsion integral time     ...   0.000 sec (  0.000 min) =  0.0%



           ************************************************************
           *        Program running with 6 parallel MPI-processes     *
           *              working on a common directory               *
           ************************************************************
-------------------------------------------------------------------------------
                                 ORCA SCF
-------------------------------------------------------------------------------

------------
SCF SETTINGS
------------
Hamiltonian:
 Density Functional     Method          .... DFT(GTOs)
 Exchange Functional    Exchange        .... B88
   X-Alpha parameter    XAlpha          ....  0.666667
   Becke's b parameter  XBeta           ....  0.004200
 Correlation Functional Correlation     .... LYP
 LDA part of GGA corr.  LDAOpt          .... VWN-5
 Gradients option       PostSCFGGA      .... off
 Hybrid DFT is turned on
   Fraction HF Exchange ScalHFX         ....  0.200000
   Scaling of DF-GGA-X  ScalDFX         ....  0.720000
   Scaling of DF-GGA-C  ScalDFC         ....  0.810000
   Scaling of DF-LDA-C  ScalLDAC        ....  1.000000
   Perturbative correction              ....  0.000000
   Density functional embedding theory  .... OFF
   NL short-range parameter             ....  4.800000
 RI-approximation to the Coulomb term is turned on
   Number of auxiliary basis functions  .... 4499
   RIJ-COSX (HFX calculated with COS-X)).... on


General Settings:
 Integral files         IntName         .... PTB7-Th_tetra
 Hartree-Fock type      HFTyp           .... RHF
 Total Charge           Charge          ....    0
 Multiplicity           Mult            ....    1
 Number of Electrons    NEL             ....  666
 Basis Dimension        Dim             .... 2859
 Nuclear Repulsion      ENuc            ....  16135.6365269832 Eh

Convergence Acceleration:
 DIIS                   CNVDIIS         .... on
   Start iteration      DIISMaxIt       ....    12
   Startup error        DIISStart       ....  0.200000
   # of expansion vecs  DIISMaxEq       ....     5
   Bias factor          DIISBfac        ....   1.050
   Max. coefficient     DIISMaxC        ....  10.000
 Newton-Raphson         CNVNR           .... off
 SOSCF                  CNVSOSCF        .... on
   Start iteration      SOSCFMaxIt      ....   150
   Startup grad/error   SOSCFStart      ....  0.003300
 Level Shifting         CNVShift        .... on
   Level shift para.    LevelShift      ....    0.2500
   Turn off err/grad.   ShiftErr        ....    0.0010
 Zerner damping         CNVZerner       .... off
 Static damping         CNVDamp         .... on
   Fraction old density DampFac         ....    0.7000
   Max. Damping (<1)    DampMax         ....    0.9800
   Min. Damping (>=0)   DampMin         ....    0.0000
   Turn off err/grad.   DampErr         ....    0.1000
 Fernandez-Rico         CNVRico         .... off

SCF Procedure:
 Maximum # iterations   MaxIter         ....   125
 SCF integral mode      SCFMode         .... Direct
   Integral package                     .... LIBINT
 Reset frequency        DirectResetFreq ....    20
 Integral Threshold     Thresh          ....  2.500e-11 Eh
 Primitive CutOff       TCut            ....  2.500e-12 Eh

Convergence Tolerance:
 Convergence Check Mode ConvCheckMode   .... Total+1el-Energy
 Convergence forced     ConvForced      .... 1
 Energy Change          TolE            ....  1.000e-08 Eh
 1-El. energy change                    ....  1.000e-05 Eh
 Orbital Gradient       TolG            ....  1.000e-05
 Orbital Rotation angle TolX            ....  1.000e-05
 DIIS Error             TolErr          ....  5.000e-07


Diagonalization of the overlap matrix:
Smallest eigenvalue                        ... 2.346e-06
Time for diagonalization                   ...    2.574 sec
Threshold for overlap eigenvalues          ... 1.000e-08
Number of eigenvalues below threshold      ... 0
Time for construction of square roots      ...    2.286 sec
Total time needed                          ...    4.867 sec

-------------------
DFT GRID GENERATION
-------------------

General Integration Accuracy     IntAcc      ...  4.670
Radial Grid Type                 RadialGrid  ... Gauss-Chebyshev
Angular Grid (max. acc.)         AngularGrid ... Lebedev-302
Angular grid pruning method      GridPruning ... 3 (G Style)
Weight generation scheme         WeightScheme... Becke
Basis function cutoff            BFCut       ...    1.0000e-11
Integration weight cutoff        WCut        ...    1.0000e-14
Grids for H and He will be reduced by one unit

# of grid points (after initial pruning)     ... 667024 (   0.0 sec)
# of grid points (after weights+screening)   ... 570450 (   7.0 sec)
nearest neighbour list constructed           ...    0.0 sec
Grid point re-assignment to atoms done       ...    0.1 sec
Grid point division into batches done        ...    2.1 sec
Reduced shell lists constructed in    4.3 sec

Total number of grid points                  ...   570450
Total number of batches                      ...     8981
Average number of points per batch           ...       63
Average number of grid points per atom       ...     4492
Average number of shells per batch           ...   203.52 (18.52%)
Average number of basis functions per batch  ...   522.58 (18.28%)
Average number of large shells per batch     ...   117.98 (57.97%)
Average number of large basis fcns per batch ...   314.80 (60.24%)
Maximum spatial batch extension              ...  13.58, 19.59, 22.88 au
Average spatial batch extension              ...   0.25,  0.26,  0.32 au

Time for grid setup =   11.491 sec

------------------------------
INITIAL GUESS: MODEL POTENTIAL
------------------------------
Loading Hartree-Fock densities                     ... done
Calculating cut-offs                               ... done
Setting up the integral package                    ... done
Initializing the effective Hamiltonian             ... done
Starting the Coulomb interaction                   ... done (   6.5 sec)
Reading the grid                                   ... done
Mapping shells                                     ... done
Starting the XC term evaluation                    ... done (   4.1 sec)
  promolecular density results
     # of electrons  =    665.978488691
     EX              =   -691.096788769
     EC              =    -24.207639073
     EX+EC           =   -715.304427842
Transforming the Hamiltonian                       ... done (   2.2 sec)
Diagonalizing the Hamiltonian                      ... done (   2.6 sec)
Back transforming the eigenvectors                 ... done (   1.1 sec)
Now organizing SCF variables                       ... done
                      ------------------
                      INITIAL GUESS DONE (  28.2 sec)
                      ------------------
--------------------
COSX GRID GENERATION
--------------------

General Integration Accuracy     IntAcc      ...  3.340
Radial Grid Type                 RadialGrid  ... Gauss-Chebyshev
Angular Grid (max. acc.)         AngularGrid ... Lebedev-50
Angular grid pruning method      GridPruning ... 3 (G Style)
Weight generation scheme         WeightScheme... Becke
Basis function cutoff            BFCut       ...    1.0000e-11
Integration weight cutoff        WCut        ...    1.0000e-14
Grids for H and He will be reduced by one unit

# of grid points (after initial pruning)     ...  63212 (   0.0 sec)
# of grid points (after weights+screening)   ...  56360 (   0.7 sec)
nearest neighbour list constructed           ...    0.0 sec
Grid point re-assignment to atoms done       ...    0.0 sec
Grid point division into batches done        ...    0.0 sec
Reduced shell lists constructed in    0.3 sec

Total number of grid points                  ...    56360
Total number of batches                      ...      947
Average number of points per batch           ...       59
Average number of grid points per atom       ...      444
Average number of shells per batch           ...   242.87 (22.10%)
Average number of basis functions per batch  ...   626.86 (21.93%)
Average number of large shells per batch     ...   140.08 (57.68%)
Average number of large basis fcns per batch ...   378.42 (60.37%)
Maximum spatial batch extension              ...  10.88, 11.37, 30.36 au
Average spatial batch extension              ...   0.47,  0.46,  0.75 au

Overlap Fitting                  UseSFitting ... on
Constructing numerical overlap ... done (      0.7 sec)
Inverting numerical overlap    ... done (      0.8 sec)
Obtaining analytic overlap     ... done (      0.0 sec)
Final contraction and storage  ... done (      4.9 sec)


General Integration Accuracy     IntAcc      ...  3.670
Radial Grid Type                 RadialGrid  ... Gauss-Chebyshev
Angular Grid (max. acc.)         AngularGrid ... Lebedev-50
Angular grid pruning method      GridPruning ... 3 (G Style)
Weight generation scheme         WeightScheme... Becke
Basis function cutoff            BFCut       ...    1.0000e-11
Integration weight cutoff        WCut        ...    1.0000e-14
Grids for H and He will be reduced by one unit

# of grid points (after initial pruning)     ...  79306 (   0.0 sec)
# of grid points (after weights+screening)   ...  70412 (   0.8 sec)
nearest neighbour list constructed           ...    0.0 sec
Grid point re-assignment to atoms done       ...    0.0 sec
Grid point division into batches done        ...    0.0 sec
Reduced shell lists constructed in    0.4 sec

Total number of grid points                  ...    70412
Total number of batches                      ...     1159
Average number of points per batch           ...       60
Average number of grid points per atom       ...      554
Average number of shells per batch           ...   237.66 (21.63%)
Average number of basis functions per batch  ...   612.97 (21.44%)
Average number of large shells per batch     ...   136.63 (57.49%)
Average number of large basis fcns per batch ...   367.92 (60.02%)
Maximum spatial batch extension              ...  10.63, 12.04, 30.56 au
Average spatial batch extension              ...   0.44,  0.45,  0.72 au

Overlap Fitting                  UseSFitting ... on
Constructing numerical overlap ... done (      0.8 sec)
Inverting numerical overlap    ... done (      0.8 sec)
Obtaining analytic overlap     ... done (      0.0 sec)
Final contraction and storage  ... done (      4.9 sec)


General Integration Accuracy     IntAcc      ...  4.010
Radial Grid Type                 RadialGrid  ... Gauss-Chebyshev
Angular Grid (max. acc.)         AngularGrid ... Lebedev-110
Angular grid pruning method      GridPruning ... 3 (G Style)
Weight generation scheme         WeightScheme... Becke
Basis function cutoff            BFCut       ...    1.0000e-11
Integration weight cutoff        WCut        ...    1.0000e-14
Grids for H and He will be reduced by one unit

# of grid points (after initial pruning)     ... 151376 (   0.0 sec)
# of grid points (after weights+screening)   ... 133261 (   1.7 sec)
nearest neighbour list constructed           ...    0.0 sec
Grid point re-assignment to atoms done       ...    0.0 sec
Grid point division into batches done        ...    0.1 sec
Reduced shell lists constructed in    0.7 sec

Total number of grid points                  ...   133261
Total number of batches                      ...     2146
Average number of points per batch           ...       62
Average number of grid points per atom       ...     1049
Average number of shells per batch           ...   228.33 (20.78%)
Average number of basis functions per batch  ...   589.69 (20.63%)
Average number of large shells per batch     ...   132.56 (58.06%)
Average number of large basis fcns per batch ...   357.02 (60.54%)
Maximum spatial batch extension              ...  17.18, 15.72, 26.86 au
Average spatial batch extension              ...   0.41,  0.41,  0.59 au

Overlap Fitting                  UseSFitting ... on
Constructing numerical overlap ... done (      1.4 sec)
Inverting numerical overlap    ... done (      0.8 sec)
Obtaining analytic overlap     ... done (      0.0 sec)
Final contraction and storage  ... done (      4.9 sec)

Time for X-Grid setup             =   24.765 sec
--------------
SCF ITERATIONS
--------------
ITER       Energy         Delta-E        Max-DP      RMS-DP      [F,P]     Damp
               ***  Starting incremental Fock matrix formation  ***
  0  -7704.0193979985   0.000000000000 0.18161608  0.00062803  0.3107973 0.7000
  1  -7705.0791708958  -1.059772897250 0.14422338  0.00049056  0.1123691 0.7000
                               ***Turning on DIIS***
  2  -7705.4599283799  -0.380757484167 0.16877194  0.00080209  0.0373158 0.0000
  3  -7706.0147708344  -0.554842454458 0.13231253  0.00038786  0.0566160 0.0000
  4  -7706.1919543893  -0.177183554890 0.03082527  0.00013938  0.0174796 0.0000
  5  -7706.2024866847  -0.010532295415 0.01795599  0.00005778  0.0184689 0.0000
  6  -7706.2041377433  -0.001651058647 0.00631142  0.00002555  0.0039364 0.0000
                      *** Initiating the SOSCF procedure ***
                           *** Shutting down DIIS ***
                      *** Re-Reading the Fockian *** 
                      *** Removing any level shift *** 
ITER      Energy       Delta-E        Grad      Rot      Max-DP    RMS-DP
  7  -7706.20428361  -0.0001458672  0.000313  0.000313  0.001955  0.000010
               *** Restarting incremental Fock matrix formation ***
  8  -7706.20430450  -0.0000208904  0.000279  0.002544  0.010999  0.000077
  9  -7706.20430928  -0.0000047761  0.000113  0.000998  0.004549  0.000032
 10  -7706.20431259  -0.0000033080  0.000067  0.000579  0.004482  0.000031
 11  -7706.20431394  -0.0000013564  0.000058  0.000463  0.001857  0.000013
 12  -7706.20431454  -0.0000005956  0.000048  0.000420  0.002052  0.000014
 13  -7706.20431460  -0.0000000656  0.000023  0.000159  0.000974  0.000004
 14  -7706.20431452   0.0000000781  0.000025  0.000123  0.000865  0.000006
 15  -7706.20431476  -0.0000002369  0.000007  0.000044  0.000465  0.000001
 16  -7706.20431506  -0.0000002952  0.000009  0.000056  0.000250  0.000002
 17  -7706.20431486   0.0000001995  0.000003  0.000010  0.000650  0.000002
 18  -7706.20431456   0.0000002988  0.000004  0.000010  0.000282  0.000001
                  ***Gradient check signals convergence***
              ***Rediagonalizing the Fockian in SOSCF/NRSCF***

               *****************************************************
               *                     SUCCESS                       *
               *           SCF CONVERGED AFTER  19 CYCLES          *
               *****************************************************

Setting up the final grid:

General Integration Accuracy     IntAcc      ...  5.010
Radial Grid Type                 RadialGrid  ... Gauss-Chebyshev
Angular Grid (max. acc.)         AngularGrid ... Lebedev-434
Angular grid pruning method      GridPruning ... 3 (G Style)
Weight generation scheme         WeightScheme... Becke
Basis function cutoff            BFCut       ...    1.0000e-11
Integration weight cutoff        WCut        ...    1.0000e-14
Grids for H and He will be reduced by one unit

# of grid points (after initial pruning)     ... 1187690 (   0.1 sec)
# of grid points (after weights+screening)   ... 1012956 (  12.0 sec)
nearest neighbour list constructed           ...    0.0 sec
Grid point re-assignment to atoms done       ...    0.1 sec
Grid point division into batches done        ...    6.8 sec
Reduced shell lists constructed in   10.4 sec

Total number of grid points                  ...  1012956
Total number of batches                      ...    15890
Average number of points per batch           ...       63
Average number of grid points per atom       ...     7976
Average number of shells per batch           ...   196.29 (17.86%)
Average number of basis functions per batch  ...   502.71 (17.58%)
Average number of large shells per batch     ...   113.71 (57.93%)
Average number of large basis fcns per batch ...   302.77 (60.23%)
Maximum spatial batch extension              ...  15.31, 19.16, 22.99 au
Average spatial batch extension              ...   0.21,  0.21,  0.25 au

Final grid set up in   22.8 sec
Final integration                            ... done (   9.3 sec)
Change in XC energy                          ...    -0.000121594
Integrated number of electrons               ...   666.000144852
Previous integrated no of electrons          ...   666.000477298
Old exchange energy                            =   -139.302186056 Eh
New exchange energy                            =   -139.306394705 Eh
Exchange energy change after final integration =     -0.004208648 Eh
Total energy after final integration           =  -7706.208645133 Eh
Final COS-X integration done in                =   332.567 sec

----------------
TOTAL SCF ENERGY
----------------

Total Energy       :        -7706.20864513 Eh         -209696.59800 eV

Components:
Nuclear Repulsion  :        16135.63652698 Eh          439072.99194 eV
Electronic Energy  :       -23841.84517212 Eh         -648769.58994 eV
One Electron Energy:       -42767.71425599 Eh        -1163768.66976 eV
Two Electron Energy:        18925.86908387 Eh          514999.07982 eV

Virial components:
Potential Energy   :       -15390.49444874 Eh         -418796.64516 eV
Kinetic Energy     :         7684.28580360 Eh          209100.04716 eV
Virial Ratio       :            2.00285294


DFT components:
N(Alpha)           :      333.000072425780 electrons
N(Beta)            :      333.000072425780 electrons
N(Total)           :      666.000144851560 electrons
E(X)               :     -553.447839619653 Eh       
E(C)               :      -28.403574755951 Eh       
E(XC)              :     -581.851414375605 Eh       
DFET-embed. en.    :        0.000000000000 Eh       

---------------
SCF CONVERGENCE
---------------

  Last Energy change         ...   -3.3337e-07  Tolerance :   1.0000e-08
  Last MAX-Density change    ...    4.8850e-15  Tolerance :   1.0000e-07
  Last RMS-Density change    ...    1.4459e-17  Tolerance :   5.0000e-09
  Last Orbital Gradient      ...    8.8385e-07  Tolerance :   1.0000e-05
  Last Orbital Rotation      ...    9.1752e-06  Tolerance :   1.0000e-05

             **** THE GBW FILE WAS UPDATED (PTB7-Th_tetra.gbw) ****
             **** DENSITY FILE WAS UPDATED (PTB7-Th_tetra.scfp) ****
             **** ENERGY FILE WAS UPDATED (PTB7-Th_tetra.en.tmp) ****
             **** THE GBW FILE WAS UPDATED (PTB7-Th_tetra.gbw) ****
             **** DENSITY FILE WAS UPDATED (PTB7-Th_tetra.scfp) ****
----------------
ORBITAL ENERGIES
----------------

  NO   OCC          E(Eh)            E(eV) 
   0   2.0000     -88.906873     -2419.2790 
   1   2.0000     -88.903536     -2419.1882 
   2   2.0000     -88.896442     -2418.9952 
   3   2.0000     -88.893852     -2418.9247 
   4   2.0000     -88.884995     -2418.6837 
   5   2.0000     -88.883153     -2418.6336 
   6   2.0000     -88.882957     -2418.6282 
   7   2.0000     -88.882726     -2418.6219 
   8   2.0000     -88.879491     -2418.5339 
   9   2.0000     -88.878946     -2418.5191 
  10   2.0000     -88.878573     -2418.5089 
  11   2.0000     -88.873520     -2418.3714 
  12   2.0000     -24.728852      -672.9063 
  13   2.0000     -24.724250      -672.7810 
  14   2.0000     -19.170745      -521.6625 
  15   2.0000     -19.168952      -521.6137 
  16   2.0000     -19.115309      -520.1540 
  17   2.0000     -19.112345      -520.0733 
  18   2.0000     -10.316953      -280.7386 
  19   2.0000     -10.314975      -280.6847 
  20   2.0000     -10.296186      -280.1735 
  21   2.0000     -10.294608      -280.1305 
  22   2.0000     -10.241559      -278.6870 
  23   2.0000     -10.240620      -278.6614 
  24   2.0000     -10.238226      -278.5963 
  25   2.0000     -10.236498      -278.5493 
  26   2.0000     -10.232398      -278.4377 
  27   2.0000     -10.231784      -278.4210 
  28   2.0000     -10.231279      -278.4073 
  29   2.0000     -10.229028      -278.3460 
  30   2.0000     -10.227818      -278.3131 
  31   2.0000     -10.226594      -278.2798 
  32   2.0000     -10.226189      -278.2687 
  33   2.0000     -10.224990      -278.2361 
  34   2.0000     -10.222939      -278.1803 
  35   2.0000     -10.217671      -278.0370 
  36   2.0000     -10.215870      -277.9880 
  37   2.0000     -10.215427      -277.9759 
  38   2.0000     -10.214875      -277.9609 
  39   2.0000     -10.211471      -277.8683 
  40   2.0000     -10.211453      -277.8678 
  41   2.0000     -10.210716      -277.8477 
  42   2.0000     -10.208972      -277.8003 
  43   2.0000     -10.208708      -277.7931 
  44   2.0000     -10.208139      -277.7776 
  45   2.0000     -10.207608      -277.7631 
  46   2.0000     -10.206480      -277.7324 
  47   2.0000     -10.205983      -277.7189 
  48   2.0000     -10.205244      -277.6988 
  49   2.0000     -10.204048      -277.6663 
  50   2.0000     -10.203740      -277.6579 
  51   2.0000     -10.203377      -277.6480 
  52   2.0000     -10.203080      -277.6399 
  53   2.0000     -10.199999      -277.5561 
[...]
   316a -> 333a  :     0.513697 (c=  0.71672643)
   317a -> 333a  :     0.032193 (c= -0.17942389)
   319a -> 333a  :     0.016797 (c=  0.12960351)
   320a -> 333a  :     0.010689 (c=  0.10338935)
   324a -> 334a  :     0.019828 (c= -0.14081193)
   325a -> 334a  :     0.034749 (c= -0.18641114)
   329a -> 337a  :     0.088070 (c= -0.29676605)
   330a -> 337a  :     0.056521 (c=  0.23774174)
   331a -> 337a  :     0.024160 (c=  0.15543572)
   332a -> 341a  :     0.018747 (c=  0.13691794)
   332a -> 342a  :     0.017058 (c=  0.13060679)

STATE 46:  E=   0.149699 au      4.074 eV    32855.2 cm**-1
   315a -> 333a  :     0.065509 (c= -0.25594782)
   316a -> 333a  :     0.011932 (c=  0.10923591)
   320a -> 334a  :     0.012488 (c=  0.11175050)
   324a -> 334a  :     0.061375 (c=  0.24774053)
   324a -> 335a  :     0.017065 (c=  0.13063370)
   325a -> 334a  :     0.044070 (c=  0.20992946)
   325a -> 335a  :     0.025148 (c=  0.15858017)
   327a -> 334a  :     0.012001 (c= -0.10955069)
   327a -> 335a  :     0.045190 (c= -0.21257878)
   328a -> 335a  :     0.038469 (c= -0.19613604)
   330a -> 338a  :     0.460702 (c=  0.67875019)
   332a -> 341a  :     0.029852 (c= -0.17277724)
   332a -> 342a  :     0.022497 (c= -0.14999123)
   332a -> 343a  :     0.012316 (c= -0.11097839)

STATE 47:  E=   0.150336 au      4.091 eV    32995.0 cm**-1
   313a -> 333a  :     0.014464 (c= -0.12026620)
   315a -> 333a  :     0.476333 (c= -0.69016909)
   316a -> 333a  :     0.012392 (c= -0.11131946)
   317a -> 333a  :     0.105891 (c= -0.32540889)
   319a -> 333a  :     0.015839 (c= -0.12585143)
   325a -> 334a  :     0.011954 (c= -0.10933220)
   327a -> 336a  :     0.011829 (c=  0.10876225)
   329a -> 337a  :     0.104685 (c= -0.32355055)
   330a -> 337a  :     0.027429 (c=  0.16561822)
   330a -> 338a  :     0.066743 (c= -0.25834654)
   332a -> 343a  :     0.017641 (c=  0.13281961)
   332a -> 344a  :     0.022753 (c=  0.15083941)

STATE 48:  E=   0.150999 au      4.109 eV    33140.4 cm**-1
   315a -> 333a  :     0.077489 (c=  0.27836821)
   316a -> 333a  :     0.053439 (c= -0.23116868)
   317a -> 333a  :     0.106495 (c=  0.32633598)
   317a -> 334a  :     0.014523 (c=  0.12050992)
   320a -> 334a  :     0.019397 (c= -0.13927363)
   321a -> 334a  :     0.013522 (c=  0.11628222)
   324a -> 334a  :     0.015130 (c=  0.12300267)
   325a -> 334a  :     0.049200 (c=  0.22181000)
   329a -> 337a  :     0.403156 (c= -0.63494572)
   329a -> 339a  :     0.015942 (c=  0.12625966)
   330a -> 337a  :     0.031178 (c=  0.17657224)
   330a -> 339a  :     0.014557 (c=  0.12065370)
   331a -> 339a  :     0.011025 (c= -0.10499855)
   331a -> 340a  :     0.013328 (c= -0.11544552)
   331a -> 341a  :     0.017464 (c=  0.13214975)
   331a -> 342a  :     0.019451 (c= -0.13946750)

STATE 49:  E=   0.151320 au      4.118 eV    33210.9 cm**-1
   326a -> 335a  :     0.049495 (c= -0.22247527)
   328a -> 335a  :     0.010794 (c=  0.10389552)
   329a -> 337a  :     0.053120 (c= -0.23047786)
   330a -> 341a  :     0.026673 (c= -0.16331952)
   330a -> 342a  :     0.024294 (c=  0.15586379)
   331a -> 339a  :     0.020116 (c=  0.14183003)
   331a -> 340a  :     0.094322 (c=  0.30711939)
   331a -> 341a  :     0.206052 (c= -0.45392905)
   331a -> 342a  :     0.283722 (c=  0.53265590)
   331a -> 343a  :     0.073572 (c=  0.27124081)
   332a -> 346a  :     0.024564 (c= -0.15672807)

STATE 50:  E=   0.153460 au      4.176 eV    33680.7 cm**-1
   324a -> 335a  :     0.011755 (c= -0.10842178)
   324a -> 336a  :     0.033349 (c=  0.18261845)
   326a -> 335a  :     0.036967 (c=  0.19226716)
   326a -> 336a  :     0.019336 (c=  0.13905237)
   327a -> 335a  :     0.018232 (c= -0.13502491)
   327a -> 336a  :     0.210983 (c=  0.45932910)
   330a -> 339a  :     0.046063 (c= -0.21462365)
   330a -> 340a  :     0.045451 (c=  0.21319326)
   331a -> 339a  :     0.208384 (c=  0.45649079)
   331a -> 340a  :     0.121281 (c= -0.34825382)
   331a -> 341a  :     0.058940 (c= -0.24277656)
   332a -> 339a  :     0.032429 (c= -0.18008079)
   332a -> 340a  :     0.024372 (c=  0.15611431)
   332a -> 344a  :     0.013058 (c= -0.11427049)
   332a -> 346a  :     0.024904 (c=  0.15780942)


-----------------------------
TD-DFT/TDA-EXCITATION SPECTRA
-----------------------------

Center of mass = ( -6.4263,  2.1966, -0.1040)
Calculating the Dipole integrals                  ... done
Transforming integrals                            ... done
Calculating the Linear Momentum integrals         ... done
Transforming integrals                            ... done
Calculating angular momentum integrals            ... done
Transforming integrals                            ... done

-----------------------------------------------------------------------------
         ABSORPTION SPECTRUM VIA TRANSITION ELECTRIC DIPOLE MOMENTS
-----------------------------------------------------------------------------
State   Energy    Wavelength  fosc         T2        TX        TY        TZ  
        (cm-1)      (nm)                 (au**2)    (au)      (au)      (au) 
-----------------------------------------------------------------------------
   1   16195.4    617.5   1.481089062  30.10689  -5.42422   0.82446  -0.07084
   2   17838.8    560.6   0.049869946   0.92034  -0.71245   0.63322   0.10860
   3   19591.4    510.4   0.116500375   1.95766  -1.38284   0.21202  -0.02175
   4   19948.8    501.3   0.521413384   8.60478   2.87574   0.56945   0.10302
   5   22023.8    454.1   0.002918830   0.04363  -0.19988   0.05970   0.01067
   6   22413.7    446.2   0.008721670   0.12810   0.26740  -0.23744   0.01503
   7   23243.9    430.2   0.230717759   3.26773  -1.79835   0.16338  -0.08357
   8   24026.9    416.2   0.054938247   0.75275  -0.15571   0.81502   0.25347
   9   24497.8    408.2   0.017416064   0.23404   0.22989  -0.42528   0.01829
  10   24963.4    400.6   0.011849224   0.15627   0.31654   0.23510   0.02818
  11   25692.8    389.2   0.026426749   0.33862  -0.08385   0.56831   0.09280
  12   25892.3    386.2   0.009503064   0.12083   0.34589  -0.00033  -0.03447
  13   26028.4    384.2   0.168729754   2.13412  -1.23360   0.77121  -0.13262
  14   26561.8    376.5   0.151722678   1.88048   1.32042   0.37003   0.00712
  15   26779.4    373.4   0.070837677   0.87084   0.57896   0.72130   0.12399
  16   26832.6    372.7   0.082358443   1.01047  -0.02106   1.00132   0.08595
  17   26904.6    371.7   0.173410181   2.12189   0.05448   1.45224   0.09960
  18   27060.4    369.5   0.018761254   0.22825   0.08257  -0.47043   0.01125
  19   27495.0    363.7   0.015649416   0.18738   0.34838   0.25670   0.01085
  20   28236.8    354.1   0.243723043   2.84156  -0.73347  -1.51569  -0.07910
  21   28610.7    349.5   0.164435337   1.89209   1.17964   0.70160   0.09100
  22   28856.1    346.5   0.004354686   0.04968   0.18976  -0.09634  -0.06627
  23   29471.9    339.3   0.033798086   0.37754  -0.49467  -0.36431   0.01064
  24   29516.3    338.8   0.027445188   0.30611   0.52432   0.17460  -0.02681
  25   29607.9    337.7   0.004126467   0.04588  -0.21052  -0.03950  -0.00122
  26   29717.4    336.5   0.003049207   0.03378   0.04032   0.17623   0.03310
  27   29795.4    335.6   0.002386498   0.02637  -0.15056   0.00839  -0.06024
  28   29982.0    333.5   0.121318164   1.33211  -0.49835  -1.03921  -0.06166
  29   30067.0    332.6   0.096040233   1.05157   1.01718  -0.12667   0.02957
  30   30233.1    330.8   0.020797083   0.22646   0.29967   0.36681   0.04588
  31   30291.8    330.1   0.019604339   0.21306   0.43805   0.14520   0.00957
  32   30392.8    329.0   0.032825128   0.35556   0.47287   0.34996   0.09738
  33   30421.5    328.7   0.109597731   1.18603   0.69246   0.83986   0.03429
  34   30601.6    326.8   0.012983330   0.13967   0.30703   0.21302  -0.00539
  35   30852.3    324.1   0.089078127   0.95052   0.82085  -0.52271  -0.05909
  36   31133.3    321.2   0.060077422   0.63527   0.29446  -0.73638  -0.07943
  37   31417.0    318.3   0.027708293   0.29035  -0.51470  -0.14987   0.05449
  38   31591.0    316.5   0.001837769   0.01915   0.10796  -0.08613  -0.00880
  39   31677.3    315.7   0.000511903   0.00532   0.02578   0.06731   0.01119
  40   31877.1    313.7   0.017539794   0.18114   0.24902   0.33886   0.06561
  41   32153.5    311.0   0.011612533   0.11890   0.05169  -0.33477  -0.06447
  42   32213.6    310.4   0.015760903   0.16107   0.11981   0.38301   0.00465
  43   32378.3    308.8   0.081461668   0.82827  -0.52467  -0.74356   0.01060
  44   32593.0    306.8   0.005966332   0.06026   0.09522  -0.22623  -0.00405
  45   32684.7    306.0   0.177326681   1.78610  -0.00520  -1.33607  -0.03158
  46   32855.2    304.4   0.017042375   0.17077  -0.08395   0.40462  -0.00149
  47   32995.0    303.1   0.004451493   0.04442   0.08153   0.17721   0.07979
  48   33140.4    301.7   0.022133292   0.21987   0.40832   0.22696  -0.04047
  49   33210.9    301.1   0.000706211   0.00700  -0.06219   0.04876  -0.02748
  50   33680.7    296.9   0.018628213   0.18208  -0.20746  -0.36978  -0.04799

-----------------------------------------------------------------------------
         ABSORPTION SPECTRUM VIA TRANSITION VELOCITY DIPOLE MOMENTS
-----------------------------------------------------------------------------
State   Energy    Wavelength   fosc        P2         PX        PY        PZ  
        (cm-1)      (nm)                 (au**2)     (au)      (au)      (au) 
-----------------------------------------------------------------------------
   1   16195.4    617.5   0.254971545   0.02822   0.14085   0.09138  -0.00565
   2   17838.8    560.6   0.030519538   0.00372   0.05796   0.01857  -0.00409
   3   19591.4    510.4   0.030266758   0.00405   0.05670   0.02829  -0.00609
   4   19948.8    501.3   0.153238683   0.02089  -0.14032   0.03382  -0.00764
   5   22023.8    454.1   0.000905977   0.00014   0.00722  -0.00913   0.00099
   6   22413.7    446.2   0.005957692   0.00091   0.00899  -0.02847   0.00458
   7   23243.9    430.2   0.066133310   0.01051   0.10163   0.01323  -0.00116
   8   24026.9    416.2   0.014905101   0.00245   0.04594  -0.01360  -0.01232
   9   24497.8    408.2   0.003555201   0.00060   0.01087  -0.02124   0.00512
  10   24963.4    400.6   0.000564724   0.00010   0.00131  -0.00790   0.00568
  11   25692.8    389.2   0.002995668   0.00053   0.01784  -0.01433   0.00163
  12   25892.3    386.2   0.009669319   0.00171  -0.03135   0.02620  -0.00647
  13   26028.4    384.2   0.003541860   0.00063   0.00989   0.02304  -0.00122
  14   26561.8    376.5   0.075457503   0.01370  -0.10499  -0.05159   0.00375
  15   26779.4    373.4   0.026136358   0.00478  -0.04532  -0.04999  -0.01520
  16   26832.6    372.7   0.005738711   0.00105  -0.02669  -0.00222  -0.01831
  17   26904.6    371.7   0.005176501   0.00095  -0.02310  -0.01776  -0.01014
  18   27060.4    369.5   0.012781856   0.00236   0.00657   0.04816   0.00108
  19   27495.0    363.7   0.009270255   0.00174  -0.04054   0.00992  -0.00027
  20   28236.8    354.1   0.094738726   0.01828   0.11869   0.06388   0.01072
  21   28610.7    349.5   0.072006246   0.01408  -0.11787   0.00023  -0.01364
  22   28856.1    346.5   0.002642182   0.00052  -0.01448   0.01131  -0.01355
  23   29471.9    339.3   0.039409917   0.00794   0.08849   0.00990  -0.00309
  24   29516.3    338.8   0.026366221   0.00532  -0.07238   0.00820   0.00358
  25   29607.9    337.7   0.007348017   0.00149   0.03841  -0.00260  -0.00224
  26   29717.4    336.5   0.002302614   0.00047  -0.01006  -0.01853   0.00482
  27   29795.4    335.6   0.000813364   0.00017  -0.00153   0.01278   0.00019
  28   29982.0    333.5   0.042727926   0.00876   0.05399   0.07593   0.00870
  29   30067.0    332.6   0.069192847   0.01422  -0.11785   0.01277  -0.01294
  30   30233.1    330.8   0.005118291   0.00106  -0.02680  -0.01800  -0.00390
  31   30291.8    330.1   0.008670911   0.00180  -0.03255  -0.02587  -0.00815
  32   30392.8    329.0   0.011103468   0.00231  -0.03318  -0.03002   0.01744
  33   30421.5    328.7   0.063688878   0.01324  -0.09380  -0.06540  -0.01289
  34   30601.6    326.8   0.005733221   0.00120  -0.03059  -0.01623   0.00010
  35   30852.3    324.1   0.050052289   0.01055  -0.09616   0.03447  -0.01088
  36   31133.3    321.2   0.003243075   0.00069  -0.01275   0.02297  -0.00043
  37   31417.0    318.3   0.019880161   0.00427   0.06416  -0.01057   0.00640
  38   31591.0    316.5   0.000214930   0.00005   0.00115  -0.00125  -0.00660
  39   31677.3    315.7   0.002599877   0.00056  -0.01308  -0.01936   0.00414
  40   31877.1    313.7   0.011463187   0.00250   0.01331  -0.04779  -0.00601
  41   32153.5    311.0   0.004345126   0.00095   0.02012   0.02032   0.01172
  42   32213.6    310.4   0.006418023   0.00141  -0.02001  -0.03165  -0.00328
  43   32378.3    308.8   0.006617299   0.00146   0.02891   0.02434  -0.00600
  44   32593.0    306.8   0.002796538   0.00062  -0.02373   0.00604  -0.00485
  45   32684.7    306.0   0.010060235   0.00225   0.03232  -0.03320  -0.01003
  46   32855.2    304.4   0.018965339   0.00426   0.03721  -0.05312   0.00723
  47   32995.0    303.1   0.004458125   0.00101  -0.02701   0.01252   0.01092
  48   33140.4    301.7   0.016675256   0.00378  -0.05652   0.02394   0.00298
  49   33210.9    301.1   0.000995510   0.00023  -0.01163   0.00938  -0.00166
  50   33680.7    296.9   0.010183263   0.00234   0.03064   0.03598   0.01050

-------------------------------------------------------------------
                             CD SPECTRUM
-------------------------------------------------------------------
State  Energy     Wavelength     R         MX        MY        MZ   
       (cm-1)       (nm)     (1e40*cgs)   (au)      (au)      (au)  
-------------------------------------------------------------------
   1   16195.4    617.5     14.06927  -0.04043  -0.22704   0.03182
   2   17838.8    560.6    -17.66428  -0.01756  -0.06040  -0.10802
   3   19591.4    510.4     -5.04941  -0.00157  -0.08880  -0.27319
   4   19948.8    501.3     62.97033   0.03498   0.09122  -0.18412
   5   22023.8    454.1     -4.55303   0.02485  -0.00465  -0.41339
   6   22413.7    446.2     -2.06058  -0.01649   0.01462   0.23344
   7   23243.9    430.2     -9.99469   0.00609  -0.15401  -0.17849
   8   24026.9    416.2     -4.91015   0.00782  -0.02459   0.04277
   9   24497.8    408.2     -4.02230   0.00294   0.02787   0.14468
  10   24963.4    400.6     -6.49987  -0.00004  -0.04359  -0.12515
  11   25692.8    389.2      6.13884  -0.10985  -0.02184   0.17479
  12   25892.3    386.2     -0.59530   0.00155  -0.01744   0.05232
  13   26028.4    384.2     12.59133  -0.04034  -0.08140  -0.29951
  14   26561.8    376.5    -18.48201  -0.03563   0.02300  -0.09474
  15   26779.4    373.4     -8.71044  -0.03811  -0.02266   0.16074
  16   26832.6    372.7    -21.37046   0.00298  -0.04449  -0.00834
  17   26904.6    371.7    -76.47487   0.01385  -0.06301  -0.71741
  18   27060.4    369.5    -10.80286   0.05021   0.06662   0.38053
  19   27495.0    363.7     -3.77900   0.01318  -0.04008  -0.21383
  20   28236.8    354.1     -5.61629   0.06251  -0.05011   0.53126
  21   28610.7    349.5     -1.18577  -0.01953  -0.02730   0.43603
  22   28856.1    346.5     -4.09458   0.01403   0.12374  -0.00865
  23   29471.9    339.3     -2.83694   0.02864  -0.01723   0.17600
  24   29516.3    338.8    -19.92955  -0.06619  -0.01307   0.19716
  25   29607.9    337.7      8.07267  -0.07897  -0.01779   0.16747
  26   29717.4    336.5     -1.09874  -0.03353   0.01790  -0.12491
  27   29795.4    335.6      5.27125   0.02096   0.00668  -0.23706
  28   29982.0    333.5    -67.05267   0.08917   0.07394   0.33973
  29   30067.0    332.6      8.00712   0.00976   0.07831   0.57402
  30   30233.1    330.8     -3.37453  -0.02545  -0.01354   0.11849
  31   30291.8    330.1     -5.78637  -0.01767  -0.03813   0.10483
  32   30392.8    329.0     13.82889  -0.00477   0.07358   0.05997
  33   30421.5    328.7     -8.95239  -0.02458   0.01478  -0.41937
  34   30601.6    326.8     -0.36660   0.00561  -0.01709  -0.21141
  35   30852.3    324.1     10.82131   0.12244   0.12660   0.19250
  36   31133.3    321.2     17.87979   0.09819  -0.02461   0.11474
  37   31417.0    318.3    -11.12223   0.02758  -0.05031  -0.31082
  38   31591.0    316.5      0.56364   0.03113   0.02317   0.01928
  39   31677.3    315.7     -0.13163   0.01117  -0.01140   0.01789
  40   31877.1    313.7     -7.05940  -0.02604  -0.06050   0.18307
  41   32153.5    311.0     12.49097   0.05120  -0.02583  -0.23580
  42   32213.6    310.4     -8.35184  -0.04446  -0.03038  -0.16203
  43   32378.3    308.8    -32.93191   0.02172   0.08592   0.51249
  44   32593.0    306.8     -0.77812   0.02657   0.01569   0.15581
  45   32684.7    306.0    -12.55929   0.18617   0.02219  -0.12580
  46   32855.2    304.4    -25.57885  -0.02597  -0.14087  -0.37777
  47   32995.0    303.1      7.54767  -0.08954   0.03362   0.21746
  48   33140.4    301.7     10.32264  -0.00369   0.07767  -0.14270
  49   33210.9    301.1     -1.32110   0.06506  -0.03103  -0.10035
  50   33680.7    296.9     -3.46982   0.05901   0.00596  -0.14763

Total run time:    32494.632 sec

           *** ORCA-CIS/TD-DFT FINISHED WITHOUT ERROR ***

-----------------------
CIS/TD-DFT TOTAL ENERGY
-----------------------

    E(SCF)  =  -7706.208645133 Eh
    DE(CIS) =      0.073791543 Eh (Root  1)
    ----------------------------- ---------
    E(tot)  =  -7706.134853591 Eh


-------------------------   --------------------
FINAL SINGLE POINT ENERGY     -7706.134853590908
-------------------------   --------------------


                            ***************************************
                            *     ORCA property calculations      *
                            ***************************************

                                    ---------------------
                                    Active property flags
                                    ---------------------
   (+) Dipole Moment


------------------------------------------------------------------------------
                       ORCA ELECTRIC PROPERTIES CALCULATION
------------------------------------------------------------------------------

Dipole Moment Calculation                       ... on
Quadrupole Moment Calculation                   ... off
Polarizability Calculation                      ... off
GBWName                                         ... PTB7-Th_tetra.gbw
Electron density file                           ... PTB7-Th_tetra.scfp
The origin for moment calculation is the CENTER OF MASS  = (-6.426263,  2.196609 -0.103993)

-------------
DIPOLE MOMENT
-------------
                                X             Y             Z
Electronic contribution:      2.58574      -1.80942      15.91975
Nuclear contribution   :     -0.80373      -0.89314     -16.86612
                        -----------------------------------------
Total Dipole Moment    :      1.78200      -2.70256      -0.94636
                        -----------------------------------------
Magnitude (a.u.)       :      3.37268
Magnitude (Debye)      :      8.57267



--------------------
Rotational spectrum 
--------------------
 
Rotational constants in cm-1:     0.000969     0.000234     0.000192 
Rotational constants in MHz :    29.063409     7.006298     5.741188 

 Dipole components along the rotational axes: 
x,y,z [a.u.] :     1.478998     2.915359    -0.829586 
x,y,z [Debye]:     3.759313     7.410252    -2.108639 

 

Timings for individual modules:

Sum of individual times         ...    36179.043 sec (= 602.984 min)
GTO integral calculation        ...        9.498 sec (=   0.158 min)   0.0 %
SCF iterations                  ...     3674.105 sec (=  61.235 min)  10.2 %
CIS module                      ...    32495.440 sec (= 541.591 min)  89.8 %
                             ****ORCA TERMINATED NORMALLY****
TOTAL RUN TIME: 0 days 10 hours 3 minutes 1 seconds 529 msec
