
                                 *****************
                                 * O   R   C   A *
                                 *****************

           --- An Ab Initio, DFT and Semiempirical electronic structure package ---

                  #######################################################
                  #                        -***-                        #
                  #          Department of theory and spectroscopy      #
                  #               Directorship: Frank Neese             #
                  #        Max Planck Institute fuer Kohlenforschung    #
                  #                Kaiser Wilhelm Platz 1               #
                  #                 D-45470 Muelheim/Ruhr               #
                  #                      Germany                        #
                  #                                                     #
                  #                  All rights reserved                #
                  #                        -***-                        #
                  #######################################################


                         Program Version 4.2.0 -  RELEASE  -


 With contributions from (in alphabetic order):
   Daniel Aravena         : Magnetic Suceptibility
   Michael Atanasov       : Ab Initio Ligand Field Theory (pilot matlab implementation)
   Alexander A. Auer      : GIAO ZORA, VPT2
   Ute Becker             : Parallelization
   Giovanni Bistoni       : ED, misc. LED, open-shell LED, HFLED
   Martin Brehm           : Molecular dynamics
   Dmytro Bykov           : SCF Hessian
   Vijay G. Chilkuri      : MRCI spin determinant printing, contributions to CSF-ICE
   Dipayan Datta          : RHF DLPNO-CCSD density
   Achintya Kumar Dutta   : EOM-CC, STEOM-CC
   Dmitry Ganyushin       : Spin-Orbit,Spin-Spin,Magnetic field MRCI
   Miquel Garcia          : C-PCM Hessian, Gaussian charge scheme
   Yang Guo               : DLPNO-NEVPT2, CIM, IAO-localization
   Andreas Hansen         : Spin unrestricted coupled pair/coupled cluster methods
   Benjamin Helmich-Paris : CASSCF linear response (MC-RPA)
   Lee Huntington         : MR-EOM, pCC
   Robert Izsak           : Overlap fitted RIJCOSX, COSX-SCS-MP3, EOM
   Christian Kollmar      : KDIIS, OOCD, Brueckner-CCSD(T), CCSD density
   Simone Kossmann        : Meta GGA functionals, TD-DFT gradient, OOMP2, MP2 Hessian
   Martin Krupicka        : AUTO-CI
   Lucas Lang             : DCDCAS
   Dagmar Lenk            : GEPOL surface, SMD
   Dimitrios Liakos       : Extrapolation schemes; Compound Job, initial MDCI parallelization
   Dimitrios Manganas     : Further ROCIS development; embedding schemes
   Dimitrios Pantazis     : SARC Basis sets
   Taras Petrenko         : DFT Hessian,TD-DFT gradient, ASA, ECA, R-Raman, ABS, FL, XAS/XES, NRVS
   Peter Pinski           : DLPNO-MP2, DLPNO-MP2 Gradient
   Christoph Reimann      : Effective Core Potentials
   Marius Retegan         : Local ZFS, SOC
   Christoph Riplinger    : Optimizer, TS searches, QM/MM, DLPNO-CCSD(T), (RO)-DLPNO pert. Triples
   Tobias Risthaus        : Range-separated hybrids, TD-DFT gradient, RPA, STAB
   Michael Roemelt        : Original ROCIS implementation
   Masaaki Saitow         : Open-shell DLPNO-CCSD energy and density
   Barbara Sandhoefer     : DKH picture change effects
   Avijit Sen             : IP-ROCIS
   Kantharuban Sivalingam : CASSCF convergence, NEVPT2, FIC-MRCI
   Bernardo de Souza      : ESD, SOC TD-DFT
   Georgi Stoychev        : AutoAux, RI-MP2 NMR
   Willem Van den Heuvel  : Paramagnetic NMR
   Boris Wezisla          : Elementary symmetry handling
   Frank Wennmohs         : Technical directorship


 We gratefully acknowledge several colleagues who have allowed us to
 interface, adapt or use parts of their codes:
   Stefan Grimme, W. Hujo, H. Kruse,             : VdW corrections, initial TS optimization,
                  C. Bannwarth                     DFT functionals, gCP, sTDA/sTD-DF
   Ed Valeev, F. Pavosevic, A. Kumar             : LibInt (2-el integral package), F12 methods
   Garnet Chan, S. Sharma, J. Yang, R. Olivares  : DMRG
   Ulf Ekstrom                                   : XCFun DFT Library
   Mihaly Kallay                                 : mrcc  (arbitrary order and MRCC methods)
   Andreas Klamt, Michael Diedenhofen            : otool_cosmo (COSMO solvation model)
   Jiri Pittner, Ondrej Demel                    : Mk-CCSD
   Frank Weinhold                                : gennbo (NPA and NBO analysis)
   Christopher J. Cramer and Donald G. Truhlar   : smd solvation model
   Lars Goerigk                                  : TD-DFT with DH, B97 family of functionals
   V. Asgeirsson, H. Jonsson                     : NEB implementation
   FAccTs GmbH                                   : IRC, NEB, NEB-TS, Multilevel, MM, QM/MM, CI optimization
   S Lehtola, MJT Oliveira, MAL Marques          : LibXC Library


 Your calculation uses the libint2 library for the computation of 2-el integrals
 For citations please refer to: http://libint.valeyev.net

 Your ORCA version has been built with support for libXC version: 4.2.3
 For citations please refer to: https://tddft.org/programs/libxc/

 This ORCA versions uses:
   CBLAS   interface :  Fast vector & matrix operations
   LAPACKE interface :  Fast linear algebra routines
   SCALAPACK package :  Parallel linear algebra routines


XCFun DFT library Copyright 2009-2010 Ulf Ekstrom and contributors.
See http://admol.org/xcfun for more information. This is free soft-
ware; see the source code for copying conditions. There is ABSOLUTELY
NO WARRANTY; not even for MERCHANTABILITY or FITNESS FOR A PARTICULAR
PURPOSE. For details see the documentation. Scientific users of this 
library should cite U. Ekstrom, L. Visscher, R. Bast, A. J. Thorvald-
sen and K. Ruud; J.Chem.Theor.Comp. 2010, DOI: 10.1021/ct100117s
XCFun Version 0.99 
----- Orbital basis set information -----
Your calculation utilizes the basis: def2-SVP
   F. Weigend and R. Ahlrichs, Phys. Chem. Chem. Phys. 7, 3297 (2005).

----- AuxJ basis set information -----
Your calculation utilizes the auxiliary basis: def2/J
   F. Weigend, Phys. Chem. Chem. Phys. 8, 1057 (2006).

================================================================================
                                        WARNINGS
                       Please study these warnings very carefully!
================================================================================

INFO   : Checking CIS options ...

WARNING: CIS/ROCIS methods need fully converged wavefunctions
  ===> : Setting SCFConvForced true
         You can overwrite this default with %scf ConvForced false 


INFO   : the flag for use of LIBINT has been found!

================================================================================
                                       INPUT FILE
================================================================================
NAME = J71_olig.inp
|  1> # ORCA input file
|  2> # SCF done       -496.825885538873          0.000410875844
|  3> ! CAM-B3LYP def2-SVP def2/J RIJCOSX Grid4 TightSCF
|  4> %maxcore 5000
|  5> %tddft
|  6>     Mode sTDDFT
|  7>     Ethresh 5.0
|  8>     maxcore 5000
|  9> end
| 10> * xyz 0 1
| 11>    C        1.45903        -1.07123        -2.72010
| 12>    C        2.47063        -1.99381        -2.40900
| 13>    C        2.14425        -3.21006        -1.76837
| 14>    C        0.85359        -3.55256        -1.37359
| 15>    C       -0.15862        -2.62076        -1.67049
| 16>    C        0.16342        -1.42684        -2.35803
| 17>    C        3.86896        -1.89136        -2.66868
| 18>    C        4.58452        -2.95131        -2.23605
| 19>    S        3.57576        -4.16687        -1.48622
| 20>    C       -1.54380        -2.69696        -1.37080
| 21>    C       -2.25714        -1.61923        -1.79713
| 22>    S       -1.25172        -0.44392        -2.61973
| 23>    C        1.72325         0.21401        -3.33894
| 24>    C        0.59503        -4.80749        -0.69493
| 25>    C        1.13813        -6.03036        -0.98851
| 26>    C        0.71481        -7.04523        -0.11816
| 27>    C       -0.14817        -6.62923         0.86203
| 28>    S       -0.44748        -4.92491         0.68940
| 29>    C        1.00339         0.83290        -4.32478
| 30>    C        1.48113         2.11662        -4.63190
| 31>    C        2.56184         2.51316        -3.88936
| 32>    S        3.00560         1.24585        -2.78439
| 33>    C       -3.64938        -1.35542        -1.62208
| 34>    S       -4.58199        -2.22724        -0.44035
| 35>    C       -5.98899        -1.30360        -0.82196
| 36>    C       -5.74380        -0.39667        -1.81258
| 37>    C       -4.41540        -0.41831        -2.26474
| 38>    C       -7.26805        -1.45084        -0.05432
| 39>    C       -7.63434        -0.10641         0.60804
| 40>    C       -8.69669        -0.23244         1.65938
| 41>    C       -8.80415        -1.25920         2.53287
| 42>    C       -7.91846        -2.37190         2.23928
| 43>    C       -7.20320        -2.46887         1.02822
| 44>    N       -7.62140        -3.44879         2.96216
| 45>    N       -6.78264        -4.12783         2.21960
| 46>    N       -6.50528        -3.58994         1.05418
| 47>    F       -6.49041         0.40667         1.21619
| 48>    F       -9.49110         0.85915         1.75110
| 49>    C       -9.69242        -1.28549         3.66183
| 50>    C       -6.17816        -5.35312         2.65618
| 51>    C       -6.49635        -6.48771         1.69080
| 52>    C       -9.83726        -2.28494         4.59755
| 53>    C      -10.71603        -1.95159         5.63150
| 54>    C      -11.25707        -0.69309         5.49796
| 55>    S      -10.68208         0.08683         4.05876
| 56>   Si       -0.87555        -7.60605         2.26627
| 57>    C       -1.09540        -9.38857         1.68848
| 58>    C       -2.07617        -9.56187         0.52362
| 59>    C        0.31161        -7.53062         3.73267
| 60>    C        1.74447        -7.96046         3.39883
| 61>    C       -2.53702        -6.85204         2.74604
| 62>    C       -3.24843        -7.59028         3.88502
| 63>   Si        3.44187         4.15118        -3.84447
| 64>    C        3.15588         5.02788        -5.48917
| 65>    C        3.77197         4.32230        -6.70198
| 66>    C        2.72221         5.16333        -2.42176
| 67>    C        1.19507         5.29196        -2.45570
| 68>    C        5.27675         3.83519        -3.54665
| 69>    C        6.13126         5.10375        -3.45747
| 70>    C      -13.94179         3.07630         7.34473
| 71>    C      -13.33185         1.81052         7.25211
| 72>    C      -13.43650         0.88383         8.31804
| 73>    C      -14.12881         1.14922         9.49632
| 74>    C      -14.70509         2.43292         9.60782
| 75>    C      -14.61270         3.34734         8.53038
| 76>    C      -12.59275         1.28731         6.16714
| 77>    C      -12.11686         0.02683         6.37606
| 78>    S      -12.60342        -0.60423         7.93613
| 79>    C      -15.33092         3.01780        10.73709
| 80>    C      -15.71832         4.31176        10.54339
| 81>    S      -15.35107         4.87393         8.92372
| 82>    C      -13.84870         4.06637         6.29160
| 83>    C      -14.25361         0.15654        10.54264
| 84>    C      -13.32380        -0.75875        10.96152
| 85>    C      -13.80147        -1.60454        11.97388
| 86>    C      -15.10228        -1.37595        12.33924
| 87>    S      -15.74545        -0.05866        11.40916
| 88>    C      -14.82254         4.92694         5.85755
| 89>    C      -14.38425         5.78293         4.83530
| 90>    C      -13.07351         5.61160         4.47525
| 91>    S      -12.36496         4.35047         5.43427
| 92>    C      -16.30599         5.21570        11.47091
| 93>    S      -16.57344         4.78629        13.12992
| 94>    C      -17.16501         6.38499        13.48741
| 95>    C      -17.16245         7.17539        12.35570
| 96>    C      -16.68061         6.52036        11.22698
| 97>    C      -17.54181         6.80290        14.80249
| 98>    C      -17.54828         5.98115        15.92393
| 99>    C      -17.85139         6.41545        17.22257
|100>    C      -18.18501         7.72747        17.53219
|101>    C      -18.22240         8.57631        16.40073
|102>    C      -17.90821         8.14430        15.08175
|103>    N      -18.50763         9.88122        16.34001
|104>    N      -18.36565        10.18739        15.08230
|105>    N      -18.01481         9.21816        14.28422
|106>    F      -17.22844         4.67815        15.78717
|107>    F      -17.78946         5.48361        18.19431
|108>    C      -18.42173         8.25708        18.84127
|109>    C      -18.56111        11.52852        14.61032
|110>    C      -17.61194        12.48209        15.32554
|111>    C      -18.32626         7.64790        20.07524
|112>    C      -18.55381         8.51950        21.14074
|113>    C      -18.83944         9.80557        20.73932
|114>    S      -18.82524         9.94159        19.00716
|115>   Si      -16.14194        -2.17336        13.66141
|116>    C      -15.40987        -3.86863        14.04345
|117>    C      -15.47290        -4.86471        12.88038
|118>    C      -16.10044        -1.06375        15.18781
|119>    C      -14.68832        -0.73665        15.68740
|120>    C      -17.90475        -2.31779        13.00871
|121>    C      -18.89527        -2.95607        13.98789
|122>   Si      -12.03189         6.48143         3.20144
|123>    C      -13.18174         7.22376         1.90419
|124>    C      -13.98732         6.19179         1.10754
|125>    C      -11.04522         7.83903         4.06700
|126>    C      -11.90531         8.82231         4.86911
|127>    C      -10.87516         5.19562         2.45356
|128>    C       -9.95083         5.72251         1.35132
|129>    C        6.04914        -3.17682        -2.33626
|130>    C      -19.92212        14.51577        22.02877
|131>    C      -19.53057        13.16544        22.13408
|132>    C      -19.17172        12.62540        23.39450
|133>    C      -19.16812        13.36111        24.57430
|134>    C      -19.51938        14.72216        24.46314
|135>    C      -19.89360        15.25768        23.20667
|136>    C      -19.46488        12.19119        21.11023
|137>    C      -19.07058        10.95822        21.54136
|138>    S      -18.77794        10.93016        23.26761
|139>    C      -19.49515        15.71247        25.47482
|140>    C      -19.84034        16.95833        25.03393
|141>    S      -20.22890        16.96319        23.32811
|142>    C      -20.33491        15.12687        20.78211
|143>    C      -18.82190        12.74969        25.84092
|144>    C      -17.84659        11.82172        26.09290
|145>    C      -17.81095        11.40789        27.43312
|146>    C      -18.76020        11.98678        28.23442
|147>    S      -19.71488        13.09242        27.29115
|148>    C      -21.31002        16.07588        20.61293
|149>    C      -21.44390        16.50397        19.28464
|150>    C      -20.57926        15.90712        18.40568
|151>    S      -19.57180        14.77625        19.26060
|152>    C      -19.90529        18.16785        25.78401
|153>    S      -20.30207        19.66854        25.01434
|154>    C      -20.15160        20.52990        26.51642
|155>    C      -19.81386        19.67035        27.54255
|156>    C      -19.67592        18.34620        27.13334
|157>    C      -20.35321        21.94373        26.61539
|158>    C      -20.69373        22.76224        25.54599
|159>    C      -20.87909        24.14946        25.63686
|160>    C      -20.74186        24.86667        26.81683
|161>    C      -20.40058        24.05564        27.92527
|162>    C      -20.21073        22.64584        27.83878
|163>    N      -20.19884        24.40984        29.19949
|164>    N      -19.91405        23.29338        29.80645
|165>    N      -19.90042        22.21631        29.07071
|166>    F      -20.86154        22.21856        24.32350
|167>    F      -21.20230        24.77886        24.48921
|168>    C      -20.90858        26.28411        26.95681
|169>    C      -19.58731        23.26102        31.20315
|170>    C      -18.17543        23.79275        31.42738
|171>    C      -21.26431        27.22428        26.02026
|172>    C      -21.31910        28.52736        26.53929
|173>    C      -21.00712        28.59812        27.86551
|174>    S      -20.63809        27.03337        28.50822
|175>   Si      -19.08899        11.78624        30.05516
|176>    C      -20.86790        11.21970        30.33542
|177>    C      -21.93867        12.26453        30.00215
|178>    C      -17.88860        10.50343        30.73711
|179>    C      -18.19522         9.05975        30.32653
|180>    C      -18.79408        13.46710        30.86527
|181>    C      -19.05055        13.50469        32.37541
|182>   Si      -20.37702        16.12534        16.57050
|183>    C      -21.41528        17.59218        16.00281
|184>    C      -22.92251        17.32613        15.92062
|185>    C      -18.54708        16.42694        16.22119
|186>    C      -17.99451        17.69851        16.87508
|187>    C      -20.93581        14.52935        15.72747
|188>    C      -20.80877        14.53641        14.20026
|189>    C      -20.95250        29.80598        28.72970
|190>    H        4.31439        -1.04927        -3.16631
|191>    H       -2.00545        -3.52112        -0.85837
|192>    H        1.79496        -6.19803        -1.82324
|193>    H        1.03520        -8.06811        -0.20653
|194>    H        0.17525         0.36769        -4.82908
|195>    H        1.03840         2.74507        -5.38408
|196>    H       -6.48971         0.27366        -2.20220
|197>    H       -4.02792         0.22905        -3.03118
|198>    H       -8.08477        -1.71517        -0.74312
|199>    H       -7.92834         0.64193        -0.13618
|200>    H       -6.56829        -5.55417         3.65518
|201>    H       -5.09577        -5.20252         2.70757
|202>    H       -7.56703        -6.67354         1.65587
|203>    H       -5.99329        -7.39544         2.01079
|204>    H       -6.15331        -6.22402         0.69393
|205>    H       -9.29979        -3.21255         4.53052
|206>    H      -10.94718        -2.59636         6.46090
|207>    H       -1.43516       -10.01387         2.51814
|208>    H       -0.13314        -9.80769         1.38451
|209>    H       -3.07235        -9.23444         0.81033
|210>    H       -2.13490       -10.60440         0.21750
|211>    H       -1.75821        -8.97002        -0.33125
|212>    H       -0.04761        -8.15936         4.55147
|213>    H        0.34923        -6.51340         4.13258
|214>    H        1.76457        -8.99404         3.06242
|215>    H        2.38871        -7.87296         4.27108
|216>    H        2.15270        -7.33767         2.60641
|217>    H       -3.20453        -6.82433         1.88063
|218>    H       -2.39894        -5.80919         3.04449
|219>    H       -3.45336        -8.61992         3.60208
|220>    H       -4.19206        -7.11138         4.13833
|221>    H       -2.62586        -7.60247         4.77577
|222>    H        3.55778         6.04335        -5.44499
|223>    H        2.08516         5.14686        -5.67307
|224>    H        4.85265         4.26359        -6.60071
|225>    H        3.54457         4.85967        -7.62054
|226>    H        3.38481         3.31013        -6.79085
|227>    H        3.14688         6.17051        -2.41151
|228>    H        3.00107         4.71274        -1.46498
|229>    H        0.87395         5.79748        -3.36300
|230>    H        0.83493         5.86139        -1.60158
|231>    H        0.73030         4.30908        -2.43290
|232>    H        5.68712         3.20253        -4.33838
|233>    H        5.41006         3.26744        -2.62151
|234>    H        6.05878         5.67886        -4.37734
|235>    H        7.17779         4.85634        -3.29159
|236>    H        5.79551         5.73229        -2.63662
|237>    H      -12.40564         1.82031         5.25332
|238>    H      -15.46656         2.51773        11.67872
|239>    H      -12.31863        -0.79655        10.58163
|240>    H      -13.20204        -2.37160        12.43107
|241>    H      -15.82969         4.91657         6.23470
|242>    H      -15.01915         6.51362         4.36633
|243>    H      -17.49439         8.19616        12.37398
|244>    H      -16.59290         6.97332        10.25525
|245>    H      -19.59686        11.81732        14.80731
|246>    H      -18.38344        11.51408        13.53403
|247>    H      -17.78229        12.43364        16.39806
|248>    H      -17.78490        13.49869        14.98631
|249>    H      -16.57807        12.21419        15.12184
|250>    H      -18.08784         6.60859        20.20418
|251>    H      -18.51015         8.23009        22.17601
|252>    H      -15.92389        -4.31173        14.90023
|253>    H      -14.36547        -3.77002        14.35013
|254>    H      -16.50517        -5.06166        12.60258
|255>    H      -15.00734        -5.80978        13.15321
|256>    H      -14.95835        -4.46663        12.00910
|257>    H      -16.65297        -1.52151        16.01232
|258>    H      -16.60969        -0.11896        14.97736
|259>    H      -14.16858        -1.64331        15.98736
|260>    H      -14.72712        -0.06496        16.54195
|261>    H      -14.10892        -0.25785        14.90141
|262>    H      -17.92010        -2.89723        12.08148
|263>    H      -18.28188        -1.32732        12.73904
|264>    H      -18.57964        -3.96326        14.24919
|265>    H      -19.89023        -3.01304        13.55093
|266>    H      -18.95748        -2.37123        14.90201
|267>    H      -12.60599         7.82683         1.19747
|268>    H      -13.88585         7.91638         2.37229
|269>    H      -13.32224         5.53186         0.55673
|270>    H      -14.64934         6.68122         0.39582
|271>    H      -14.59087         5.58217         1.77565
|272>    H      -10.46061         8.41200         3.34281
|273>    H      -10.31716         7.39218         4.74989
|274>    H      -12.59574         9.34810         4.21432
|275>    H      -11.28401         9.55966         5.37308
|276>    H      -12.48690         8.29245         5.61999
|277>    H      -11.45007         4.36047         2.04399
|278>    H      -10.25235         4.75657         3.23804
|279>    H      -10.53105         6.11943         0.52163
|280>    H       -9.31271         4.92685         0.97337
|281>    H       -9.31515         6.51767         1.73284
|282>    H        6.52266        -2.33576        -2.83662
|283>    H        6.25853        -4.08768        -2.89666
|284>    H        6.48575        -3.29023        -1.34426
|285>    H      -19.70219        12.37994        20.07967
|286>    H      -19.20914        15.51496        26.49049
|287>    H      -17.15375        11.47689        25.34652
|288>    H      -17.09673        10.69700        27.80815
|289>    H      -21.93799        16.42767        21.41134
|290>    H      -22.16032        17.24464        18.97819
|291>    H      -19.67616        20.01527        28.55023
|292>    H      -19.41921        17.54008        27.79611
|293>    H      -19.67294        22.22340        31.52933
|294>    H      -20.31185        23.88334        31.73315
|295>    H      -17.45045        23.17475        30.90320
|296>    H      -17.94122        23.78467        32.48783
|297>    H      -18.10312        24.81216        31.05694
|298>    H      -21.48187        26.99183        24.99488
|299>    H      -21.58163        29.38722        25.94840
|300>    H      -21.00413        10.91518        31.37737
|301>    H      -21.07414        10.32666        29.73826
|302>    H      -21.82232        13.14755        30.62517
|303>    H      -22.93572        11.86043        30.16502
|304>    H      -21.86079        12.57288        28.96242
|305>    H      -17.88136        10.54499        31.82872
|306>    H      -16.86690        10.73936        30.42925
|307>    H      -19.15940         8.75023        30.72118
|308>    H      -17.43668         8.37902        30.70786
|309>    H      -18.22798         8.96580        29.24409
|310>    H      -19.42940        14.22072        30.39145
|311>    H      -17.76628        13.79721        30.68786
|312>    H      -20.07539        13.21891        32.59807
|313>    H      -18.88080        14.50344        32.77264
|314>    H      -18.38661        12.81610        32.89192
|315>    H      -21.07910        17.92448        15.01703
|316>    H      -21.25698        18.44449        16.66855
|317>    H      -23.13571        16.55079        15.18945
|318>    H      -23.45773        18.22696        15.62711
|319>    H      -23.30949        16.99600        16.88108
|320>    H      -18.35766        16.49065        15.14636
|321>    H      -17.95596        15.58044        16.58225
|322>    H      -18.50838        18.57799        16.49580
|323>    H      -16.93158        17.80840        16.67135
|324>    H      -18.13444        17.66221        17.95265
|325>    H      -21.97965        14.32370        15.97918
|326>    H      -20.36877        13.68180        16.12204
|327>    H      -21.37835        15.35883        13.77551
|328>    H      -21.18385        13.60928        13.77073
|329>    H      -19.77107        14.65716        13.89970
|330>    H      -21.33432        30.66938        28.19026
|331>    H      -19.92657        30.01162        29.03562
|332>    H      -21.54451        29.66075        29.63200
|333> *
|334> 
|335>                          ****END OF INPUT****
================================================================================

                       ****************************
                       * Single Point Calculation *
                       ****************************

---------------------------------
CARTESIAN COORDINATES (ANGSTROEM)
---------------------------------
  C      1.459030   -1.071230   -2.720100
  C      2.470630   -1.993810   -2.409000
  C      2.144250   -3.210060   -1.768370
  C      0.853590   -3.552560   -1.373590
  C     -0.158620   -2.620760   -1.670490
  C      0.163420   -1.426840   -2.358030
  C      3.868960   -1.891360   -2.668680
  C      4.584520   -2.951310   -2.236050
  S      3.575760   -4.166870   -1.486220
  C     -1.543800   -2.696960   -1.370800
  C     -2.257140   -1.619230   -1.797130
  S     -1.251720   -0.443920   -2.619730
  C      1.723250    0.214010   -3.338940
  C      0.595030   -4.807490   -0.694930
  C      1.138130   -6.030360   -0.988510
  C      0.714810   -7.045230   -0.118160
  C     -0.148170   -6.629230    0.862030
  S     -0.447480   -4.924910    0.689400
  C      1.003390    0.832900   -4.324780
  C      1.481130    2.116620   -4.631900
  C      2.561840    2.513160   -3.889360
  S      3.005600    1.245850   -2.784390
  C     -3.649380   -1.355420   -1.622080
  S     -4.581990   -2.227240   -0.440350
  C     -5.988990   -1.303600   -0.821960
  C     -5.743800   -0.396670   -1.812580
  C     -4.415400   -0.418310   -2.264740
  C     -7.268050   -1.450840   -0.054320
  C     -7.634340   -0.106410    0.608040
  C     -8.696690   -0.232440    1.659380
  C     -8.804150   -1.259200    2.532870
  C     -7.918460   -2.371900    2.239280
  C     -7.203200   -2.468870    1.028220
  N     -7.621400   -3.448790    2.962160
  N     -6.782640   -4.127830    2.219600
  N     -6.505280   -3.589940    1.054180
  F     -6.490410    0.406670    1.216190
  F     -9.491100    0.859150    1.751100
  C     -9.692420   -1.285490    3.661830
  C     -6.178160   -5.353120    2.656180
  C     -6.496350   -6.487710    1.690800
  C     -9.837260   -2.284940    4.597550
  C    -10.716030   -1.951590    5.631500
  C    -11.257070   -0.693090    5.497960
  S    -10.682080    0.086830    4.058760
  Si    -0.875550   -7.606050    2.266270
  C     -1.095400   -9.388570    1.688480
  C     -2.076170   -9.561870    0.523620
  C      0.311610   -7.530620    3.732670
  C      1.744470   -7.960460    3.398830
  C     -2.537020   -6.852040    2.746040
  C     -3.248430   -7.590280    3.885020
  Si     3.441870    4.151180   -3.844470
  C      3.155880    5.027880   -5.489170
  C      3.771970    4.322300   -6.701980
  C      2.722210    5.163330   -2.421760
  C      1.195070    5.291960   -2.455700
  C      5.276750    3.835190   -3.546650
  C      6.131260    5.103750   -3.457470
  C    -13.941790    3.076300    7.344730
  C    -13.331850    1.810520    7.252110
  C    -13.436500    0.883830    8.318040
  C    -14.128810    1.149220    9.496320
  C    -14.705090    2.432920    9.607820
  C    -14.612700    3.347340    8.530380
  C    -12.592750    1.287310    6.167140
  C    -12.116860    0.026830    6.376060
  S    -12.603420   -0.604230    7.936130
  C    -15.330920    3.017800   10.737090
  C    -15.718320    4.311760   10.543390
  S    -15.351070    4.873930    8.923720
  C    -13.848700    4.066370    6.291600
  C    -14.253610    0.156540   10.542640
  C    -13.323800   -0.758750   10.961520
  C    -13.801470   -1.604540   11.973880
  C    -15.102280   -1.375950   12.339240
  S    -15.745450   -0.058660   11.409160
  C    -14.822540    4.926940    5.857550
  C    -14.384250    5.782930    4.835300
  C    -13.073510    5.611600    4.475250
  S    -12.364960    4.350470    5.434270
  C    -16.305990    5.215700   11.470910
  S    -16.573440    4.786290   13.129920
  C    -17.165010    6.384990   13.487410
  C    -17.162450    7.175390   12.355700
  C    -16.680610    6.520360   11.226980
  C    -17.541810    6.802900   14.802490
  C    -17.548280    5.981150   15.923930
  C    -17.851390    6.415450   17.222570
  C    -18.185010    7.727470   17.532190
  C    -18.222400    8.576310   16.400730
  C    -17.908210    8.144300   15.081750
  N    -18.507630    9.881220   16.340010
  N    -18.365650   10.187390   15.082300
  N    -18.014810    9.218160   14.284220
  F    -17.228440    4.678150   15.787170
  F    -17.789460    5.483610   18.194310
  C    -18.421730    8.257080   18.841270
  C    -18.561110   11.528520   14.610320
  C    -17.611940   12.482090   15.325540
  C    -18.326260    7.647900   20.075240
  C    -18.553810    8.519500   21.140740
  C    -18.839440    9.805570   20.739320
  S    -18.825240    9.941590   19.007160
  Si   -16.141940   -2.173360   13.661410
  C    -15.409870   -3.868630   14.043450
  C    -15.472900   -4.864710   12.880380
  C    -16.100440   -1.063750   15.187810
  C    -14.688320   -0.736650   15.687400
  C    -17.904750   -2.317790   13.008710
  C    -18.895270   -2.956070   13.987890
  Si   -12.031890    6.481430    3.201440
  C    -13.181740    7.223760    1.904190
  C    -13.987320    6.191790    1.107540
  C    -11.045220    7.839030    4.067000
  C    -11.905310    8.822310    4.869110
  C    -10.875160    5.195620    2.453560
  C     -9.950830    5.722510    1.351320
  C      6.049140   -3.176820   -2.336260
  C    -19.922120   14.515770   22.028770
  C    -19.530570   13.165440   22.134080
  C    -19.171720   12.625400   23.394500
  C    -19.168120   13.361110   24.574300
  C    -19.519380   14.722160   24.463140
  C    -19.893600   15.257680   23.206670
  C    -19.464880   12.191190   21.110230
  C    -19.070580   10.958220   21.541360
  S    -18.777940   10.930160   23.267610
  C    -19.495150   15.712470   25.474820
  C    -19.840340   16.958330   25.033930
  S    -20.228900   16.963190   23.328110
  C    -20.334910   15.126870   20.782110
  C    -18.821900   12.749690   25.840920
  C    -17.846590   11.821720   26.092900
  C    -17.810950   11.407890   27.433120
  C    -18.760200   11.986780   28.234420
  S    -19.714880   13.092420   27.291150
  C    -21.310020   16.075880   20.612930
  C    -21.443900   16.503970   19.284640
  C    -20.579260   15.907120   18.405680
  S    -19.571800   14.776250   19.260600
  C    -19.905290   18.167850   25.784010
  S    -20.302070   19.668540   25.014340
  C    -20.151600   20.529900   26.516420
  C    -19.813860   19.670350   27.542550
  C    -19.675920   18.346200   27.133340
  C    -20.353210   21.943730   26.615390
  C    -20.693730   22.762240   25.545990
  C    -20.879090   24.149460   25.636860
  C    -20.741860   24.866670   26.816830
  C    -20.400580   24.055640   27.925270
  C    -20.210730   22.645840   27.838780
  N    -20.198840   24.409840   29.199490
  N    -19.914050   23.293380   29.806450
  N    -19.900420   22.216310   29.070710
  F    -20.861540   22.218560   24.323500
  F    -21.202300   24.778860   24.489210
  C    -20.908580   26.284110   26.956810
  C    -19.587310   23.261020   31.203150
  C    -18.175430   23.792750   31.427380
  C    -21.264310   27.224280   26.020260
  C    -21.319100   28.527360   26.539290
  C    -21.007120   28.598120   27.865510
  S    -20.638090   27.033370   28.508220
  Si   -19.088990   11.786240   30.055160
  C    -20.867900   11.219700   30.335420
  C    -21.938670   12.264530   30.002150
  C    -17.888600   10.503430   30.737110
  C    -18.195220    9.059750   30.326530
  C    -18.794080   13.467100   30.865270
  C    -19.050550   13.504690   32.375410
  Si   -20.377020   16.125340   16.570500
  C    -21.415280   17.592180   16.002810
  C    -22.922510   17.326130   15.920620
  C    -18.547080   16.426940   16.221190
  C    -17.994510   17.698510   16.875080
  C    -20.935810   14.529350   15.727470
  C    -20.808770   14.536410   14.200260
  C    -20.952500   29.805980   28.729700
  H      4.314390   -1.049270   -3.166310
  H     -2.005450   -3.521120   -0.858370
  H      1.794960   -6.198030   -1.823240
  H      1.035200   -8.068110   -0.206530
  H      0.175250    0.367690   -4.829080
  H      1.038400    2.745070   -5.384080
  H     -6.489710    0.273660   -2.202200
  H     -4.027920    0.229050   -3.031180
  H     -8.084770   -1.715170   -0.743120
  H     -7.928340    0.641930   -0.136180
  H     -6.568290   -5.554170    3.655180
  H     -5.095770   -5.202520    2.707570
  H     -7.567030   -6.673540    1.655870
  H     -5.993290   -7.395440    2.010790
  H     -6.153310   -6.224020    0.693930
  H     -9.299790   -3.212550    4.530520
  H    -10.947180   -2.596360    6.460900
  H     -1.435160  -10.013870    2.518140
  H     -0.133140   -9.807690    1.384510
  H     -3.072350   -9.234440    0.810330
  H     -2.134900  -10.604400    0.217500
  H     -1.758210   -8.970020   -0.331250
  H     -0.047610   -8.159360    4.551470
  H      0.349230   -6.513400    4.132580
  H      1.764570   -8.994040    3.062420
  H      2.388710   -7.872960    4.271080
  H      2.152700   -7.337670    2.606410
  H     -3.204530   -6.824330    1.880630
  H     -2.398940   -5.809190    3.044490
  H     -3.453360   -8.619920    3.602080
  H     -4.192060   -7.111380    4.138330
  H     -2.625860   -7.602470    4.775770
  H      3.557780    6.043350   -5.444990
  H      2.085160    5.146860   -5.673070
  H      4.852650    4.263590   -6.600710
  H      3.544570    4.859670   -7.620540
  H      3.384810    3.310130   -6.790850
  H      3.146880    6.170510   -2.411510
  H      3.001070    4.712740   -1.464980
  H      0.873950    5.797480   -3.363000
  H      0.834930    5.861390   -1.601580
  H      0.730300    4.309080   -2.432900
  H      5.687120    3.202530   -4.338380
  H      5.410060    3.267440   -2.621510
  H      6.058780    5.678860   -4.377340
  H      7.177790    4.856340   -3.291590
  H      5.795510    5.732290   -2.636620
  H    -12.405640    1.820310    5.253320
  H    -15.466560    2.517730   11.678720
  H    -12.318630   -0.796550   10.581630
  H    -13.202040   -2.371600   12.431070
  H    -15.829690    4.916570    6.234700
  H    -15.019150    6.513620    4.366330
  H    -17.494390    8.196160   12.373980
  H    -16.592900    6.973320   10.255250
  H    -19.596860   11.817320   14.807310
  H    -18.383440   11.514080   13.534030
  H    -17.782290   12.433640   16.398060
  H    -17.784900   13.498690   14.986310
  H    -16.578070   12.214190   15.121840
  H    -18.087840    6.608590   20.204180
  H    -18.510150    8.230090   22.176010
  H    -15.923890   -4.311730   14.900230
  H    -14.365470   -3.770020   14.350130
  H    -16.505170   -5.061660   12.602580
  H    -15.007340   -5.809780   13.153210
  H    -14.958350   -4.466630   12.009100
  H    -16.652970   -1.521510   16.012320
  H    -16.609690   -0.118960   14.977360
  H    -14.168580   -1.643310   15.987360
  H    -14.727120   -0.064960   16.541950
  H    -14.108920   -0.257850   14.901410
  H    -17.920100   -2.897230   12.081480
  H    -18.281880   -1.327320   12.739040
  H    -18.579640   -3.963260   14.249190
  H    -19.890230   -3.013040   13.550930
  H    -18.957480   -2.371230   14.902010
  H    -12.605990    7.826830    1.197470
  H    -13.885850    7.916380    2.372290
  H    -13.322240    5.531860    0.556730
  H    -14.649340    6.681220    0.395820
  H    -14.590870    5.582170    1.775650
  H    -10.460610    8.412000    3.342810
  H    -10.317160    7.392180    4.749890
  H    -12.595740    9.348100    4.214320
  H    -11.284010    9.559660    5.373080
  H    -12.486900    8.292450    5.619990
  H    -11.450070    4.360470    2.043990
  H    -10.252350    4.756570    3.238040
  H    -10.531050    6.119430    0.521630
  H     -9.312710    4.926850    0.973370
  H     -9.315150    6.517670    1.732840
  H      6.522660   -2.335760   -2.836620
  H      6.258530   -4.087680   -2.896660
  H      6.485750   -3.290230   -1.344260
  H    -19.702190   12.379940   20.079670
  H    -19.209140   15.514960   26.490490
  H    -17.153750   11.476890   25.346520
  H    -17.096730   10.697000   27.808150
  H    -21.937990   16.427670   21.411340
  H    -22.160320   17.244640   18.978190
  H    -19.676160   20.015270   28.550230
  H    -19.419210   17.540080   27.796110
  H    -19.672940   22.223400   31.529330
  H    -20.311850   23.883340   31.733150
  H    -17.450450   23.174750   30.903200
  H    -17.941220   23.784670   32.487830
  H    -18.103120   24.812160   31.056940
  H    -21.481870   26.991830   24.994880
  H    -21.581630   29.387220   25.948400
  H    -21.004130   10.915180   31.377370
  H    -21.074140   10.326660   29.738260
  H    -21.822320   13.147550   30.625170
  H    -22.935720   11.860430   30.165020
  H    -21.860790   12.572880   28.962420
  H    -17.881360   10.544990   31.828720
  H    -16.866900   10.739360   30.429250
  H    -19.159400    8.750230   30.721180
  H    -17.436680    8.379020   30.707860
  H    -18.227980    8.965800   29.244090
  H    -19.429400   14.220720   30.391450
  H    -17.766280   13.797210   30.687860
  H    -20.075390   13.218910   32.598070
  H    -18.880800   14.503440   32.772640
  H    -18.386610   12.816100   32.891920
  H    -21.079100   17.924480   15.017030
  H    -21.256980   18.444490   16.668550
  H    -23.135710   16.550790   15.189450
  H    -23.457730   18.226960   15.627110
  H    -23.309490   16.996000   16.881080
  H    -18.357660   16.490650   15.146360
  H    -17.955960   15.580440   16.582250
  H    -18.508380   18.577990   16.495800
  H    -16.931580   17.808400   16.671350
  H    -18.134440   17.662210   17.952650
  H    -21.979650   14.323700   15.979180
  H    -20.368770   13.681800   16.122040
  H    -21.378350   15.358830   13.775510
  H    -21.183850   13.609280   13.770730
  H    -19.771070   14.657160   13.899700
  H    -21.334320   30.669380   28.190260
  H    -19.926570   30.011620   29.035620
  H    -21.544510   29.660750   29.632000

----------------------------
CARTESIAN COORDINATES (A.U.)
----------------------------
  NO LB      ZA    FRAG     MASS         X           Y           Z
   0 C     6.0000    0    12.011    2.757167   -2.024331   -5.140244
   1 C     6.0000    0    12.011    4.668814   -3.767755   -4.552350
   2 C     6.0000    0    12.011    4.052045   -6.066134   -3.341735
   3 C     6.0000    0    12.011    1.613051   -6.713365   -2.595709
   4 C     6.0000    0    12.011   -0.299748   -4.952519   -3.156769
   5 C     6.0000    0    12.011    0.308819   -2.696337   -4.456031
   6 C     6.0000    0    12.011    7.311275   -3.574152   -5.043074
   7 C     6.0000    0    12.011    8.663487   -5.577168   -4.225522
   8 S    16.0000    0    32.060    6.757207   -7.874243   -2.808549
   9 C     6.0000    0    12.011   -2.917359   -5.096516   -2.590437
  10 C     6.0000    0    12.011   -4.265376   -3.059901   -3.396084
  11 S    16.0000    0    32.060   -2.365408   -0.838887   -4.950572
  12 C     6.0000    0    12.011    3.256471    0.404420   -6.309682
  13 C     6.0000    0    12.011    1.124444   -9.084839   -1.313227
  14 C     6.0000    0    12.011    2.150754  -11.395729   -1.868013
  15 C     6.0000    0    12.011    1.350795  -13.313555   -0.223290
  16 C     6.0000    0    12.011   -0.280001  -12.527429    1.629001
  17 S    16.0000    0    32.060   -0.845615   -9.306731    1.302777
  18 C     6.0000    0    12.011    1.896132    1.573953   -8.172650
  19 C     6.0000    0    12.011    2.798930    3.999832   -8.753022
  20 C     6.0000    0    12.011    4.841176    4.749184   -7.349825
  21 S    16.0000    0    32.060    5.679761    2.354315   -5.261735
  22 C     6.0000    0    12.011   -6.896329   -2.561373   -3.065287
  23 S    16.0000    0    32.060   -8.658706   -4.208874   -0.832141
  24 C     6.0000    0    12.011  -11.317551   -2.463447   -1.553279
  25 C     6.0000    0    12.011  -10.854209   -0.749598   -3.425280
  26 C     6.0000    0    12.011   -8.343897   -0.790491   -4.279738
  27 C     6.0000    0    12.011  -13.734624   -2.741690   -0.102650
  28 C     6.0000    0    12.011  -14.426812   -0.201086    1.149029
  29 C     6.0000    0    12.011  -16.434362   -0.439248    3.135774
  30 C     6.0000    0    12.011  -16.637432   -2.379543    4.786431
  31 C     6.0000    0    12.011  -14.963721   -4.482241    4.231626
  32 C     6.0000    0    12.011  -13.612075   -4.665488    1.943054
  33 N     7.0000    0    14.007  -14.402359   -6.517269    5.597671
  34 N     7.0000    0    14.007  -12.817332   -7.800468    4.194436
  35 N     7.0000    0    14.007  -12.293198   -6.784003    1.992111
  36 F     9.0000    0    18.998  -12.265097    0.768495    2.298266
  37 F     9.0000    0    18.998  -17.935580    1.623558    3.309099
  38 C     6.0000    0    12.011  -18.316019   -2.429224    6.919856
  39 C     6.0000    0    12.011  -11.675030  -10.115931    5.019453
  40 C     6.0000    0    12.011  -12.276322  -12.259995    3.195149
  41 C     6.0000    0    12.011  -18.589727   -4.317911    8.688110
  42 C     6.0000    0    12.011  -20.250362   -3.687971   10.641993
  43 C     6.0000    0    12.011  -21.272779   -1.309750   10.389639
  44 S    16.0000    0    32.060  -20.186206    0.164085    7.669945
  45 Si   14.0000    0    28.086   -1.654550  -14.373351    4.282630
  46 C     6.0000    0    12.011   -2.070006  -17.741826    3.190765
  47 C     6.0000    0    12.011   -3.923393  -18.069316    0.989498
  48 C     6.0000    0    12.011    0.588858  -14.230809    7.053724
  49 C     6.0000    0    12.011    3.296571  -15.043089    6.422858
  50 C     6.0000    0    12.011   -4.794273  -12.948479    5.189264
  51 C     6.0000    0    12.011   -6.138643  -14.343550    7.341624
  52 Si   14.0000    0    28.086    6.504192    7.844593   -7.264995
  53 C     6.0000    0    12.011    5.963749    9.501316  -10.373028
  54 C     6.0000    0    12.011    7.127990    8.167963  -12.664907
  55 C     6.0000    0    12.011    5.144231    9.757280   -4.576463
  56 C     6.0000    0    12.011    2.258355   10.000355   -4.640600
  57 C     6.0000    0    12.011    9.971612    7.247459   -6.702197
  58 C     6.0000    0    12.011   11.586402    9.644690   -6.533671
  59 C     6.0000    0    12.011  -26.346165    5.813365   13.879528
  60 C     6.0000    0    12.011  -25.193545    3.421387   13.704502
  61 C     6.0000    0    12.011  -25.391305    1.670197   15.718818
  62 C     6.0000    0    12.011  -26.699581    2.171711   17.945444
  63 C     6.0000    0    12.011  -27.788593    4.597553   18.156149
  64 C     6.0000    0    12.011  -27.614001    6.325556   16.120082
  65 C     6.0000    0    12.011  -23.796849    2.432663   11.654206
  66 C     6.0000    0    12.011  -22.897547    0.050701   12.049007
  67 S    16.0000    0    32.060  -23.817012   -1.141829   14.997112
  68 C     6.0000    0    12.011  -28.971240    5.702816   20.290160
  69 C     6.0000    0    12.011  -29.703320    8.148046   19.924120
  70 S    16.0000    0    32.060  -29.009318    9.210393   16.863387
  71 C     6.0000    0    12.011  -26.170250    7.684326   11.889401
  72 C     6.0000    0    12.011  -26.935419    0.295818   19.922702
  73 C     6.0000    0    12.011  -25.178333   -1.433830   20.714271
  74 C     6.0000    0    12.011  -26.080999   -3.032141   22.627354
  75 C     6.0000    0    12.011  -28.539173   -2.600169   23.317784
  76 S    16.0000    0    32.060  -29.754588   -0.110851   21.560188
  77 C     6.0000    0    12.011  -28.010541    9.310567   11.069165
  78 C     6.0000    0    12.011  -27.182293   10.928154    9.137393
  79 C     6.0000    0    12.011  -24.705354   10.604387    8.456997
  80 S    16.0000    0    32.060  -23.366388    8.221197   10.269282
  81 C     6.0000    0    12.011  -30.813855    9.856245   21.676878
  82 S    16.0000    0    32.060  -31.319263    9.044777   24.811953
  83 C     6.0000    0    12.011  -32.437168   12.065882   25.487511
  84 C     6.0000    0    12.011  -32.432330   13.559522   23.348889
  85 C     6.0000    0    12.011  -31.521785   12.321695   21.215918
  86 C     6.0000    0    12.011  -33.149217   12.855618   27.972652
  87 C     6.0000    0    12.011  -33.161443   11.302735   30.091867
  88 C     6.0000    0    12.011  -33.734238   12.123444   32.545941
  89 C     6.0000    0    12.011  -34.364689   14.602802   33.131038
  90 C     6.0000    0    12.011  -34.435346   16.206877   30.992888
  91 C     6.0000    0    12.011  -33.841612   15.390497   28.500377
  92 N     7.0000    0    14.007  -34.974352   18.672800   30.878144
  93 N     7.0000    0    14.007  -34.706049   19.251377   28.501416
  94 N     7.0000    0    14.007  -34.043057   17.419798   26.993264
  95 F     9.0000    0    18.998  -32.557033    8.840422   29.833428
  96 F     9.0000    0    18.998  -33.617207   10.362521   34.382263
  97 C     6.0000    0    12.011  -34.812025   15.603620   35.604840
  98 C     6.0000    0    12.011  -35.075415   21.785746   27.609504
  99 C     6.0000    0    12.011  -33.281743   23.587732   28.961073
 100 C     6.0000    0    12.011  -34.631612   14.452436   37.936706
 101 C     6.0000    0    12.011  -35.061620   16.099522   39.950209
 102 C     6.0000    0    12.011  -35.601382   18.529842   39.191635
 103 S    16.0000    0    32.060  -35.574548   18.786882   35.918327
 104 Si   14.0000    0    28.086  -30.503846   -4.107055   25.816324
 105 C     6.0000    0    12.011  -29.120434   -7.310651   26.538274
 106 C     6.0000    0    12.011  -29.239543   -9.192970   24.340391
 107 C     6.0000    0    12.011  -30.425422   -2.010196   28.700801
 108 C     6.0000    0    12.011  -27.756902   -1.392067   29.644890
 109 C     6.0000    0    12.011  -33.835074   -4.379988   24.582899
 110 C     6.0000    0    12.011  -35.706886   -5.586163   26.433281
 111 Si   14.0000    0    28.086  -22.736977   12.248128    6.049845
 112 C     6.0000    0    12.011  -24.909879   13.650928    3.598398
 113 C     6.0000    0    12.011  -26.432204   11.700787    2.092947
 114 C     6.0000    0    12.011  -20.872441   14.813620    7.685516
 115 C     6.0000    0    12.011  -22.497775   16.671750    9.201284
 116 C     6.0000    0    12.011  -20.551074    9.818299    4.636556
 117 C     6.0000    0    12.011  -18.804344   10.813977    2.553625
 118 C     6.0000    0    12.011   11.431218   -6.003320   -4.414892
 119 C     6.0000    0    12.011  -37.647351   27.430830   41.628342
 120 C     6.0000    0    12.011  -36.907429   24.879076   41.827349
 121 C     6.0000    0    12.011  -36.229300   23.858548   44.209198
 122 C     6.0000    0    12.011  -36.222497   25.248839   46.438697
 123 C     6.0000    0    12.011  -36.886283   27.820850   46.228635
 124 C     6.0000    0    12.011  -37.593456   28.832837   43.854251
 125 C     6.0000    0    12.011  -36.783292   23.038010   39.892553
 126 C     6.0000    0    12.011  -36.038173   20.708035   40.707271
 127 S    16.0000    0    32.060  -35.485164   20.655009   43.969411
 128 C     6.0000    0    12.011  -36.840494   29.692265   48.140433
 129 C     6.0000    0    12.011  -37.492809   32.046599   47.307272
 130 S    16.0000    0    32.060  -38.227081   32.055783   44.083739
 131 C     6.0000    0    12.011  -38.427411   28.585642   39.272496
 132 C     6.0000    0    12.011  -35.568236   24.093422   48.832262
 133 C     6.0000    0    12.011  -33.725168   22.339813   49.308435
 134 C     6.0000    0    12.011  -33.657818   21.557788   51.841084
 135 C     6.0000    0    12.011  -35.451640   22.651731   53.355321
 136 S    16.0000    0    32.060  -37.255724   24.741088   51.572799
 137 C     6.0000    0    12.011  -40.270102   30.379011   38.952793
 138 C     6.0000    0    12.011  -40.523098   31.187983   36.442688
 139 C     6.0000    0    12.011  -38.889165   30.060100   34.781695
 140 S    16.0000    0    32.060  -36.985342   27.923066   36.397259
 141 C     6.0000    0    12.011  -37.615547   34.332261   48.724718
 142 S    16.0000    0    32.060  -38.365352   37.168154   47.270252
 143 C     6.0000    0    12.011  -38.081005   38.795889   50.108772
 144 C     6.0000    0    12.011  -37.442769   37.171574   52.047877
 145 C     6.0000    0    12.011  -37.182100   34.669294   51.274582
 146 C     6.0000    0    12.011  -38.461993   41.467640   50.295798
 147 C     6.0000    0    12.011  -39.105482   43.014400   48.274925
 148 C     6.0000    0    12.011  -39.455762   45.635866   48.446644
 149 C     6.0000    0    12.011  -39.196435   46.991196   50.676464
 150 C     6.0000    0    12.011  -38.551509   45.458572   52.771113
 151 C     6.0000    0    12.011  -38.192745   42.794436   52.607670
 152 N     7.0000    0    14.007  -38.170276   46.127913   55.179039
 153 N     7.0000    0    14.007  -37.632101   44.018109   56.326028
 154 N     7.0000    0    14.007  -37.606344   41.982742   54.935680
 155 F     9.0000    0    18.998  -39.422597   41.986993   45.964754
 156 F     9.0000    0    18.998  -40.066540   46.825259   46.277900
 157 C     6.0000    0    12.011  -39.511490   49.669770   50.940988
 158 C     6.0000    0    12.011  -37.014652   43.956957   58.965408
 159 C     6.0000    0    12.011  -34.346585   44.961781   59.389141
 160 C     6.0000    0    12.011  -40.183722   51.446433   49.171165
 161 C     6.0000    0    12.011  -40.287260   53.908898   50.151990
 162 C     6.0000    0    12.011  -39.697704   54.042615   52.658182
 163 S    16.0000    0    32.060  -39.000338   51.085666   53.872728
 164 Si   14.0000    0    28.086  -36.072963   22.272766   56.796021
 165 C     6.0000    0    12.011  -39.434616   21.202160   57.325636
 166 C     6.0000    0    12.011  -41.458078   23.176603   56.695847
 167 C     6.0000    0    12.011  -33.804555   19.848606   58.084720
 168 C     6.0000    0    12.011  -34.383983   17.120446   57.308836
 169 C     6.0000    0    12.011  -35.515664   25.449131   58.326907
 170 C     6.0000    0    12.011  -36.000322   25.520166   61.180658
 171 Si   14.0000    0    28.086  -38.506987   30.472476   31.313707
 172 C     6.0000    0    12.011  -40.469014   33.244402   30.240928
 173 C     6.0000    0    12.011  -43.317266   32.741641   30.085612
 174 C     6.0000    0    12.011  -35.048902   31.042418   30.653607
 175 C     6.0000    0    12.011  -34.004696   33.445337   31.889280
 176 C     6.0000    0    12.011  -39.562947   27.456492   29.720611
 177 C     6.0000    0    12.011  -39.322876   27.469834   26.834602
 178 C     6.0000    0    12.011  -39.594487   56.325139   54.291265
 179 H     1.0000    0     1.008    8.153016   -1.982833   -5.983459
 180 H     1.0000    0     1.008   -3.789751   -6.653952   -1.622084
 181 H     1.0000    0     1.008    3.391983  -11.712579   -3.445424
 182 H     1.0000    0     1.008    1.956244  -15.246518   -0.390285
 183 H     1.0000    0     1.008    0.331175    0.694833   -9.125639
 184 H     1.0000    0     1.008    1.962292    5.187431  -10.174437
 185 H     1.0000    0     1.008  -12.263775    0.517142   -4.161555
 186 H     1.0000    0     1.008   -7.611666    0.432842   -5.728100
 187 H     1.0000    0     1.008  -15.278001   -3.241202   -1.404293
 188 H     1.0000    0     1.008  -14.982391    1.213072   -0.257343
 189 H     1.0000    0     1.008  -12.412269  -10.495860    6.907289
 190 H     1.0000    0     1.008   -9.629610   -9.831338    5.116566
 191 H     1.0000    0     1.008  -14.299614  -12.611163    3.129141
 192 H     1.0000    0     1.008  -11.325677  -13.975356    3.799842
 193 H     1.0000    0     1.008  -11.628071  -11.761693    1.311338
 194 H     1.0000    0     1.008  -17.574056   -6.070840    8.561442
 195 H     1.0000    0     1.008  -20.687172   -4.906409   12.209332
 196 H     1.0000    0     1.008   -2.712059  -18.923472    4.758595
 197 H     1.0000    0     1.008   -0.251598  -18.533848    2.616345
 198 H     1.0000    0     1.008   -5.805900  -17.450563    1.531302
 199 H     1.0000    0     1.008   -4.034376  -20.039412    0.411015
 200 H     1.0000    0     1.008   -3.322535  -16.950881   -0.625972
 201 H     1.0000    0     1.008   -0.089970  -15.418956    8.601032
 202 H     1.0000    0     1.008    0.659949  -12.308542    7.809444
 203 H     1.0000    0     1.008    3.334554  -16.996272    5.787135
 204 H     1.0000    0     1.008    4.514008  -14.877738    8.071171
 205 H     1.0000    0     1.008    4.068013  -13.866187    4.925401
 206 H     1.0000    0     1.008   -6.055684  -12.896115    3.553876
 207 H     1.0000    0     1.008   -4.533340  -10.977778    5.753252
 208 H     1.0000    0     1.008   -6.525905  -16.289288    6.806945
 209 H     1.0000    0     1.008   -7.921845  -13.438561    7.820310
 210 H     1.0000    0     1.008   -4.962156  -14.366586    9.024897
 211 H     1.0000    0     1.008    6.723230   11.420276  -10.289540
 212 H     1.0000    0     1.008    3.940381    9.726156  -10.720549
 213 H     1.0000    0     1.008    9.170180    8.057017  -12.473534
 214 H     1.0000    0     1.008    6.698267    9.183445  -14.400734
 215 H     1.0000    0     1.008    6.396364    6.255239  -12.832847
 216 H     1.0000    0     1.008    5.946741   11.660574   -4.557093
 217 H     1.0000    0     1.008    5.671200    8.905788   -2.768411
 218 H     1.0000    0     1.008    1.651526   10.955649   -6.355149
 219 H     1.0000    0     1.008    1.577789   11.076422   -3.026548
 220 H     1.0000    0     1.008    1.380067    8.142981   -4.597515
 221 H     1.0000    0     1.008   10.747099    6.051905   -8.198350
 222 H     1.0000    0     1.008   10.223532    6.174567   -4.953936
 223 H     1.0000    0     1.008   11.449435   10.731490   -8.271974
 224 H     1.0000    0     1.008   13.564057    9.177153   -6.220204
 225 H     1.0000    0     1.008   10.951927   10.832458   -4.982490
 226 H     1.0000    0     1.008  -23.443262    3.439887    9.927336
 227 H     1.0000    0     1.008  -29.227563    4.757820   22.069582
 228 H     1.0000    0     1.008  -23.278837   -1.505261   19.996383
 229 H     1.0000    0     1.008  -24.948240   -4.481674   23.491318
 230 H     1.0000    0     1.008  -29.913779    9.290971   11.781876
 231 H     1.0000    0     1.008  -28.382080   12.308958    8.251168
 232 H     1.0000    0     1.008  -33.059606   15.488498   23.383433
 233 H     1.0000    0     1.008  -31.356037   13.177665   19.379614
 234 H     1.0000    0     1.008  -37.032698   22.331498   27.981761
 235 H     1.0000    0     1.008  -34.739667   21.758458   25.575610
 236 H     1.0000    0     1.008  -33.603658   23.496174   30.987843
 237 H     1.0000    0     1.008  -33.608590   25.508827   28.320022
 238 H     1.0000    0     1.008  -31.328012   23.081474   28.576136
 239 H     1.0000    0     1.008  -34.181064   12.488425   38.180367
 240 H     1.0000    0     1.008  -34.979114   15.552616   41.906586
 241 H     1.0000    0     1.008  -30.091791   -8.147989   28.157354
 242 H     1.0000    0     1.008  -27.146804   -7.124305   27.117816
 243 H     1.0000    0     1.008  -31.190251   -9.565151   23.815425
 244 H     1.0000    0     1.008  -28.359763  -10.978893   24.855965
 245 H     1.0000    0     1.008  -28.267185   -8.440707   22.693910
 246 H     1.0000    0     1.008  -31.469553   -2.875237   30.258900
 247 H     1.0000    0     1.008  -31.387765   -0.224802   28.303109
 248 H     1.0000    0     1.008  -26.774736   -3.105406   30.211732
 249 H     1.0000    0     1.008  -27.830224   -0.122757   31.259755
 250 H     1.0000    0     1.008  -26.661995   -0.487266   28.159584
 251 H     1.0000    0     1.008  -33.864081   -5.474971   22.830688
 252 H     1.0000    0     1.008  -34.547746   -2.508271   24.073297
 253 H     1.0000    0     1.008  -35.110431   -7.489476   26.927067
 254 H     1.0000    0     1.008  -37.587087   -5.693820   25.607547
 255 H     1.0000    0     1.008  -35.824445   -4.480975   28.160718
 256 H     1.0000    0     1.008  -23.821869   14.790565    2.262890
 257 H     1.0000    0     1.008  -26.240454   14.959790    4.482978
 258 H     1.0000    0     1.008  -25.175385   10.453700    1.052067
 259 H     1.0000    0     1.008  -27.683241   12.625676    0.747991
 260 H     1.0000    0     1.008  -27.572748   10.548773    3.355492
 261 H     1.0000    0     1.008  -19.767688   15.896376    6.316995
 262 H     1.0000    0     1.008  -19.496607   13.969196    8.975991
 263 H     1.0000    0     1.008  -23.802499   17.665349    7.963911
 264 H     1.0000    0     1.008  -21.323689   18.065139   10.153650
 265 H     1.0000    0     1.008  -23.596821   15.670459   10.620242
 266 H     1.0000    0     1.008  -21.637497    8.240094    3.862581
 267 H     1.0000    0     1.008  -19.374134    8.988615    6.119009
 268 H     1.0000    0     1.008  -19.900800   11.564047    0.985738
 269 H     1.0000    0     1.008  -17.598471    9.310397    1.839403
 270 H     1.0000    0     1.008  -17.603082   12.316611    3.274593
 271 H     1.0000    0     1.008   12.326041   -4.413947   -5.360435
 272 H     1.0000    0     1.008   11.826908   -7.724596   -5.473894
 273 H     1.0000    0     1.008   12.256291   -6.217634   -2.540283
 274 H     1.0000    0     1.008  -37.231743   23.394696   37.945077
 275 H     1.0000    0     1.008  -36.300014   29.319025   50.059771
 276 H     1.0000    0     1.008  -32.415890   21.688179   47.897981
 277 H     1.0000    0     1.008  -32.308137   20.214400   52.549788
 278 H     1.0000    0     1.008  -41.456793   31.043797   40.461569
 279 H     1.0000    0     1.008  -41.876936   32.587647   35.863582
 280 H     1.0000    0     1.008  -37.182554   37.823379   53.952116
 281 H     1.0000    0     1.008  -36.696989   33.145948   52.527035
 282 H     1.0000    0     1.008  -37.176469   41.996140   59.581799
 283 H     1.0000    0     1.008  -38.383834   45.132972   59.966963
 284 H     1.0000    0     1.008  -32.976571   43.793931   58.398585
 285 H     1.0000    0     1.008  -33.903992   44.946512   61.393101
 286 H     1.0000    0     1.008  -34.209939   46.888187   58.689111
 287 H     1.0000    0     1.008  -40.594851   51.007167   47.233478
 288 H     1.0000    0     1.008  -40.783370   55.533798   49.035370
 289 H     1.0000    0     1.008  -39.692053   20.626701   59.294636
 290 H     1.0000    0     1.008  -39.824353   19.514559   56.197167
 291 H     1.0000    0     1.008  -41.238208   24.845269   57.873184
 292 H     1.0000    0     1.008  -43.342229   22.412965   57.003627
 293 H     1.0000    0     1.008  -41.310906   23.759300   54.731042
 294 H     1.0000    0     1.008  -33.790873   19.927143   60.147564
 295 H     1.0000    0     1.008  -31.873822   20.294449   57.502949
 296 H     1.0000    0     1.008  -36.206019   16.535538   58.054617
 297 H     1.0000    0     1.008  -32.950550   15.834053   58.029446
 298 H     1.0000    0     1.008  -34.445890   16.942907   55.263321
 299 H     1.0000    0     1.008  -36.716245   26.873266   57.431517
 300 H     1.0000    0     1.008  -33.573404   26.072948   57.991651
 301 H     1.0000    0     1.008  -37.936989   24.980120   61.601425
 302 H     1.0000    0     1.008  -35.679541   27.407530   61.931314
 303 H     1.0000    0     1.008  -34.745657   24.218919   62.156721
 304 H     1.0000    0     1.008  -39.833726   33.872358   28.378074
 305 H     1.0000    0     1.008  -40.169871   34.855035   31.498995
 306 H     1.0000    0     1.008  -43.720156   31.276460   28.703901
 307 H     1.0000    0     1.008  -44.328685   34.443963   29.530958
 308 H     1.0000    0     1.008  -44.048552   32.117785   31.900618
 309 H     1.0000    0     1.008  -34.690950   31.162812   28.622472
 310 H     1.0000    0     1.008  -33.931847   29.442765   31.335911
 311 H     1.0000    0     1.008  -34.975769   35.107313   31.172544
 312 H     1.0000    0     1.008  -31.996049   33.652999   31.504286
 313 H     1.0000    0     1.008  -34.269125   33.376740   33.925592
 314 H     1.0000    0     1.008  -41.535519   27.067870   30.196274
 315 H     1.0000    0     1.008  -38.491397   25.854855   30.466240
 316 H     1.0000    0     1.008  -40.399227   29.023982   26.031941
 317 H     1.0000    0     1.008  -40.031675   25.717812   26.022908
 318 H     1.0000    0     1.008  -37.361908   27.698018   26.266626
 319 H     1.0000    0     1.008  -40.316022   57.956729   53.271871
 320 H     1.0000    0     1.008  -37.655760   56.713743   54.869370
 321 H     1.0000    0     1.008  -40.713224   56.050694   55.996365

--------------------------------
INTERNAL COORDINATES (ANGSTROEM)
--------------------------------
 C      0   0   0     0.000000000000     0.00000000     0.00000000
 C      1   0   0     1.404019809832     0.00000000     0.00000000
 C      2   1   0     1.412867567679   119.97915351     0.00000000
 C      3   2   1     1.392465702989   123.66972798   357.88789470
 C      4   3   2     1.407469336824   116.35587408     1.28779848
 C      1   2   3     1.391459100764   116.44142885     0.33224997
 C      2   1   3     1.425923032215   128.24288677   179.29935857
 C      7   2   1     1.350069936337   113.89073564   179.64445585
 S      3   2   1     1.744796514984   110.84624966   180.39472093
 C      5   4   3     1.419275931065   128.44814301   181.05603611
 C     10   5   4     1.360923648630   113.75967944   179.88410977
 S      6   1   2     1.742767866355   124.94989666   179.24131949
 C      1   2   3     1.450729820332   123.05445387   178.02880237
 C      4   3   2     1.449924816706   120.72234109   181.29525136
 C     14   4   3     1.369875126900   126.98615708   318.71818729
 C     15  14   4     1.402380141688   113.16221802   178.20494668
 C     16  15  14     1.370606769464   114.47223715   359.55809725
 S     14   4   3     1.736946776790   122.58735072   136.31017876
 C     13   1   2     1.368613808677   127.74078188   139.21638425
 C     19  13   1     1.403743295763   113.08688721   175.77027008
 C     20  19  13     1.369869967296   114.49552126   359.53486704
 S     13   1   2     1.736848010219   121.64061648   314.31107555
 C     11  10   5     1.427785150574   128.24481270   182.27191869
 S     23  11  10     1.739631373999   120.89301051    16.40961089
 C     24  23  11     1.725800116381    91.06829202   177.53165977
 C     25  24  23     1.365272187295   111.68776588     0.77779826
 C     23  11  10     1.370391793649   127.87325698   194.05022017
 C     25  24  23     1.498981411092   121.99558665   185.03791981
 C     28  25  24     1.542848391320   109.68438263   118.94938567
 C     29  28  25     1.499928957984   113.31883019   194.20325877
 C     30  29  28     1.352319684579   124.94707556    38.11845165
 C     31  30  29     1.452151216024   113.74836577   350.50617595
 C     32  31  30     1.409846222856   122.39830123   349.02671224
 N     32  31  30     1.330598440590   130.27595793   169.80640507
 N     34  32  31     1.309965271601   104.74493032   179.48038861
 N     35  34  32     1.313186200849   115.21274917   359.57483276
 F     29  28  25     1.393439397247   108.25965718   313.78405206
 F     30  29  28     1.353169809965   113.29923026   212.05323781
 C     31  30  29     1.436755176987   124.78969542   170.20785444
 C     35  34  32     1.434340876814   122.69167812   177.93925467
 C     40  35  34     1.523318052345   110.81411375   122.23944927
 C     39  31  30     1.376753734878   127.76178576   181.05528349
 C     42  39  31     1.397287206662   113.32215501   175.23687846
 C     43  42  39     1.376364582224   113.17657179     0.13390875
 S     44  43  42     1.734988572441   111.17623316     0.61064231
 Si    17  16  15     1.858803097264   128.84007048   183.66344489
 C     46  17  16     1.886677730032   108.10394114   327.91830723
 C     47  46  17     1.532593064874   114.46708209   297.02093280
 C     46  17  16     1.888218078110   108.64285896    87.76139646
 C     49  46  17     1.532742428068   114.04141090   306.37629862
 C     46  17  16     1.886582331599   109.06918063   207.53333067
 C     51  46  17     1.532441818178   113.91081015   179.03471603
 Si    21  20  19     1.859993933700   129.88677618   185.34145434
 C     53  21  20     1.885585124066   108.46035181   335.24144034
 C     54  53  21     1.532422304915   114.53638844   295.08731671
 C     53  21  20     1.888507845417   108.05159480    95.04472825
 C     56  53  21     1.532923409731   114.07477224   307.16334596
 C     53  21  20     1.885558550377   108.46025753   214.23018644
 C     58  53  21     1.532117778142   114.40466397   181.13383437
 C     44  43  42     4.982628009735   150.17715856   188.49748869
 C     60  44  43     1.408120831605    20.31359596   355.94245535
 C     61  60  44     1.416302490113   120.44108534   177.10669507
 C     62  61  60     1.392145375527   123.29903564     0.04190770
 C     63  62  61     1.411529871593   116.31185909   358.03797471
 C     60  44  43     1.389010018754   136.40658049     1.03406022
 C     61  60  44     1.413215275533   127.57783403   356.17206380
 C     66  61  60     1.363425351422   114.02761976   179.66689470
 S     62  61  60     1.747626990550   110.94244000   179.51049088
 C     64  63  62     1.417391454821   128.20487049   187.46243293
 C     69  64  63     1.364525899937   113.80111658   176.34484998
 S     65  60  44     1.740799712948   124.67115869   173.73100668
 C     60  44  43     1.448443008855   102.29755390   177.66156386
 C     63  62  61     1.447678888704   121.59267156   177.70469071
 C     73  63  62     1.370314881551   128.34894947    37.34317765
 C     74  73  63     1.402997549036   113.09258194   182.16496715
 C     75  74  73     1.370345932165   114.51993729     0.94856742
 S     76  75  74     1.736078742281   109.59740350   359.35116780
 C     72  60  44     1.370162206821   127.87692803   142.26576542
 C     78  72  60     1.403499934699   113.06921397   178.47518795
 C     79  78  72     1.370047195902   114.45059852   359.29912311
 S     80  79  78     1.735572337818   109.64750449     0.00000000
 C     70  69  64     1.422236584714   128.86171123   183.53052871
 S     82  70  69     1.734426888254   122.01615893     2.82667867
 C     83  82  70     1.741722094652    91.22907037   176.60075556
 C     84  83  82     1.380400752572   110.89558650     0.94217490
 C     82  70  69     1.379122802690   126.73761274   179.93027070
 C     84  83  82     1.430406380893   123.11652763   183.31656649
 C     87  84  83     1.390303059408   124.75883806   356.56187318
 C     88  87  84     1.402482802640   124.39310085   176.48820879
 C     89  88  87     1.388727233549   123.43052445     0.17095180
 C     90  89  88     1.414966108887   113.25552231     1.53508989
 C     87  84  83     1.418304998088   121.69473221   174.38314424
 N     91  90  89     1.337098791937   128.85924724   179.84995328
 N     93  91  90     1.302203069187   104.48097714   178.23297189
 N     94  93  91     1.303620797970   116.47587588     0.12625654
 F     88  87  84     1.348632612389   119.21967407   357.41641030
 F     89  88  87     1.347753589533   116.33303933   180.94644049
 C     90  89  88     1.431856681690   126.37000779   184.25911917
 C     94  93  91     1.435130450133   121.50052740   181.30156338
 C     99  94  93     1.523731958778   110.21911882    58.43039121
 C     98  90  89     1.379455238201   130.01951661     3.12255603
 C    101  98  90     1.395261915376   113.32601583   176.06093581
 C    102 101  98     1.377206795728   113.24010389     0.58673802
 S    103 102 101     1.737550386608   111.22166617   359.94853136
 Si    76  75  74     1.861421266828   130.39910788   182.91813757
 C    105  76  75     1.885688579644   108.19190049   337.17176147
 C    106 105  76     1.532605615349   114.49286329   295.12534160
 C    105  76  75     1.887552267382   108.07648656    97.27668442
 C    108 105  76     1.533188661744   114.15277893   305.30669555
 C    105  76  75     1.885305389320   108.00797556   216.50711452
 C    110 105  76     1.532098136935   114.52930906   180.16358383
 Si    80  79  78     1.861227651149   131.05866662   180.15950694
 C    112  80  79     1.885753540074   108.27228933   336.72379531
 C    113 112  80     1.532505282144   114.39665462   296.25983217
 C    112  80  79     1.888329834139   108.34286078    96.64457319
 C    115 112  80     1.532962758387   114.06834710   305.28915043
 C    112  80  79     1.884318482476   107.23425456   216.04169636
 C    117 112  80     1.531969986194   114.91424232   178.71775517
 C      8   7   2     1.485263797647   128.33320764   180.11219788
 C    103 102 101     5.002085697477   148.11251910   180.70821183
 C    120 103 102     1.409891026817    19.48600297    10.44912370
 C    121 120 103     1.417418463440   120.10838165   180.26358006
 C    122 121 120     1.390399296641   123.61434201   359.45655152
 C    123 122 121     1.410034480323   116.30916309   358.61638594
 C    120 103 102     1.392369293147   135.67513163    12.26837024
 C    121 120 103     1.414831106917   128.19573769   358.58530815
 C    126 121 120     1.364390188986   114.01797386   181.27415864
 S    122 121 120     1.744993529530   111.26047624   178.16347465
 C    124 123 122     1.415908687522   127.91760073   185.39275247
 C    129 124 123     1.365908952969   113.76524626   177.26425757
 S    125 120 103     1.742394365148   125.21037717   175.16150089
 C    120 103 102     1.448447427317   103.71516826   191.63804818
 C    123 122 121     1.448457430924   121.28333893   178.55296657
 C    133 123 122     1.369617405482   128.10434279    39.21915450
 C    134 133 123     1.403109093015   113.18194708   181.99528778
 C    135 134 133     1.370500231521   114.60108464     0.86372195
 S    133 123 122     1.737251906374   121.59055047   222.18818885
 C    132 120 103     1.371160590376   126.93242432   144.39687370
 C    138 132 120     1.401976899453   113.33759655   177.90282583
 C    139 138 132     1.369818576929   114.49511364   359.67350285
 S    132 120 103     1.737890657262   122.90638114   321.63571266
 C    130 129 124     1.424702473957   128.01958617   180.58241281
 S    142 130 129     1.732598266593   120.78988823   177.28154078
 C    143 142 130     1.738052529960    91.46187823   180.53505399
 C    144 143 142     1.380520657940   110.79277811   359.85365569
 C    142 130 129     1.380257500722   128.08340295   357.72096529
 C    144 143 142     1.431557516099   122.48018368   179.45462452
 C    147 144 143     1.389074818179   124.28093566     0.49594651
 C    148 147 144     1.402495994611   124.42648841   180.65756214
 C    149 148 147     1.387642409953   123.59027557     0.00000000
 C    150 149 148     1.415231759430   113.18234690   359.74246596
 C    147 144 143     1.417724266069   122.31739710   180.92962420
 N    151 150 149     1.337831557409   129.09589035   180.35170738
 N    153 151 150     1.302301315864   104.47204481   179.92552405
 N    154 153 151     1.304445824632   116.56898503     0.09557647
 F    148 147 144     1.348417568337   119.39920145     0.47605734
 F    149 148 147     1.348224605398   115.99435169   179.74342560
 C    150 149 148     1.434059312720   125.61746099   179.38137636
 C    154 153 151     1.434774228651   121.52262459   178.00532077
 C    159 154 153     1.525260967900   110.24577466   285.13763621
 C    158 150 149     1.373895689017   129.78746501     2.08327452
 C    161 158 150     1.403713493345   113.16026882   180.23618570
 C    162 161 158     1.364257302124   113.49496071     0.08338931
 S    163 162 161     1.731387260985   111.26779166   359.86538314
 Si   136 135 134     1.861024799217   130.45665591   181.21973063
 C    165 136 135     1.887864938840   110.12398248   236.96801000
 C    166 165 136     1.532738403871   114.92516589   291.18807861
 C    165 136 135     1.884567178612   108.35144793   357.33459859
 C    168 165 136     1.531928099879   114.64577904   287.30384846
 C    165 136 135     1.889058087990   107.22337598   116.67889783
 C    170 165 136     1.532224751334   114.73110237   178.63284832
 Si   140 139 138     1.859141365900   130.61043587   179.53765257
 C    172 140 139     1.884641968465   109.19378885     9.27777296
 C    173 172 140     1.532736138903   115.01099333   284.43944777
 C    172 140 139     1.887236190756   107.87504284   129.68675678
 C    175 172 140     1.532904433388   113.77462629   297.95092277
 C    172 140 139     1.889478744284   108.00527829   248.34214142
 C    177 172 140     1.532501024241   114.59636818   180.98841362
 C    163 162 161     1.486180836944   128.01221487   179.41307818
 H      7   2   1     1.074783266477   123.16347344   359.45333506
 H     10   5   4     1.074683643218   124.13231332   359.73233168
 H     15  14   4     1.075319975961   123.21082088   356.19143153
 H     16  15  14     1.075519643428   123.18489272   179.48188834
 H     19  13   1     1.075432328740   123.17480674   354.09736247
 H     20  19  13     1.075515693888   123.18054868   179.76885607
 H     26  25  24     1.075884650602   123.51363296   179.62896321
 H     27  23  11     1.075474775901   122.98561031     2.04816719
 H     28  25  24     1.100612260199   109.65074536   236.85898085
 H     29  28  25     1.095587588466   111.54853675    69.28990751
 H     40  35  34     1.091156963686   106.58219507     0.61815778
 H     40  35  34     1.094024407497   108.27969880   242.73454668
 H     41  40  35     1.087248157598   110.69288006   297.54250894
 H     41  40  35     1.086018745971   109.81947455   177.35175535
 H     41  40  35     1.086719216081   109.55274200    57.56852466
 H     42  39  31     1.074163550815   122.13055372   356.56021830
 H     43  42  39     1.075668645727   124.24288793   180.87197731
 H     47  46  17     1.093056569076   110.13627810   174.78094602
 H     47  46  17     1.092704737292   110.17948807    58.93312272
 H     48  47  46     1.087100557170   110.60387668   298.32982102
 H     48  47  46     1.088130262515   110.89779354   178.20829638
 H     48  47  46     1.087284553831   110.41990099    57.99535960
 H     49  46  17     1.093062869189   110.61869723   184.40958971
 H     49  46  17     1.093654333370   110.04507773    67.85264513
 H     50  49  46     1.087135370826   110.56725213   298.63763276
 H     50  49  46     1.087897738806   110.87991661   178.52812095
 H     50  49  46     1.087404512314   110.42967444    58.33755045
 H     51  46  17     1.093284918171   110.27523910    56.78778855
 H     51  46  17     1.093469071991   109.83843490   300.80420561
 H     52  51  46     1.087294752172   110.50464631   299.42307338
 H     52  51  46     1.088094087384   111.32138334   179.04236340
 H     52  51  46     1.086819931497   110.40368460    58.95717824
 H     54  53  21     1.093002654754   109.93415972   173.06101507
 H     54  53  21     1.092893759155   110.24189754    57.26285882
 H     55  54  53     1.087001260073   110.53831644   298.22301406
 H     55  54  53     1.088223208032   110.89558036   178.16514788
 H     55  54  53     1.087326469557   110.49607983    57.89135598
 H     56  53  21     1.093097078854   110.66131323   185.07181207
 H     56  53  21     1.093719441219   109.94184459    68.55595994
 H     57  56  53     1.087134681077   110.59529609   298.70125997
 H     57  56  53     1.087875139389   110.87552365   178.54272103
 H     57  56  53     1.087466821241   110.45488346    58.39503776
 H     58  53  21     1.093388588472   110.35458080    58.88143465
 H     58  53  21     1.093615854951   109.83050256   303.04155105
 H     59  58  53     1.087274426904   110.58101934   300.47636220
 H     59  58  53     1.088096008356   110.91818626   180.35248581
 H     59  58  53     1.087007505310   110.51464687    60.26727253
 H     66  61  60     1.074321248277   124.08636411     0.03442031
 H     69  64  63     1.074772195119   124.17719987   358.39233717
 H     74  73  63     1.075226478934   123.35385520     4.59295581
 H     75  74  73     1.075509211769   123.15665292   180.97094184
 H     78  72  60     1.075500247280   123.25960665   356.04523760
 H     79  78  72     1.075610871552   123.19933403   179.13482773
 H     85  84  83     1.073540737420   121.99923008   179.90805780
 H     86  82  70     1.075697447520   122.41032950     2.73746639
 H     99  94  93     1.093155324096   108.46136369   298.08083040
 H     99  94  93     1.090951560153   106.85234634   179.99505144
 H    100  99  94     1.087044467996   109.73099814   301.49657753
 H    100  99  94     1.085572528438   109.88443999   181.69609666
 H    100  99  94     1.087267803671   110.49913071    61.51633121
 H    101  98  90     1.074073971428   123.37148519   356.81182886
 H    102 101  98     1.075847719986   124.06895478   180.79865974
 H    106 105  76     1.092989541944   109.91964986   173.13141194
 H    106 105  76     1.092953756799   110.28646174    57.30743692
 H    107 106 105     1.086988268290   110.53392336   298.22142000
 H    107 106 105     1.088273691403   110.88894650   178.17632387
 H    107 106 105     1.087362969436   110.52892324    57.87854027
 H    108 105  76     1.093000621500   110.65293736   183.22704573
 H    108 105  76     1.093733472607   109.99675837    66.74038426
 H    109 108 105     1.087261709433   110.62613614   297.98665987
 H    109 108 105     1.087625210539   110.78864372   177.77289271
 H    109 108 105     1.087535783365   110.43361855    57.70981843
 H    110 105  76     1.093499798354   110.32118005    57.83128145
 H    110 105  76     1.093608598494   109.78119875   302.07035229
 H    111 110 105     1.087350763553   110.59809891   300.30435827
 H    111 110 105     1.088175088899   110.87343129   180.19499890
 H    111 110 105     1.086978971324   110.50719096    60.13615143
 H    113 112  80     1.092993433558   109.92606311   174.30806256
 H    113 112  80     1.092982601188   110.34337319    58.40366872
 H    114 113 112     1.086844362087   110.52762122   298.60712134
 H    114 113 112     1.088281932084   110.90948345   178.48457706
 H    114 113 112     1.087327052455   110.48182660    58.20763419
 H    115 112  80     1.092938529424   110.65073969   183.16099819
 H    115 112  80     1.093656727772   109.89548732    66.71499417
[...]
  35   4.582     270.6   0.061393   0.055046   2.984570  17.701085     0.08 ( 255-> 261)    0.08 ( 257-> 269)    0.07 ( 257-> 272)
  36   4.602     269.4   0.084874   0.071453  -9.742225  -11.844986     0.94 ( 256-> 271)    0.01 ( 252-> 262)    0.01 ( 249-> 262)
  37   4.625     268.1   0.029616   0.024312  -67.192822  -57.470353     0.18 ( 258-> 270)    0.12 ( 250-> 259)    0.07 ( 251-> 260)
  38   4.658     266.2   0.031140   0.024281  55.643619  44.193504     0.16 ( 258-> 269)    0.13 ( 257-> 269)    0.07 ( 248-> 259)
  39   4.696     264.0   0.019091   0.016781   9.304811   7.877348     0.06 ( 250-> 260)    0.05 ( 258-> 266)    0.05 ( 253-> 260)
  40   4.715     263.0   0.019742   0.014797  87.505253  81.576677     0.08 ( 255-> 266)    0.08 ( 254-> 265)    0.07 ( 233-> 259)
  41   4.734     261.9   0.006966   0.005365  -49.365211  -43.828681     0.18 ( 252-> 259)    0.08 ( 253-> 264)    0.06 ( 256-> 261)
  42   4.744     261.4   0.043671   0.036856  43.372490  41.380408     0.10 ( 252-> 259)    0.07 ( 252-> 261)    0.07 ( 253-> 260)
  43   4.767     260.1   0.024888   0.018849  27.941243  25.957066     0.06 ( 255-> 263)    0.05 ( 257-> 272)    0.05 ( 226-> 259)
  44   4.768     260.0   0.025288   0.018222  83.398801  56.985090     0.11 ( 233-> 259)    0.07 ( 254-> 265)    0.07 ( 246-> 259)
  45   4.777     259.5   0.029977   0.028666  -74.871814  -73.448068     0.10 ( 258-> 262)    0.09 ( 253-> 264)    0.09 ( 233-> 259)
  46   4.804     258.1   0.008358   0.007730  -28.058310  -27.329011     0.29 ( 258-> 262)    0.27 ( 257-> 262)    0.08 ( 258-> 263)
  47   4.823     257.1   0.038588   0.031924  -10.072154   0.363155     0.12 ( 255-> 261)    0.05 ( 255-> 265)    0.05 ( 255-> 263)
  48   4.854     255.4   0.002462   0.002304  25.283413  22.758079     0.13 ( 254-> 261)    0.11 ( 256-> 264)    0.08 ( 254-> 266)
  49   4.860     255.1   0.010606   0.008279  39.349312  33.537061     0.19 ( 256-> 264)    0.07 ( 251-> 261)    0.05 ( 256-> 263)
  50   4.877     254.2   0.030068   0.023577  -181.814893  -165.899082     0.08 ( 256-> 264)    0.05 ( 258-> 266)    0.05 ( 257-> 272)
  51   4.899     253.1   0.020315   0.014857  21.155107  16.618175     0.07 ( 258-> 270)    0.06 ( 255-> 265)    0.06 ( 251-> 261)
  52   4.928     251.6   0.041271   0.035674  15.743983   7.813490     0.17 ( 253-> 260)    0.10 ( 251-> 260)    0.05 ( 241-> 259)
  53   4.941     250.9   0.041262   0.032750  188.555004  166.953592     0.14 ( 252-> 267)    0.14 ( 256-> 275)    0.12 ( 249-> 262)
  54   4.943     250.8   0.029536   0.020637  -121.250460  -115.222853     0.14 ( 239-> 259)    0.12 ( 241-> 259)    0.07 ( 239-> 261)
  55   4.953     250.3   0.039569   0.023289  -59.911003  -51.600928     0.11 ( 233-> 259)    0.10 ( 226-> 259)    0.06 ( 227-> 259)
  56   4.972     249.4   0.003461   0.001919  16.295423  21.317566     0.17 ( 239-> 259)    0.08 ( 231-> 260)    0.04 ( 228-> 260)
  57   4.989     248.5   0.126958   0.084890  98.659289  33.801036     0.13 ( 229-> 259)    0.13 ( 228-> 260)    0.11 ( 230-> 259)

-----------------------------------------------------------------------------
         ABSORPTION SPECTRUM VIA TRANSITION ELECTRIC DIPOLE MOMENTS
-----------------------------------------------------------------------------
State   Energy  Wavelength   fosc         T2         TX        TY        TZ  
        (cm-1)    (nm)                  (au**2)     (au)      (au)      (au) 
-----------------------------------------------------------------------------
   0   19486.4    513.2   3.435330346  58.03813  -2.20444   5.71694   4.52716
   1   22206.4    450.3   0.406716404   6.02960  -0.83233  -1.94506   1.24641
   2   24075.6    415.4   0.657045941   8.98451   0.68500  -2.90877   0.23309
   3   25277.3    395.6   0.471827485   6.14508   0.41222  -0.36262   2.41737
   4   26116.1    382.9   0.416337296   5.24824   1.01684  -1.41940  -1.48310
   5   26551.4    376.6   0.144777327   1.79510   0.99499   0.09807  -0.89189
   6   27286.6    366.5   0.081256426   0.98036   0.54672  -0.40751   0.71790
   7   27813.1    359.5   0.698322553   8.26575   1.43879  -2.33861   0.85237
   8   28122.3    355.6   0.031009560   0.36301   0.43017  -0.00414   0.42184
   9   29742.5    336.2   0.277617295   3.07287   1.02966   0.23945  -1.39833
  10   29843.3    335.1   0.503125914   5.55015   0.77276   0.77298  -2.08698
  11   30389.2    329.1   0.393489239   4.26274  -0.57664  -1.15330   1.61249
  12   30681.8    325.9   0.063636595   0.68281  -0.75566  -0.32076   0.09439
  13   30713.3    325.6   0.060661936   0.65023  -0.02210  -0.75009   0.29514
  14   30816.6    324.5   0.035974829   0.38432   0.32382   0.18369   0.49570
  15   31093.6    321.6   0.029273637   0.30994   0.47440  -0.01148   0.29113
  16   31988.1    312.6   0.255117586   2.62559   0.69017  -0.99743  -1.07443
  17   32490.8    307.8   0.380490847   3.85532   0.26829  -0.65492  -1.83151
  18   32999.3    303.0   0.100565915   1.00328  -0.40514  -0.91542   0.03398
  19   33163.9    301.5   0.247319652   2.45509  -1.49335  -0.33823   0.33259
  20   33348.6    299.9   0.009555138   0.09433  -0.25640   0.06923  -0.15425
  21   33598.4    297.6   0.886245053   8.68381  -2.82539  -0.55161   0.62985
  22   33743.6    296.4   0.045446309   0.44339   0.45639  -0.29770   0.38272
  23   34042.0    293.8   0.047190975   0.45637   0.12467   0.14643  -0.64760
  24   34410.0    290.6   0.070249257   0.67210  -0.23217   0.46515   0.63390
  25   34912.9    286.4   0.021650310   0.20415   0.08986   0.17486  -0.40682
  26   35346.3    282.9   0.010867433   0.10122  -0.31536   0.01642   0.03870
  27   35674.1    280.3   0.003799966   0.03507   0.12075   0.08442  -0.11558
  28   35794.9    279.4   0.050391619   0.46346  -0.30777   0.60578  -0.04201
  29   35835.8    279.1   0.007420272   0.06817   0.05706  -0.05600  -0.24855
  30   35936.0    278.3   0.048716349   0.44629   0.18912  -0.39899   0.50134
  31   36179.3    276.4   0.026986408   0.24556   0.03951  -0.49100  -0.05404
  32   36269.8    275.7   0.010039406   0.09113   0.11207   0.27862   0.03061
  33   36376.0    274.9   0.002898618   0.02623   0.06595  -0.01644  -0.14702
  34   36550.6    273.6   0.068958172   0.62111   0.32503   0.05115  -0.71613
  35   36958.0    270.6   0.061392852   0.54687  -0.13062   0.45915   0.56479
  36   37114.1    269.4   0.084873922   0.75285  -0.81415   0.18063   0.23954
  37   37301.9    268.1   0.029616319   0.26138   0.03346   0.13211  -0.49276
  38   37566.1    266.2   0.031140425   0.27290  -0.17738   0.46405   0.16154
  39   37876.9    264.0   0.019091011   0.16593   0.03526   0.38815  -0.11845
  40   38028.0    263.0   0.019742342   0.17091  -0.15526  -0.33220  -0.19092
  41   38179.4    261.9   0.006966407   0.06007   0.05899   0.22520  -0.07664
  42   38261.2    261.4   0.043670573   0.37576  -0.22248   0.46884  -0.32626
  43   38450.1    260.1   0.024888157   0.21309   0.17460  -0.41690   0.09382
  44   38458.8    260.0   0.025287525   0.21646   0.04895   0.45963  -0.05297
  45   38531.7    259.5   0.029976521   0.25612  -0.09622   0.18935  -0.45935
  46   38747.8    258.1   0.008357595   0.07101  -0.00103   0.07554  -0.25554
  47   38899.9    257.1   0.038587874   0.32657   0.25456  -0.35263  -0.37071
  48   39147.9    255.4   0.002462219   0.02071  -0.03321   0.03270  -0.13614
  49   39195.1    255.1   0.010606185   0.08908  -0.20800   0.19803  -0.08127
  50   39338.9    254.2   0.030068090   0.25163   0.24565   0.16012  -0.40699
  51   39509.8    253.1   0.020314573   0.16927   0.08653  -0.38855   0.10396
  52   39748.7    251.6   0.041270515   0.34182   0.11172  -0.20287   0.53682
  53   39849.7    250.9   0.041262499   0.34088   0.57281  -0.06418  -0.09302
  54   39867.1    250.8   0.029536265   0.24390   0.01490   0.49286  -0.02776
  55   39947.6    250.3   0.039568881   0.32609  -0.19780  -0.51957   0.13041
  56   40099.9    249.4   0.003460832   0.02841  -0.07448   0.12754  -0.08124
  57   40236.7    248.5   0.126958420   1.03876   0.15496  -0.06843   1.00502

-----------------------------------------------------------------------------
         ABSORPTION SPECTRUM VIA TRANSITION VELOCITY DIPOLE MOMENTS
-----------------------------------------------------------------------------
State   Energy  Wavelength   fosc         P2         PX        PY        PZ  
        (cm-1)    (nm)                  (au**2)     (au)      (au)      (au) 
-----------------------------------------------------------------------------
   0   19486.4    513.2   3.564120553   0.47467  -0.19863   0.51636   0.41059
   1   22206.4    450.3   0.411535381   0.06246  -0.08576  -0.19698   0.12768
   2   24075.6    415.4   0.637256012   0.10486   0.07596  -0.31401   0.02204
   3   25277.3    395.6   0.411371448   0.07107   0.04756  -0.04503   0.25841
   4   26116.1    382.9   0.381348990   0.06807   0.11822  -0.16286  -0.16603
   5   26551.4    376.6   0.127855702   0.02320   0.11333   0.01016  -0.10126
   6   27286.6    366.5   0.078120022   0.01457   0.06647  -0.04713   0.08905
   7   27813.1    359.5   0.670130772   0.12738   0.18147  -0.28869   0.10542
   8   28122.3    355.6   0.029781873   0.00572   0.05101  -0.00304   0.05579
   9   29742.5    336.2   0.257112497   0.05226   0.13109   0.03045  -0.18481
  10   29843.3    335.1   0.442256895   0.09020   0.09965   0.09632  -0.26645
  11   30389.2    329.1   0.347797306   0.07224  -0.07482  -0.15208   0.20859
  12   30681.8    325.9   0.045966603   0.00964  -0.09153  -0.03511   0.00528
  13   30713.3    325.6   0.057033096   0.01197  -0.00569  -0.10334   0.03550
  14   30816.6    324.5   0.030828429   0.00649   0.04143   0.02327   0.06508
  15   31093.6    321.6   0.026531635   0.00564   0.06591  -0.00323   0.03582
  16   31988.1    312.6   0.227894609   0.04982   0.09332  -0.13726  -0.14925
  17   32490.8    307.8   0.343009552   0.07617   0.03717  -0.09472  -0.25654
  18   32999.3    303.0   0.083546684   0.01884  -0.05972  -0.12351   0.00472
  19   33163.9    301.5   0.221608314   0.05023  -0.21249  -0.05182   0.04892
  20   33348.6    299.9   0.007263684   0.00166  -0.03598   0.00912  -0.01668
  21   33598.4    297.6   0.788672047   0.18110  -0.40712  -0.08292   0.09208
  22   33743.6    296.4   0.037956621   0.00875   0.06454  -0.04386   0.05162
  23   34042.0    293.8   0.038214599   0.00889   0.01958   0.02251  -0.08945
  24   34410.0    290.6   0.059277146   0.01394  -0.03302   0.06585   0.09227
  25   34912.9    286.4   0.021875519   0.00522   0.01513   0.02563  -0.06583
  26   35346.3    282.9   0.010045119   0.00243  -0.04885   0.00163   0.00614
  27   35674.1    280.3   0.003061538   0.00075   0.01823   0.01298  -0.01567
  28   35794.9    279.4   0.042508338   0.01040  -0.04517   0.09125  -0.00563
  29   35835.8    279.1   0.004479662   0.00110   0.00369  -0.00512  -0.03252
  30   35936.0    278.3   0.040900137   0.01005   0.02574  -0.05763   0.07786
  31   36179.3    276.4   0.023234366   0.00575   0.00527  -0.07494  -0.01004
  32   36269.8    275.7   0.009042848   0.00224   0.01718   0.04391   0.00427
  33   36376.0    274.9   0.002645363   0.00066   0.01059  -0.00308  -0.02315
  34   36550.6    273.6   0.059538708   0.01487   0.05042   0.00899  -0.11068
  35   36958.0    270.6   0.055046375   0.01390  -0.02200   0.07504   0.08825
  36   37114.1    269.4   0.071452937   0.01812  -0.12707   0.02333   0.03785
  37   37301.9    268.1   0.024311973   0.00620   0.00477   0.01976  -0.07606
  38   37566.1    266.2   0.024281448   0.00623  -0.02501   0.07005   0.02647
  39   37876.9    264.0   0.016780995   0.00434   0.00364   0.06329  -0.01804
  40   38028.0    263.0   0.014796926   0.00385  -0.02449  -0.05026  -0.02683
  41   38179.4    261.9   0.005364539   0.00140   0.00790   0.03515  -0.01009
  42   38261.2    261.4   0.036856284   0.00964  -0.03591   0.07502  -0.05216
  43   38450.1    260.1   0.018849171   0.00495   0.02865  -0.06289   0.01331
  44   38458.8    260.0   0.018222124   0.00479   0.00861   0.06862  -0.00264
  45   38531.7    259.5   0.028666330   0.00755  -0.01467   0.03133  -0.07970
  46   38747.8    258.1   0.007729721   0.00205   0.00158   0.01242  -0.04348
  47   38899.9    257.1   0.031924257   0.00849   0.03913  -0.06097  -0.05691
  48   39147.9    255.4   0.002304444   0.00062  -0.00702   0.00955  -0.02182
  49   39195.1    255.1   0.008278981   0.00222  -0.03290   0.03179  -0.01117
  50   39338.9    254.2   0.023577438   0.00634   0.03625   0.03096  -0.06377
  51   39509.8    253.1   0.014857158   0.00401   0.01566  -0.06009   0.01251
  52   39748.7    251.6   0.035674103   0.00969   0.01842  -0.03486   0.09020
  53   39849.7    250.9   0.032750347   0.00892   0.09268  -0.00844  -0.01607
  54   39867.1    250.8   0.020637158   0.00562   0.00487   0.07482  -0.00104
  55   39947.6    250.3   0.023288574   0.00636  -0.03431  -0.06865   0.02163
  56   40099.9    249.4   0.001919475   0.00053  -0.01173   0.01606  -0.01142
  57   40236.7    248.5   0.084890381   0.02334   0.02366  -0.01548   0.15015

-------------------------------------------------------------------
                             CD SPECTRUM
-------------------------------------------------------------------
State   Energy Wavelength       R         MX        MY        MZ   
        (cm-1)   (nm)       (1e40*cgs)   (au)      (au)      (au)  
-------------------------------------------------------------------
   0   19486.4    513.2    1469.41491  12.89834  -8.11913  15.15663
   1   22206.4    450.3    -2185.22862 -14.91041  -3.61546  -8.16133
   2   24075.6    415.4    894.69650 -11.48414  -2.19414  -9.91552
   3   25277.3    395.6    -222.52555  -4.02138  -9.88662  -0.40679
   4   26116.1    382.9    112.95936  -2.23587   3.72076  -4.77081
   5   26551.4    376.6     99.42081   0.81964   0.43778   1.43542
   6   27286.6    366.5    -57.67661  -2.37969  -4.67650  -0.50146
   7   27813.1    359.5    -62.12387   1.67010   1.00254   0.24072
   8   28122.3    355.6    660.19672  -5.47683  -5.09805  -1.10445
   9   29742.5    336.2    741.27227  -2.85418   1.36127   0.38031
  10   29843.3    335.1    -1473.99971   3.69812   6.77127   0.88103
  11   30389.2    329.1    -944.00188  -6.54691  -5.56624  -3.83883
  12   30681.8    325.9     33.92286  -0.15238   0.53392  -0.93020
  13   30713.3    325.6    319.05108  -1.79126   0.42155  -3.64876
  14   30816.6    324.5    336.19133  -2.72521  -3.47894   0.19227
  15   31093.6    321.6    291.82509  -3.00396  -3.78009   0.49344
  16   31988.1    312.6    221.16356  -5.74133   2.41592  -5.05750
  17   32490.8    307.8    -249.82795   2.11535   8.60431  -3.34556
  18   32999.3    303.0    -168.77848  -1.29570  -0.27682  -1.83434
  19   33163.9    301.5     82.50635   0.49903  -0.24259   0.94159
  20   33348.6    299.9     15.34113   0.75028   1.46694  -0.16686
  21   33598.4    297.6     64.58619   0.74911  -1.20791   1.86752
  22   33743.6    296.4    164.64192  -3.65662  -4.11508  -0.66542
  23   34042.0    293.8     42.77208   3.51756   2.30986   1.47963
  24   34410.0    290.6      8.81087  -0.26753  -2.95183   2.00910
  25   34912.9    286.4     13.15126   1.32851   1.12458   0.91396
  26   35346.3    282.9     19.95747   0.31262   0.15740   0.29292
  27   35674.1    280.3    -31.23336   1.03044   0.56008   0.33922
  28   35794.9    279.4     87.15997   3.83173   1.50450   2.42435
  29   35835.8    279.1     -1.17524   1.58997   1.47978   0.01157
  30   35936.0    278.3    -26.72711  -3.93864  -3.88996  -1.38390
  31   36179.3    276.4     58.83236  -1.02152   0.70908  -2.57099
  32   36269.8    275.7    -13.16691   0.73668  -0.24852   1.38973
  33   36376.0    274.9      6.26514   0.70584   0.55112   0.43577
  34   36550.6    273.6      7.97626   0.37811   2.03230   0.36403
  35   36958.0    270.6      2.98457   1.65375  -2.43581   2.34030
  36   37114.1    269.4     -9.74222   0.04365  -0.36488   0.59604
  37   37301.9    268.1    -67.19282   1.98025   2.84394   0.31846
  38   37566.1    266.2     55.64362   0.22820  -0.94553   1.50544
  39   37876.9    264.0      9.30481   0.76420   0.37633   1.79393
  40   38028.0    263.0     87.50525   0.52484   1.79021  -1.59739
  41   38179.4    261.9    -49.36521   2.34453   0.81176   1.45752
  42   38261.2    261.4     43.37249   4.08521   2.93181   1.99128
  43   38450.1    260.1     27.94124  -1.27464  -0.66191  -1.83260
  44   38458.8    260.0     83.39880   0.34755  -0.58786   1.89943
  45   38531.7    259.5    -74.87181   2.14154   3.11316   0.14318
  46   38747.8    258.1    -28.05831   0.43262   1.25655  -0.09609
  47   38899.9    257.1    -10.07215   0.06455   1.00101  -1.02315
  48   39147.9    255.4     25.28341   0.96375   0.37303   0.64239
  49   39195.1    255.1     39.34931   0.89230   0.30258   0.50763
  50   39338.9    254.2    -181.81489   3.49614   2.23817   1.09561
  51   39509.8    253.1     21.15511  -2.26548  -0.74885  -1.77640
  52   39748.7    251.6     15.74398  -5.11834  -4.43245  -0.73428
  53   39849.7    250.9    188.55500  -1.59450  -0.15632  -1.11166
  54   39867.1    250.8    -121.25046   2.06557   1.07549   1.67340
  55   39947.6    250.3    -59.91100  -2.32537  -0.33113  -2.89730
  56   40099.9    249.4     16.29542   3.43591   1.31720  -0.23106
  57   40236.7    248.5     98.65929  -8.48237  -7.70795   0.36663

sTD-DFT done

Total run time:      125.001 sec

           *** ORCA-CIS/TD-DFT FINISHED WITHOUT ERROR ***

-------------------------   --------------------
FINAL SINGLE POINT ENERGY    -15406.502742895587
-------------------------   --------------------


                            ***************************************
                            *     ORCA property calculations      *
                            ***************************************

                                    ---------------------
                                    Active property flags
                                    ---------------------
   (+) Dipole Moment


------------------------------------------------------------------------------
                       ORCA ELECTRIC PROPERTIES CALCULATION
------------------------------------------------------------------------------

Dipole Moment Calculation                       ... on
Quadrupole Moment Calculation                   ... off
Polarizability Calculation                      ... off
GBWName                                         ... J71_olig.gbw
Electron density file                           ... J71_olig.scfp
The origin for moment calculation is the CENTER OF MASS  = (-23.486034, 12.611535 22.523521)

-------------
DIPOLE MOMENT
-------------
                                X             Y             Z
Electronic contribution:   -146.29439     105.49590     107.10783
Nuclear contribution   :    146.75308    -104.48702    -105.96504
                        -----------------------------------------
Total Dipole Moment    :      0.45869       1.00888       1.14279
                        -----------------------------------------
Magnitude (a.u.)       :      1.59192
Magnitude (Debye)      :      4.04634



--------------------
Rotational spectrum 
--------------------
 
Rotational constants in cm-1:     0.000177     0.000023     0.000022 
Rotational constants in MHz :     5.298283     0.697742     0.663328 

 Dipole components along the rotational axes: 
x,y,z [a.u.] :     1.106240    -0.682667     0.918916 
x,y,z [Debye]:     2.811839    -1.735201     2.335700 

 

Timings for individual modules:

Sum of individual times         ...    21438.799 sec (= 357.313 min)
GTO integral calculation        ...       22.231 sec (=   0.371 min)   0.1 %
SCF iterations                  ...    21291.298 sec (= 354.855 min)  99.3 %
CIS module                      ...      125.270 sec (=   2.088 min)   0.6 %
                             ****ORCA TERMINATED NORMALLY****
TOTAL RUN TIME: 0 days 5 hours 57 minutes 21 seconds 868 msec
