
                                 *****************
                                 * O   R   C   A *
                                 *****************

           --- An Ab Initio, DFT and Semiempirical electronic structure package ---

                  #######################################################
                  #                        -***-                        #
                  #          Department of theory and spectroscopy      #
                  #               Directorship: Frank Neese             #
                  #        Max Planck Institute fuer Kohlenforschung    #
                  #                Kaiser Wilhelm Platz 1               #
                  #                 D-45470 Muelheim/Ruhr               #
                  #                      Germany                        #
                  #                                                     #
                  #                  All rights reserved                #
                  #                        -***-                        #
                  #######################################################


                         Program Version 4.2.0 -  RELEASE  -


 With contributions from (in alphabetic order):
   Daniel Aravena         : Magnetic Suceptibility
   Michael Atanasov       : Ab Initio Ligand Field Theory (pilot matlab implementation)
   Alexander A. Auer      : GIAO ZORA, VPT2
   Ute Becker             : Parallelization
   Giovanni Bistoni       : ED, misc. LED, open-shell LED, HFLED
   Martin Brehm           : Molecular dynamics
   Dmytro Bykov           : SCF Hessian
   Vijay G. Chilkuri      : MRCI spin determinant printing, contributions to CSF-ICE
   Dipayan Datta          : RHF DLPNO-CCSD density
   Achintya Kumar Dutta   : EOM-CC, STEOM-CC
   Dmitry Ganyushin       : Spin-Orbit,Spin-Spin,Magnetic field MRCI
   Miquel Garcia          : C-PCM Hessian, Gaussian charge scheme
   Yang Guo               : DLPNO-NEVPT2, CIM, IAO-localization
   Andreas Hansen         : Spin unrestricted coupled pair/coupled cluster methods
   Benjamin Helmich-Paris : CASSCF linear response (MC-RPA)
   Lee Huntington         : MR-EOM, pCC
   Robert Izsak           : Overlap fitted RIJCOSX, COSX-SCS-MP3, EOM
   Christian Kollmar      : KDIIS, OOCD, Brueckner-CCSD(T), CCSD density
   Simone Kossmann        : Meta GGA functionals, TD-DFT gradient, OOMP2, MP2 Hessian
   Martin Krupicka        : AUTO-CI
   Lucas Lang             : DCDCAS
   Dagmar Lenk            : GEPOL surface, SMD
   Dimitrios Liakos       : Extrapolation schemes; Compound Job, initial MDCI parallelization
   Dimitrios Manganas     : Further ROCIS development; embedding schemes
   Dimitrios Pantazis     : SARC Basis sets
   Taras Petrenko         : DFT Hessian,TD-DFT gradient, ASA, ECA, R-Raman, ABS, FL, XAS/XES, NRVS
   Peter Pinski           : DLPNO-MP2, DLPNO-MP2 Gradient
   Christoph Reimann      : Effective Core Potentials
   Marius Retegan         : Local ZFS, SOC
   Christoph Riplinger    : Optimizer, TS searches, QM/MM, DLPNO-CCSD(T), (RO)-DLPNO pert. Triples
   Tobias Risthaus        : Range-separated hybrids, TD-DFT gradient, RPA, STAB
   Michael Roemelt        : Original ROCIS implementation
   Masaaki Saitow         : Open-shell DLPNO-CCSD energy and density
   Barbara Sandhoefer     : DKH picture change effects
   Avijit Sen             : IP-ROCIS
   Kantharuban Sivalingam : CASSCF convergence, NEVPT2, FIC-MRCI
   Bernardo de Souza      : ESD, SOC TD-DFT
   Georgi Stoychev        : AutoAux, RI-MP2 NMR
   Willem Van den Heuvel  : Paramagnetic NMR
   Boris Wezisla          : Elementary symmetry handling
   Frank Wennmohs         : Technical directorship


 We gratefully acknowledge several colleagues who have allowed us to
 interface, adapt or use parts of their codes:
   Stefan Grimme, W. Hujo, H. Kruse,             : VdW corrections, initial TS optimization,
                  C. Bannwarth                     DFT functionals, gCP, sTDA/sTD-DF
   Ed Valeev, F. Pavosevic, A. Kumar             : LibInt (2-el integral package), F12 methods
   Garnet Chan, S. Sharma, J. Yang, R. Olivares  : DMRG
   Ulf Ekstrom                                   : XCFun DFT Library
   Mihaly Kallay                                 : mrcc  (arbitrary order and MRCC methods)
   Andreas Klamt, Michael Diedenhofen            : otool_cosmo (COSMO solvation model)
   Jiri Pittner, Ondrej Demel                    : Mk-CCSD
   Frank Weinhold                                : gennbo (NPA and NBO analysis)
   Christopher J. Cramer and Donald G. Truhlar   : smd solvation model
   Lars Goerigk                                  : TD-DFT with DH, B97 family of functionals
   V. Asgeirsson, H. Jonsson                     : NEB implementation
   FAccTs GmbH                                   : IRC, NEB, NEB-TS, Multilevel, MM, QM/MM, CI optimization
   S Lehtola, MJT Oliveira, MAL Marques          : LibXC Library


 Your calculation uses the libint2 library for the computation of 2-el integrals
 For citations please refer to: http://libint.valeyev.net

 Your ORCA version has been built with support for libXC version: 4.2.3
 For citations please refer to: https://tddft.org/programs/libxc/

 This ORCA versions uses:
   CBLAS   interface :  Fast vector & matrix operations
   LAPACKE interface :  Fast linear algebra routines
   SCALAPACK package :  Parallel linear algebra routines


XCFun DFT library Copyright 2009-2010 Ulf Ekstrom and contributors.
See http://admol.org/xcfun for more information. This is free soft-
ware; see the source code for copying conditions. There is ABSOLUTELY
NO WARRANTY; not even for MERCHANTABILITY or FITNESS FOR A PARTICULAR
PURPOSE. For details see the documentation. Scientific users of this 
library should cite U. Ekstrom, L. Visscher, R. Bast, A. J. Thorvald-
sen and K. Ruud; J.Chem.Theor.Comp. 2010, DOI: 10.1021/ct100117s
XCFun Version 0.99 
----- Orbital basis set information -----
Your calculation utilizes the basis: def2-SVP
   F. Weigend and R. Ahlrichs, Phys. Chem. Chem. Phys. 7, 3297 (2005).

----- AuxJ basis set information -----
Your calculation utilizes the auxiliary basis: def2/J
   F. Weigend, Phys. Chem. Chem. Phys. 8, 1057 (2006).

================================================================================
                                        WARNINGS
                       Please study these warnings very carefully!
================================================================================

INFO   : Checking CIS options ...

WARNING: CIS/ROCIS methods need fully converged wavefunctions
  ===> : Setting SCFConvForced true
         You can overwrite this default with %scf ConvForced false 


INFO   : the flag for use of LIBINT has been found!

================================================================================
                                       INPUT FILE
================================================================================
NAME = P2.inp
|  1> # ORCA input file
|  2> # SCF done       -468.961480281414          0.000414768959
|  3> ! CAM-B3LYP def2-SVP def2/J RIJCOSX Grid4 TightSCF
|  4> %maxcore 5000
|  5> %tddft
|  6>     Mode sTDDFT
|  7>     Ethresh 5.0
|  8>     maxcore 5000
|  9> end
| 10> * xyz 0 1
| 11>    C        1.08879         0.18625         0.73583
| 12>    C        1.96638        -0.89222         0.95051
| 13>    C        1.45710        -2.20204         1.10315
| 14>    C        0.09908        -2.51291         1.04704
| 15>    C       -0.78292        -1.42769         0.86497
| 16>    C       -0.27084        -0.11700         0.71401
| 17>    C        3.38792        -0.86697         1.04788
| 18>    C        3.94786        -2.08265         1.23123
| 19>    S        2.75092        -3.35133         1.31093
| 20>    C       -2.19918        -1.44762         0.80986
| 21>    C       -2.75852        -0.22588         0.58055
| 22>    S       -1.55023         1.03513         0.44613
| 23>    C        1.54682         1.54324         0.52656
| 24>    C       -0.35757        -3.88106         1.13399
| 25>    C        0.98127         2.70314         0.97926
| 26>    C        1.65670         3.85019         0.53301
| 27>    C        2.73526         3.60376        -0.27651
| 28>    S        2.93193         1.89263        -0.47968
| 29>    C        0.15507        -4.90426         1.88463
| 30>    C       -0.50201        -6.12467         1.66547
| 31>    C       -1.51361        -6.07560         0.74048
| 32>    S       -1.66591        -4.46077         0.12932
| 33>    S        3.78608         4.80069        -0.98616
| 34>    C        4.89198         3.72591        -1.97678
| 35>    S       -2.52258        -7.40428         0.23650
| 36>    C       -3.61755        -6.54779        -0.95825
| 37>    F        1.27152         5.08893         0.87816
| 38>    F       -0.16398        -7.24843         2.31678
| 39>    C        5.89289         4.58438        -2.72366
| 40>    C       -4.60425        -7.53871        -1.54189
| 41>    C        5.38595        -2.42127         1.37486
| 42>    C       -4.13826         0.10295         0.46016
| 43>    S       -5.38608        -1.08517         0.71147
| 44>    C       -6.62940         0.09037         0.38546
| 45>    C       -6.07951         1.32560         0.09697
| 46>    C       -4.67724         1.32717         0.14383
| 47>    C       -8.01404        -0.22131         0.48511
| 48>    C       -8.64847        -1.44468         0.51872
| 49>    C      -10.03820        -1.34055         0.59816
| 50>    C      -10.48681        -0.03697         0.64934
| 51>    S       -9.15693         1.07892         0.60759
| 52>    C      -11.82071         0.45670         0.67633
| 53>    S      -13.19475        -0.60466         0.53578
| 54>    C      -13.61766         1.92924         0.69177
| 55>    C      -12.22560         1.77810         0.74349
| 56>    C       -6.86399         2.49847        -0.41185
| 57>    O       -7.03462         3.54319         0.38567
| 58>    O       -7.29475         2.51502        -1.53734
| 59>    C      -11.31000         2.93325         1.00632
| 60>    O      -11.07379         3.80520         0.03156
| 61>    O      -10.83133         3.11103         2.09794
| 62>    C      -11.53534         3.61063        -1.30189
| 63>    C      -10.67656         2.62594        -2.08387
| 64>    C       -6.65599         3.51254         1.75880
| 65>    C       -7.67201         4.31816         2.55154
| 66>    C      -19.11006         1.95433         0.06083
| 67>    C      -17.95993         1.16316         0.25663
| 68>    C      -18.07425        -0.23774         0.42570
| 69>    C      -19.29542        -0.91220         0.42621
| 70>    C      -20.45320        -0.11520         0.28283
| 71>    C      -20.32865         1.28409         0.10030
| 72>    C      -16.61668         1.59747         0.31759
| 73>    C      -15.71325         0.58615         0.48024
| 74>    S      -16.49900        -0.97306         0.58227
| 75>    C      -21.81282        -0.51993         0.30269
| 76>    C      -22.69472         0.50157         0.10369
| 77>    S      -21.88134         2.03858        -0.10806
| 78>    C      -19.04669         3.37536        -0.19625
| 79>    C      -19.34901        -2.35120         0.54196
| 80>    C      -19.90824         4.35421         0.21857
| 81>    C      -19.57400         5.62374        -0.27760
| 82>    C      -18.46835         5.65247        -1.08877
| 83>    S      -17.81358         4.05363        -1.23466
| 84>    C      -18.52815        -3.17548         1.26423
| 85>    C      -18.82956        -4.53437         1.09093
| 86>    C      -19.86682        -4.78899         0.22966
| 87>    S      -20.50088        -3.29382        -0.37606
| 88>    S      -17.78780         7.05852        -1.86113
| 89>    C      -16.34175         6.30531        -2.69913
| 90>    S      -20.48563        -6.35892        -0.20327
| 91>    C      -21.83815        -5.87880        -1.34339
| 92>    F      -20.28310         6.72123         0.02690
| 93>    F      -18.15431        -5.50561         1.72398
| 94>    C      -15.56714         7.37943        -3.43567
| 95>    C      -22.52247        -7.12516        -1.86754
| 96>    C      -14.29875         0.73747         0.57646
| 97>    C      -24.11812         0.48741         0.08319
| 98>    S      -25.05977        -0.93806         0.41977
| 99>    C      -26.54806        -0.05276         0.22300
|100>    C      -26.29860         1.26998        -0.09354
|101>    C      -24.93150         1.56735        -0.16979
|102>    C      -27.83051        -0.62955         0.44569
|103>    C      -28.23463        -1.94675         0.46647
|104>    C      -29.60577        -2.09705         0.68563
|105>    C      -30.26713        -0.89913         0.86167
|106>    S      -29.16412         0.43666         0.76204
|107>    C      -31.65604        -0.65029         1.04769
|108>    S      -32.84001        -1.92171         0.92821
|109>    C      -33.66426         0.48020         1.34825
|110>    C      -32.26879         0.57167         1.26400
|111>    C      -27.35155         2.25514        -0.50558
|112>    O      -27.64235         3.25261         0.31795
|113>    O      -27.89239         2.17533        -1.57952
|114>    C      -31.53969         1.85298         1.52233
|115>    O      -31.56508         2.80653         0.59639
|116>    O      -30.97751         2.05223         2.56964
|117>    C      -32.14988         2.61690        -0.68937
|118>    C      -31.26778         1.80875        -1.63084
|119>    C      -27.11181         3.31666         1.63895
|120>    C      -28.15523         3.95458         2.54082
|121>    C      -39.12577        -0.45628         1.32051
|122>    C      -37.83851        -1.02737         1.23574
|123>    C      -37.68568        -2.41207         0.98169
|124>    C      -38.75895        -3.28269         0.79963
|125>    C      -40.04803        -2.71474         0.89497
|126>    C      -40.19681        -1.32969         1.15216
|127>    C      -36.59130        -0.37418         1.36232
|128>    C      -35.51402        -1.19253         1.17086
|129>    S      -36.00005        -2.84308         0.86124
|130>    C      -41.30265        -3.35723         0.75418
|131>    C      -42.36922        -2.51241         0.84929
|132>    S      -41.87499        -0.86249         1.15880
|133>    C      -39.34733         0.95588         1.53544
|134>    C      -38.53810        -4.67887         0.49994
|135>    C      -40.35047         1.55298         2.25019
|136>    C      -40.29973         2.95430         2.20059
|137>    C      -39.27739         3.46725         1.44349
|138>    S      -38.34070         2.16881         0.77799
|139>    C      -37.54150        -5.49416         0.96607
|140>    C      -37.59507        -6.78691         0.42435
|141>    C      -38.61191        -6.99313        -0.47346
|142>    S      -39.54001        -5.53950        -0.64551
|143>    S      -38.93672         5.15453         1.17405
|144>    C      -37.40792         5.02634         0.17056
|145>    S      -38.95889        -8.47619        -1.31901
|146>    C      -40.45120        -7.97913        -2.26046
|147>    F      -41.18241         3.72660         2.85212
|148>    F      -36.72066        -7.74525         0.76707
|149>    C      -36.91822         6.41565        -0.18482
|150>    C      -40.95479        -9.15810        -3.06833
|151>    C      -34.14389        -0.80041         1.18280
|152>    C      -43.75201        -2.82450         0.72336
|153>    S      -44.29471        -4.45966         0.47912
|154>    C      -45.95969        -3.94534         0.41558
|155>    C      -46.05894        -2.57977         0.58916
|156>    C      -44.81345        -1.95240         0.75680
|157>    C      -47.00328        -4.89894         0.23275
|158>    C      -46.92959        -6.26424         0.40023
|159>    C      -48.14991        -6.91217         0.19730
|160>    C      -49.16453        -6.05388        -0.15561
|161>    S      -48.60785        -4.40859        -0.22806
|162>    C      -50.53652        -6.36438        -0.40554
|163>    S      -51.27637        -7.77275         0.30667
|164>    C      -52.79375        -7.36881        -0.38637
|165>    C      -52.74195        -6.22600        -1.11847
|166>    C      -51.45382        -5.64102        -1.13118
|167>    C      -47.34556        -1.81622         0.54717
|168>    O      -47.94029        -1.51725         1.70660
|169>    O      -47.83618        -1.44253        -0.48337
|170>    C      -51.10284        -4.50483        -2.04801
|171>    O      -51.36288        -3.26240        -1.65567
|172>    O      -50.63923        -4.72210        -3.13497
|173>    C      -51.81095        -2.97082        -0.33771
|174>    C      -51.31519        -1.58086         0.02676
|175>    C      -47.43887        -1.96707         2.95879
|176>    C      -48.04999        -3.30480         3.35589
|177>    H        3.96909         0.03498         0.99379
|178>    H       -2.79932        -2.32841         0.94558
|179>    H        0.13450         2.75121         1.63779
|180>    H        0.94730        -4.79757         2.60144
|181>    H        4.26488         3.15612        -2.66306
|182>    H        5.38913         3.04341        -1.28651
|183>    H       -2.98224        -6.11585        -1.73215
|184>    H       -4.12732        -5.74884        -0.41858
|185>    H        5.38073         5.27457        -3.38983
|186>    H        6.55098         3.95160        -3.31475
|187>    H        6.49594         5.16141        -2.02660
|188>    H       -4.08043        -8.33801        -2.06059
|189>    H       -5.25736        -7.03238        -2.24897
|190>    H       -5.21366        -7.97848        -0.75598
|191>    H        5.99018        -1.51925         1.31919
|192>    H        5.69690        -3.10561         0.58596
|193>    H        5.56862        -2.91280         2.32995
|194>    H       -4.07154         2.19109        -0.06692
|195>    H       -8.11428        -2.37665         0.46740
|196>    H      -10.70679        -2.18315         0.61262
|197>    H      -14.10784         2.88310         0.76762
|198>    H      -11.46517         4.60543        -1.74816
|199>    H      -12.58386         3.29093        -1.29908
|200>    H       -9.62140         2.86349        -1.96691
|201>    H      -10.93370         2.68585        -3.13759
|202>    H      -10.84470         1.60622        -1.74617
|203>    H       -5.65474         3.95200         1.84725
|204>    H       -6.61871         2.47740         2.11661
|205>    H       -7.69977         5.33993         2.18443
|206>    H       -7.39337         4.32288         3.60129
|207>    H       -8.66451         3.88599         2.44814
|208>    H      -16.32634         2.62807         0.25212
|209>    H      -22.14293        -1.52783         0.47489
|210>    H      -20.73186         4.19703         0.88917
|211>    H      -17.75811        -2.83849         1.93228
|212>    H      -16.71962         5.54530        -3.38384
|213>    H      -15.73061         5.83101        -1.93038
|214>    H      -21.39333        -5.29850        -2.15239
|215>    H      -22.53019        -5.24989        -0.78221
|216>    H      -16.19664         7.86056        -4.18031
|217>    H      -14.71004         6.93564        -3.93706
|218>    H      -15.21227         8.13762        -2.74171
|219>    H      -21.81516        -7.75018        -2.40744
|220>    H      -23.32762        -6.84510        -2.54287
|221>    H      -22.93969        -7.70514        -1.04775
|222>    H      -24.54461         2.53981        -0.41937
|223>    H      -27.55613        -2.76530         0.30466
|224>    H      -30.11170        -3.04606         0.71122
|225>    H      -34.29891         1.32700         1.53801
|226>    H      -32.26944         3.63385        -1.07023
|227>    H      -33.13761         2.15191        -0.59217
|228>    H      -30.25208         2.19784        -1.63337
|229>    H      -31.66895         1.87510        -2.63816
|230>    H      -31.24045         0.76138        -1.34058
|231>    H      -26.19678         3.92128         1.61220
|232>    H      -26.85911         2.31077         1.99276
|233>    H      -28.40883         4.94326         2.16961
|234>    H      -27.76009         4.04133         3.54876
|235>    H      -29.05792         3.34891         2.56435
|236>    H      -36.49108         0.66759         1.59717
|237>    H      -41.43011        -4.41131         0.59064
|238>    H      -41.08162         1.02450         2.83246
|239>    H      -36.81357        -5.20916         1.70219
|240>    H      -37.65007         4.44817        -0.72186
|241>    H      -36.67197         4.48586         0.76689
|242>    H      -40.16921        -7.14587        -2.90477
|243>    H      -41.19639        -7.64445        -1.53789
|244>    H      -37.67070         6.94952        -0.76018
|245>    H      -36.00988         6.34427        -0.77869
|246>    H      -36.70275         6.98617         0.71546
|247>    H      -40.19518        -9.49173        -3.77122
|248>    H      -41.84285        -8.86810        -3.62508
|249>    H      -41.20828        -9.98881        -2.41394
|250>    H      -44.69252        -0.89138         0.88983
|251>    H      -46.01840        -6.76396         0.67792
|252>    H      -48.29434        -7.97322         0.29433
|253>    H      -53.63683        -8.00788        -0.21562
|254>    H      -53.58281        -5.81417        -1.64721
|255>    H      -51.42427        -3.71795         0.36586
|256>    H      -52.90784        -3.01168        -0.32232
|257>    H      -50.23323        -1.53502        -0.06542
|258>    H      -51.60139        -1.34201         1.04702
|259>    H      -51.74538        -0.84647        -0.64768
|260>    H      -47.73506        -1.19146         3.66985
|261>    H      -46.34614        -2.03267         2.93660
|262>    H      -49.13405        -3.24260         3.31029
|263>    H      -47.75160        -3.55287         4.37034
|264>    H      -47.71812        -4.09708         2.68951
|265> *
|266> 
|267>                          ****END OF INPUT****
================================================================================

                       ****************************
                       * Single Point Calculation *
                       ****************************

---------------------------------
CARTESIAN COORDINATES (ANGSTROEM)
---------------------------------
  C      1.088790    0.186250    0.735830
  C      1.966380   -0.892220    0.950510
  C      1.457100   -2.202040    1.103150
  C      0.099080   -2.512910    1.047040
  C     -0.782920   -1.427690    0.864970
  C     -0.270840   -0.117000    0.714010
  C      3.387920   -0.866970    1.047880
  C      3.947860   -2.082650    1.231230
  S      2.750920   -3.351330    1.310930
  C     -2.199180   -1.447620    0.809860
  C     -2.758520   -0.225880    0.580550
  S     -1.550230    1.035130    0.446130
  C      1.546820    1.543240    0.526560
  C     -0.357570   -3.881060    1.133990
  C      0.981270    2.703140    0.979260
  C      1.656700    3.850190    0.533010
  C      2.735260    3.603760   -0.276510
  S      2.931930    1.892630   -0.479680
  C      0.155070   -4.904260    1.884630
  C     -0.502010   -6.124670    1.665470
  C     -1.513610   -6.075600    0.740480
  S     -1.665910   -4.460770    0.129320
  S      3.786080    4.800690   -0.986160
  C      4.891980    3.725910   -1.976780
  S     -2.522580   -7.404280    0.236500
  C     -3.617550   -6.547790   -0.958250
  F      1.271520    5.088930    0.878160
  F     -0.163980   -7.248430    2.316780
  C      5.892890    4.584380   -2.723660
  C     -4.604250   -7.538710   -1.541890
  C      5.385950   -2.421270    1.374860
  C     -4.138260    0.102950    0.460160
  S     -5.386080   -1.085170    0.711470
  C     -6.629400    0.090370    0.385460
  C     -6.079510    1.325600    0.096970
  C     -4.677240    1.327170    0.143830
  C     -8.014040   -0.221310    0.485110
  C     -8.648470   -1.444680    0.518720
  C    -10.038200   -1.340550    0.598160
  C    -10.486810   -0.036970    0.649340
  S     -9.156930    1.078920    0.607590
  C    -11.820710    0.456700    0.676330
  S    -13.194750   -0.604660    0.535780
  C    -13.617660    1.929240    0.691770
  C    -12.225600    1.778100    0.743490
  C     -6.863990    2.498470   -0.411850
  O     -7.034620    3.543190    0.385670
  O     -7.294750    2.515020   -1.537340
  C    -11.310000    2.933250    1.006320
  O    -11.073790    3.805200    0.031560
  O    -10.831330    3.111030    2.097940
  C    -11.535340    3.610630   -1.301890
  C    -10.676560    2.625940   -2.083870
  C     -6.655990    3.512540    1.758800
  C     -7.672010    4.318160    2.551540
  C    -19.110060    1.954330    0.060830
  C    -17.959930    1.163160    0.256630
  C    -18.074250   -0.237740    0.425700
  C    -19.295420   -0.912200    0.426210
  C    -20.453200   -0.115200    0.282830
  C    -20.328650    1.284090    0.100300
  C    -16.616680    1.597470    0.317590
  C    -15.713250    0.586150    0.480240
  S    -16.499000   -0.973060    0.582270
  C    -21.812820   -0.519930    0.302690
  C    -22.694720    0.501570    0.103690
  S    -21.881340    2.038580   -0.108060
  C    -19.046690    3.375360   -0.196250
  C    -19.349010   -2.351200    0.541960
  C    -19.908240    4.354210    0.218570
  C    -19.574000    5.623740   -0.277600
  C    -18.468350    5.652470   -1.088770
  S    -17.813580    4.053630   -1.234660
  C    -18.528150   -3.175480    1.264230
  C    -18.829560   -4.534370    1.090930
  C    -19.866820   -4.788990    0.229660
  S    -20.500880   -3.293820   -0.376060
  S    -17.787800    7.058520   -1.861130
  C    -16.341750    6.305310   -2.699130
  S    -20.485630   -6.358920   -0.203270
  C    -21.838150   -5.878800   -1.343390
  F    -20.283100    6.721230    0.026900
  F    -18.154310   -5.505610    1.723980
  C    -15.567140    7.379430   -3.435670
  C    -22.522470   -7.125160   -1.867540
  C    -14.298750    0.737470    0.576460
  C    -24.118120    0.487410    0.083190
  S    -25.059770   -0.938060    0.419770
  C    -26.548060   -0.052760    0.223000
  C    -26.298600    1.269980   -0.093540
  C    -24.931500    1.567350   -0.169790
  C    -27.830510   -0.629550    0.445690
  C    -28.234630   -1.946750    0.466470
  C    -29.605770   -2.097050    0.685630
  C    -30.267130   -0.899130    0.861670
  S    -29.164120    0.436660    0.762040
  C    -31.656040   -0.650290    1.047690
  S    -32.840010   -1.921710    0.928210
  C    -33.664260    0.480200    1.348250
  C    -32.268790    0.571670    1.264000
  C    -27.351550    2.255140   -0.505580
  O    -27.642350    3.252610    0.317950
  O    -27.892390    2.175330   -1.579520
  C    -31.539690    1.852980    1.522330
  O    -31.565080    2.806530    0.596390
  O    -30.977510    2.052230    2.569640
  C    -32.149880    2.616900   -0.689370
  C    -31.267780    1.808750   -1.630840
  C    -27.111810    3.316660    1.638950
  C    -28.155230    3.954580    2.540820
  C    -39.125770   -0.456280    1.320510
  C    -37.838510   -1.027370    1.235740
  C    -37.685680   -2.412070    0.981690
  C    -38.758950   -3.282690    0.799630
  C    -40.048030   -2.714740    0.894970
  C    -40.196810   -1.329690    1.152160
  C    -36.591300   -0.374180    1.362320
  C    -35.514020   -1.192530    1.170860
  S    -36.000050   -2.843080    0.861240
  C    -41.302650   -3.357230    0.754180
  C    -42.369220   -2.512410    0.849290
  S    -41.874990   -0.862490    1.158800
  C    -39.347330    0.955880    1.535440
  C    -38.538100   -4.678870    0.499940
  C    -40.350470    1.552980    2.250190
  C    -40.299730    2.954300    2.200590
  C    -39.277390    3.467250    1.443490
  S    -38.340700    2.168810    0.777990
  C    -37.541500   -5.494160    0.966070
  C    -37.595070   -6.786910    0.424350
  C    -38.611910   -6.993130   -0.473460
  S    -39.540010   -5.539500   -0.645510
  S    -38.936720    5.154530    1.174050
  C    -37.407920    5.026340    0.170560
  S    -38.958890   -8.476190   -1.319010
  C    -40.451200   -7.979130   -2.260460
  F    -41.182410    3.726600    2.852120
  F    -36.720660   -7.745250    0.767070
  C    -36.918220    6.415650   -0.184820
  C    -40.954790   -9.158100   -3.068330
  C    -34.143890   -0.800410    1.182800
  C    -43.752010   -2.824500    0.723360
  S    -44.294710   -4.459660    0.479120
  C    -45.959690   -3.945340    0.415580
  C    -46.058940   -2.579770    0.589160
  C    -44.813450   -1.952400    0.756800
  C    -47.003280   -4.898940    0.232750
  C    -46.929590   -6.264240    0.400230
  C    -48.149910   -6.912170    0.197300
  C    -49.164530   -6.053880   -0.155610
  S    -48.607850   -4.408590   -0.228060
  C    -50.536520   -6.364380   -0.405540
  S    -51.276370   -7.772750    0.306670
  C    -52.793750   -7.368810   -0.386370
  C    -52.741950   -6.226000   -1.118470
  C    -51.453820   -5.641020   -1.131180
  C    -47.345560   -1.816220    0.547170
  O    -47.940290   -1.517250    1.706600
  O    -47.836180   -1.442530   -0.483370
  C    -51.102840   -4.504830   -2.048010
  O    -51.362880   -3.262400   -1.655670
  O    -50.639230   -4.722100   -3.134970
  C    -51.810950   -2.970820   -0.337710
  C    -51.315190   -1.580860    0.026760
  C    -47.438870   -1.967070    2.958790
  C    -48.049990   -3.304800    3.355890
  H      3.969090    0.034980    0.993790
  H     -2.799320   -2.328410    0.945580
  H      0.134500    2.751210    1.637790
  H      0.947300   -4.797570    2.601440
  H      4.264880    3.156120   -2.663060
  H      5.389130    3.043410   -1.286510
  H     -2.982240   -6.115850   -1.732150
  H     -4.127320   -5.748840   -0.418580
  H      5.380730    5.274570   -3.389830
  H      6.550980    3.951600   -3.314750
  H      6.495940    5.161410   -2.026600
  H     -4.080430   -8.338010   -2.060590
  H     -5.257360   -7.032380   -2.248970
  H     -5.213660   -7.978480   -0.755980
  H      5.990180   -1.519250    1.319190
  H      5.696900   -3.105610    0.585960
  H      5.568620   -2.912800    2.329950
  H     -4.071540    2.191090   -0.066920
  H     -8.114280   -2.376650    0.467400
  H    -10.706790   -2.183150    0.612620
  H    -14.107840    2.883100    0.767620
  H    -11.465170    4.605430   -1.748160
  H    -12.583860    3.290930   -1.299080
  H     -9.621400    2.863490   -1.966910
  H    -10.933700    2.685850   -3.137590
  H    -10.844700    1.606220   -1.746170
  H     -5.654740    3.952000    1.847250
  H     -6.618710    2.477400    2.116610
  H     -7.699770    5.339930    2.184430
  H     -7.393370    4.322880    3.601290
  H     -8.664510    3.885990    2.448140
  H    -16.326340    2.628070    0.252120
  H    -22.142930   -1.527830    0.474890
  H    -20.731860    4.197030    0.889170
  H    -17.758110   -2.838490    1.932280
  H    -16.719620    5.545300   -3.383840
  H    -15.730610    5.831010   -1.930380
  H    -21.393330   -5.298500   -2.152390
  H    -22.530190   -5.249890   -0.782210
  H    -16.196640    7.860560   -4.180310
  H    -14.710040    6.935640   -3.937060
  H    -15.212270    8.137620   -2.741710
  H    -21.815160   -7.750180   -2.407440
  H    -23.327620   -6.845100   -2.542870
  H    -22.939690   -7.705140   -1.047750
  H    -24.544610    2.539810   -0.419370
  H    -27.556130   -2.765300    0.304660
  H    -30.111700   -3.046060    0.711220
  H    -34.298910    1.327000    1.538010
  H    -32.269440    3.633850   -1.070230
  H    -33.137610    2.151910   -0.592170
  H    -30.252080    2.197840   -1.633370
  H    -31.668950    1.875100   -2.638160
  H    -31.240450    0.761380   -1.340580
  H    -26.196780    3.921280    1.612200
  H    -26.859110    2.310770    1.992760
  H    -28.408830    4.943260    2.169610
  H    -27.760090    4.041330    3.548760
  H    -29.057920    3.348910    2.564350
  H    -36.491080    0.667590    1.597170
  H    -41.430110   -4.411310    0.590640
  H    -41.081620    1.024500    2.832460
  H    -36.813570   -5.209160    1.702190
  H    -37.650070    4.448170   -0.721860
  H    -36.671970    4.485860    0.766890
  H    -40.169210   -7.145870   -2.904770
  H    -41.196390   -7.644450   -1.537890
  H    -37.670700    6.949520   -0.760180
  H    -36.009880    6.344270   -0.778690
  H    -36.702750    6.986170    0.715460
  H    -40.195180   -9.491730   -3.771220
  H    -41.842850   -8.868100   -3.625080
  H    -41.208280   -9.988810   -2.413940
  H    -44.692520   -0.891380    0.889830
  H    -46.018400   -6.763960    0.677920
  H    -48.294340   -7.973220    0.294330
  H    -53.636830   -8.007880   -0.215620
  H    -53.582810   -5.814170   -1.647210
  H    -51.424270   -3.717950    0.365860
  H    -52.907840   -3.011680   -0.322320
  H    -50.233230   -1.535020   -0.065420
  H    -51.601390   -1.342010    1.047020
  H    -51.745380   -0.846470   -0.647680
  H    -47.735060   -1.191460    3.669850
  H    -46.346140   -2.032670    2.936600
  H    -49.134050   -3.242600    3.310290
  H    -47.751600   -3.552870    4.370340
  H    -47.718120   -4.097080    2.689510

----------------------------
CARTESIAN COORDINATES (A.U.)
----------------------------
  NO LB      ZA    FRAG     MASS         X           Y           Z
   0 C     6.0000    0    12.011    2.057515    0.351961    1.390517
   1 C     6.0000    0    12.011    3.715920   -1.686051    1.796204
   2 C     6.0000    0    12.011    2.753520   -4.161253    2.084651
   3 C     6.0000    0    12.011    0.187234   -4.748712    1.978619
   4 C     6.0000    0    12.011   -1.479504   -2.697943    1.634556
   5 C     6.0000    0    12.011   -0.511813   -0.221098    1.349283
   6 C     6.0000    0    12.011    6.402241   -1.638336    1.980206
   7 C     6.0000    0    12.011    7.460374   -3.935638    2.326688
   8 S    16.0000    0    32.060    5.198485   -6.333096    2.477299
   9 C     6.0000    0    12.011   -4.155848   -2.735605    1.530414
  10 C     6.0000    0    12.011   -5.212847   -0.426851    1.097081
  11 S    16.0000    0    32.060   -2.929510    1.956112    0.843064
  12 C     6.0000    0    12.011    2.923066    2.916301    0.995054
  13 C     6.0000    0    12.011   -0.675709   -7.334141    2.142931
  14 C     6.0000    0    12.011    1.854332    5.108194    1.850533
  15 C     6.0000    0    12.011    3.130709    7.275805    1.007243
  16 C     6.0000    0    12.011    5.168892    6.810119   -0.522528
  17 S    16.0000    0    32.060    5.540545    3.576552   -0.906464
  18 C     6.0000    0    12.011    0.293040   -9.267708    3.561435
  19 C     6.0000    0    12.011   -0.948661  -11.573949    3.147282
  20 C     6.0000    0    12.011   -2.860308  -11.481220    1.399304
  21 S    16.0000    0    32.060   -3.148114   -8.429634    0.244379
  22 S    16.0000    0    32.060    7.154654    9.071989   -1.863572
  23 C     6.0000    0    12.011    9.244502    7.040949   -3.735573
  24 S    16.0000    0    32.060   -4.766985  -13.992061    0.446920
  25 C     6.0000    0    12.011   -6.836179  -12.373530   -1.810830
  26 F     9.0000    0    18.998    2.402825    9.616684    1.659482
  27 F     9.0000    0    18.998   -0.309877  -13.697548    4.378080
  28 C     6.0000    0    12.011   11.135948    8.663223   -5.146971
  29 C     6.0000    0    12.011   -8.700772  -14.246097   -2.913750
  30 C     6.0000    0    12.011   10.177970   -4.575537    2.598109
  31 C     6.0000    0    12.011   -7.820178    0.194547    0.869576
  32 S    16.0000    0    32.060  -10.178216   -2.050674    1.344483
  33 C     6.0000    0    12.011  -12.527750    0.170775    0.728414
  34 C     6.0000    0    12.011  -11.488609    2.505021    0.183247
  35 C     6.0000    0    12.011   -8.838703    2.507988    0.271799
  36 C     6.0000    0    12.011  -15.144341   -0.418215    0.916725
  37 C     6.0000    0    12.011  -16.343240   -2.730050    0.980239
  38 C     6.0000    0    12.011  -18.969449   -2.533272    1.130359
  39 C     6.0000    0    12.011  -19.817199   -0.069863    1.227075
  40 S    16.0000    0    32.060  -17.304090    2.038863    1.148179
  41 C     6.0000    0    12.011  -22.337905    0.863038    1.278078
  42 S    16.0000    0    32.060  -24.934464   -1.142642    1.012477
  43 C     6.0000    0    12.011  -25.733648    3.645735    1.307256
  44 C     6.0000    0    12.011  -23.103036    3.360122    1.404992
  45 C     6.0000    0    12.011  -12.971061    4.721424   -0.778284
  46 O     8.0000    0    15.999  -13.293505    6.695659    0.728811
  47 O     8.0000    0    15.999  -13.785080    4.752699   -2.905152
  48 C     6.0000    0    12.011  -21.372803    5.543039    1.901669
  49 O     8.0000    0    15.999  -20.926430    7.190786    0.059640
  50 O     8.0000    0    15.999  -20.468247    5.878995    3.964532
  51 C     6.0000    0    12.011  -21.798633    6.823102   -2.460216
  52 C     6.0000    0    12.011  -20.175774    4.962307   -3.937944
  53 C     6.0000    0    12.011  -12.577998    6.637739    3.323650
  54 C     6.0000    0    12.011  -14.497998    8.160140    4.821712
  55 C     6.0000    0    12.011  -36.112780    3.693148    0.114952
  56 C     6.0000    0    12.011  -33.939349    2.198054    0.484960
  57 C     6.0000    0    12.011  -34.155383   -0.449263    0.804456
  58 C     6.0000    0    12.011  -36.463059   -1.723808    0.805420
  59 C     6.0000    0    12.011  -38.650947   -0.217696    0.534471
  60 C     6.0000    0    12.011  -38.415581    2.426578    0.189540
  61 C     6.0000    0    12.011  -31.400974    3.018781    0.600158
  62 C     6.0000    0    12.011  -29.693739    1.107663    0.907522
  63 S    16.0000    0    32.060  -31.178591   -1.838817    1.100331
  64 C     6.0000    0    12.011  -41.220256   -0.982525    0.572001
  65 C     6.0000    0    12.011  -42.886805    0.947830    0.195946
  66 S    16.0000    0    32.060  -41.349740    3.852358   -0.204204
  67 C     6.0000    0    12.011  -35.993028    6.378506   -0.370859
  68 C     6.0000    0    12.011  -36.564330   -4.443124    1.024156
  69 C     6.0000    0    12.011  -37.621121    8.228264    0.413037
  70 C     6.0000    0    12.011  -36.989499   10.627328   -0.524588
  71 C     6.0000    0    12.011  -34.900124   10.681620   -2.057477
  72 S    16.0000    0    32.060  -33.662788    7.660251   -2.333169
  73 C     6.0000    0    12.011  -35.013129   -6.000788    2.389048
  74 C     6.0000    0    12.011  -35.582712   -8.568717    2.061559
  75 C     6.0000    0    12.011  -37.542849   -9.049880    0.433995
  76 S    16.0000    0    32.060  -38.741049   -6.224418   -0.710650
  77 S    16.0000    0    32.060  -33.614071   13.338670   -3.517026
  78 C     6.0000    0    12.011  -30.881432   11.915309   -5.100616
  79 S    16.0000    0    32.060  -38.712230  -12.016617   -0.384125
  80 C     6.0000    0    12.011  -41.268123  -11.109322   -2.538639
  81 F     9.0000    0    18.998  -38.329504   12.701284    0.050834
  82 F     9.0000    0    18.998  -34.306674  -10.404095    3.257850
  83 C     6.0000    0    12.011  -29.417631   13.945102   -6.492475
  84 C     6.0000    0    12.011  -42.561300  -13.464601   -3.529139
  85 C     6.0000    0    12.011  -27.020722    1.393616    1.089352
  86 C     6.0000    0    12.011  -45.576642    0.921071    0.157206
  87 S    16.0000    0    32.060  -47.356102   -1.772676    0.793250
  88 C     6.0000    0    12.011  -50.168563   -0.099702    0.421409
  89 C     6.0000    0    12.011  -49.697152    2.399914   -0.176765
  90 C     6.0000    0    12.011  -47.113707    2.961862   -0.320857
  91 C     6.0000    0    12.011  -52.592042   -1.189677    0.842232
  92 C     6.0000    0    12.011  -53.355718   -3.678824    0.881501
  93 C     6.0000    0    12.011  -55.946797   -3.962850    1.295653
  94 C     6.0000    0    12.011  -57.196587   -1.699109    1.628320
  95 S    16.0000    0    32.060  -55.112200    0.825168    1.440047
  96 C     6.0000    0    12.011  -59.821246   -1.228870    1.979847
  97 S    16.0000    0    32.060  -62.058625   -3.631506    1.754063
  98 C     6.0000    0    12.011  -63.616232    0.907446    2.547823
  99 C     6.0000    0    12.011  -60.979176    1.080300    2.388614
 100 C     6.0000    0    12.011  -51.686939    4.261597   -0.955408
 101 O     8.0000    0    15.999  -52.236471    6.146542    0.600838
 102 O     8.0000    0    15.999  -52.708978    4.110778   -2.984860
 103 C     6.0000    0    12.011  -59.601376    3.501625    2.876787
 104 O     8.0000    0    15.999  -59.649357    5.303573    1.127014
 105 O     8.0000    0    15.999  -58.539010    3.878153    4.855916
 106 C     6.0000    0    12.011  -60.754468    4.945224   -1.302721
 107 C     6.0000    0    12.011  -59.087541    3.418042   -3.081841
 108 C     6.0000    0    12.011  -51.233896    6.267579    3.097167
 109 C     6.0000    0    12.011  -53.205674    7.473073    4.801454
 110 C     6.0000    0    12.011  -73.936990   -0.862244    2.495402
 111 C     6.0000    0    12.011  -71.504421   -1.941448    2.335210
 112 C     6.0000    0    12.011  -71.215614   -4.558152    1.855125
 113 C     6.0000    0    12.011  -73.243801   -6.203385    1.511082
 114 C     6.0000    0    12.011  -75.679809   -5.130115    1.691248
 115 C     6.0000    0    12.011  -75.960962   -2.512750    2.177267
 116 C     6.0000    0    12.011  -69.147536   -0.707098    2.574412
 117 C     6.0000    0    12.011  -67.111772   -2.253555    2.212605
 118 S    16.0000    0    32.060  -68.030235   -5.372643    1.627508
 119 C     6.0000    0    12.011  -78.050697   -6.344245    1.425194
 120 C     6.0000    0    12.011  -80.066222   -4.747767    1.604926
 121 S    16.0000    0    32.060  -79.132263   -1.629870    2.189815
 122 C     6.0000    0    12.011  -74.355678    1.806351    2.901561
 123 C     6.0000    0    12.011  -72.826455   -8.841783    0.944750
 124 C     6.0000    0    12.011  -76.251338    2.934707    4.252243
 125 C     6.0000    0    12.011  -76.155453    5.582818    4.158512
 126 C     6.0000    0    12.011  -74.223510    6.552153    2.727801
 127 S    16.0000    0    32.060  -72.453423    4.098457    1.470188
 128 C     6.0000    0    12.011  -70.943154  -10.382458    1.825608
 129 C     6.0000    0    12.011  -71.044386  -12.825401    0.801905
 130 C     6.0000    0    12.011  -72.965935  -13.215101   -0.894710
 131 S    16.0000    0    32.060  -74.719790  -10.468138   -1.219837
 132 S    16.0000    0    32.060  -73.579737    9.740650    2.218633
 133 C     6.0000    0    12.011  -70.690724    9.498406    0.322312
 134 S    16.0000    0    32.060  -73.621633  -16.017678   -2.492568
 135 C     6.0000    0    12.011  -76.441690  -15.078370   -4.271650
 136 F     9.0000    0    18.998  -77.823476    7.042253    5.389726
 137 F     9.0000    0    18.998  -69.391991  -14.636401    1.449552
 138 C     6.0000    0    12.011  -69.765325   12.123821   -0.349259
 139 C     6.0000    0    12.011  -77.393337  -17.306301   -5.798303
 140 C     6.0000    0    12.011  -64.522601   -1.512556    2.235168
 141 C     6.0000    0    12.011  -82.679317   -5.337531    1.366952
 142 S    16.0000    0    32.060  -83.704871   -8.427536    0.905406
 143 C     6.0000    0    12.011  -86.851227   -7.455612    0.785332
 144 C     6.0000    0    12.011  -87.038783   -4.875059    1.113351
 145 C     6.0000    0    12.011  -84.685148   -3.689501    1.430145
 146 C     6.0000    0    12.011  -88.823327   -9.257655    0.439834
 147 C     6.0000    0    12.011  -88.684073  -11.837698    0.756325
 148 C     6.0000    0    12.011  -90.990143  -13.062108    0.372843
 149 C     6.0000    0    12.011  -92.907497  -11.440175   -0.294060
 150 S    16.0000    0    32.060  -91.855524   -8.331028   -0.430971
 151 C     6.0000    0    12.011  -95.500183  -12.026935   -0.766360
 152 S    16.0000    0    32.060  -96.898296  -14.688369    0.579522
 153 C     6.0000    0    12.011  -99.765729  -13.925033   -0.730133
 154 C     6.0000    0    12.011  -99.667841  -11.765435   -2.113602
 155 C     6.0000    0    12.011  -97.233628  -10.659983   -2.137620
 156 C     6.0000    0    12.011  -89.470142   -3.432158    1.034001
 157 O     8.0000    0    15.999  -90.594019   -2.867187    3.225007
 158 O     8.0000    0    15.999  -90.397279   -2.725987   -0.913437
 159 C     6.0000    0    12.011  -96.570372   -8.512895   -3.870178
 160 O     8.0000    0    15.999  -97.061777   -6.165043   -3.128763
 161 O     8.0000    0    15.999  -95.694276   -8.923476   -5.924235
 162 C     6.0000    0    12.011  -97.908506   -5.614036   -0.638179
 163 C     6.0000    0    12.011  -96.971656   -2.987392    0.050569
 164 C     6.0000    0    12.011  -89.646472   -3.717224    5.591303
 165 C     6.0000    0    12.011  -90.801322   -6.245167    6.341713
 166 H     1.0000    0     1.008    7.500493    0.066103    1.877991
 167 H     1.0000    0     1.008   -5.289948   -4.400057    1.786887
 168 H     1.0000    0     1.008    0.254168    5.199033    3.094975
 169 H     1.0000    0     1.008    1.790138   -9.066093    4.916009
 170 H     1.0000    0     1.008    8.059455    5.964202   -5.032454
 171 H     1.0000    0     1.008   10.183980    5.751211   -2.431152
 172 H     1.0000    0     1.008   -5.635617  -11.557282   -3.273289
 173 H     1.0000    0     1.008   -7.799504  -10.863733   -0.791002
 174 H     1.0000    0     1.008   10.168106    9.967493   -6.405850
 175 H     1.0000    0     1.008   12.379558    7.467442   -6.263970
 176 H     1.0000    0     1.008   12.275548    9.753651   -3.829719
 177 H     1.0000    0     1.008   -7.710895  -15.756555   -3.893951
 178 H     1.0000    0     1.008   -9.934971  -13.289272   -4.249937
 179 H     1.0000    0     1.008   -9.852390  -15.077142   -1.428595
 180 H     1.0000    0     1.008   11.319800   -2.870966    2.492908
 181 H     1.0000    0     1.008   10.765581   -5.868752    1.107304
 182 H     1.0000    0     1.008   10.523167   -5.504394    4.402967
 183 H     1.0000    0     1.008   -7.694096    4.140560   -0.126460
 184 H     1.0000    0     1.008  -15.333767   -4.491218    0.883258
 185 H     1.0000    0     1.008  -20.232901   -4.125556    1.157684
 186 H     1.0000    0     1.008  -26.659954    5.448269    1.450592
 187 H     1.0000    0     1.008  -21.666031    8.703001   -3.303544
 188 H     1.0000    0     1.008  -23.780049    6.218956   -2.454905
 189 H     1.0000    0     1.008  -18.181811    5.411212   -3.716921
 190 H     1.0000    0     1.008  -20.661699    5.075521   -5.929186
 191 H     1.0000    0     1.008  -20.493513    3.035316   -3.299783
 192 H     1.0000    0     1.008  -10.685910    7.468198    3.490797
 193 H     1.0000    0     1.008  -12.507549    4.681608    3.999813
 194 H     1.0000    0     1.008  -14.550457   10.091005    4.127974
 195 H     1.0000    0     1.008  -13.971445    8.169059    6.805452
 196 H     1.0000    0     1.008  -16.373551    7.343457    4.626314
 197 H     1.0000    0     1.008  -30.852311    4.966333    0.476438
 198 H     1.0000    0     1.008  -41.844074   -2.887180    0.897412
 199 H     1.0000    0     1.008  -39.177538    7.931237    1.680288
 200 H     1.0000    0     1.008  -33.557965   -5.363969    3.651480
 201 H     1.0000    0     1.008  -31.595503   10.479098   -6.394531
 202 H     1.0000    0     1.008  -29.726545   11.019012   -3.647890
 203 H     1.0000    0     1.008  -40.427535  -10.012714   -4.067428
 204 H     1.0000    0     1.008  -42.575889   -9.920854   -1.478163
 205 H     1.0000    0     1.008  -30.607214   14.854306   -7.899641
 206 H     1.0000    0     1.008  -27.797947   13.106460   -7.439965
 207 H     1.0000    0     1.008  -28.747024   15.377873   -5.181081
 208 H     1.0000    0     1.008  -41.224678  -14.645718   -4.549402
 209 H     1.0000    0     1.008  -44.082813  -12.935364   -4.805328
 210 H     1.0000    0     1.008  -43.349732  -14.560604   -1.979961
 211 H     1.0000    0     1.008  -46.382591    4.799545   -0.792494
 212 H     1.0000    0     1.008  -52.073539   -5.225660    0.575724
 213 H     1.0000    0     1.008  -56.902866   -5.756219    1.344011
 214 H     1.0000    0     1.008  -64.815547    2.507667    2.906418
 215 H     1.0000    0     1.008  -60.980404    6.866981   -2.022442
 216 H     1.0000    0     1.008  -62.621008    4.066521   -1.119039
 217 H     1.0000    0     1.008  -57.168146    4.153316   -3.086622
 218 H     1.0000    0     1.008  -59.845642    3.543425   -4.985400
 219 H     1.0000    0     1.008  -59.035895    1.438800   -2.533329
 220 H     1.0000    0     1.008  -49.504740    7.410145    3.046616
 221 H     1.0000    0     1.008  -50.756362    4.366722    3.765771
 222 H     1.0000    0     1.008  -53.684908    9.341408    4.099969
 223 H     1.0000    0     1.008  -52.458968    7.637007    6.706185
 224 H     1.0000    0     1.008  -54.911511    6.328523    4.845919
 225 H     1.0000    0     1.008  -68.958148    1.261562    3.018214
 226 H     1.0000    0     1.008  -78.291562   -8.336168    1.116148
 227 H     1.0000    0     1.008  -77.633011    1.936024    5.352574
 228 H     1.0000    0     1.008  -69.567565   -9.843886    3.216673
 229 H     1.0000    0     1.008  -71.148321    8.405823   -1.364118
 230 H     1.0000    0     1.008  -69.299980    8.477047    1.449212
 231 H     1.0000    0     1.008  -75.908806  -13.503737   -5.489220
 232 H     1.0000    0     1.008  -77.849895  -14.445917   -2.906191
 233 H     1.0000    0     1.008  -71.187306   13.132690   -1.436532
 234 H     1.0000    0     1.008  -68.048811   11.988933   -1.471511
 235 H     1.0000    0     1.008  -69.358146   13.201948    1.352023
 236 H     1.0000    0     1.008  -75.957882  -17.936770   -7.126573
 237 H     1.0000    0     1.008  -79.071527  -16.758280   -6.850408
 238 H     1.0000    0     1.008  -77.872364  -18.876115   -4.561686
 239 H     1.0000    0     1.008  -84.456623   -1.684464    1.681535
 240 H     1.0000    0     1.008  -86.962173  -12.782032    1.281083
 241 H     1.0000    0     1.008  -91.263076  -15.067202    0.556203
 242 H     1.0000    0     1.008  -101.358919  -15.132700   -0.407463
 243 H     1.0000    0     1.008  -101.256836  -10.987189   -3.112776
 244 H     1.0000    0     1.008  -97.177787   -7.025907    0.691375
 245 H     1.0000    0     1.008  -99.981328   -5.691250   -0.609097
 246 H     1.0000    0     1.008  -94.927048   -2.900767   -0.123626
 247 H     1.0000    0     1.008  -97.512495   -2.536031    1.978581
 248 H     1.0000    0     1.008  -97.784597   -1.599596   -1.223938
 249 H     1.0000    0     1.008  -90.206190   -2.251533    6.935011
 250 H     1.0000    0     1.008  -87.581512   -3.841190    5.549370
 251 H     1.0000    0     1.008  -92.849898   -6.127626    6.255542
 252 H     1.0000    0     1.008  -90.237446   -6.713951    8.258746
 253 H     1.0000    0     1.008  -90.174178   -7.742359    5.082437

--------------------------------
INTERNAL COORDINATES (ANGSTROEM)
--------------------------------
 C      0   0   0     0.000000000000     0.00000000     0.00000000
 C      1   0   0     1.406893475498     0.00000000     0.00000000
 C      2   1   0     1.413610101973   120.13421560     0.00000000
 C      3   2   1     1.394276446549   123.58314861     0.36237899
 C      4   3   2     1.410239672290   116.28154999   358.13405528
 C      1   2   3     1.393208674894   116.37742759     1.27193443
 C      2   1   3     1.425094541074   128.24800056   180.17360878
 C      7   2   1     1.350935930568   114.00260447   181.29144222
 S      3   2   1     1.742988876872   110.87990809   178.41510964
 C      5   4   3     1.417471941380   128.24975667   181.93098416
 C     10   5   4     1.363118828019   113.82384352   181.91272782
 S      6   1   2     1.742412696063   125.10311331   180.83463727
 C      1   2   3     1.447413995338   122.91137035   182.15931676
 C      4   3   2     1.444965033314   121.09761282   176.42817373
 C     13   1   2     1.367535046169   128.05745600   217.74762444
 C     15  13   1     1.403947452685   112.87923563   182.92190783
 C     16  15  13     1.370890969005   114.79246991     0.72514931
 S     17  16  15     1.734336476783   109.61788974   359.37576518
 C     14   4   3     1.368648391370   128.49802618    36.06537198
 C     19  14   4     1.403276808082   112.90062180   183.22305192
 C     20  19  14     1.371622734209   114.80623567     0.73728720
 S     21  20  19     1.733316983272   109.62818349   359.54180008
 S     17  16  15     1.743693556735   126.23258834   180.39349110
 C     23  17  16     1.832892479880   100.43133704   182.94863073
 S     21  20  19     1.742815780196   126.49215243   179.96270611
 C     25  21  20     1.833019908102   100.25837589   178.83467281
 F     16  15  13     1.342374367492   122.28772288   180.82161994
 F     20  19  14     1.342127242328   122.30747499   180.91036616
 C     24  23  17     1.515460756140   109.43232623   178.70048961
 C     26  25  21     1.515300295651   109.53991825   179.88600113
 C      8   7   2     1.484384023560   128.31400254   180.09963104
 C     11  10   5     1.423483539982   128.24320871   179.60004772
 S     32  11  10     1.741218137655   121.65357492     4.34045295
 C     33  32  11     1.741844262298    91.37593115   180.13871144
 C     34  33  32     1.382533415546   110.98514438     0.16727848
 C     32  11  10     1.374510355618   127.24932300   184.52421426
 C     34  33  32     1.422779840488   122.25643554   183.08706023
 C     37  34  33     1.378501075045   130.09176645   343.00695295
 C     38  37  34     1.395887976666   113.16536753   181.12310656
 C     39  38  37     1.379561938044   113.35011853   358.96646988
 S     37  34  33     1.735452953958   118.79762084   162.14806350
 C     40  39  38     1.422577849891   129.31090047   177.02758433
 S     42  40  39     1.741902773894   121.78053684   355.73314123
 C     42  40  39     2.323282537209   160.96439450   183.84177489
 C     42  40  39     1.383670603034   127.35183327   179.18760157
 C     35  34  33     1.499976899722   124.15142131   171.14711484
 O     46  35  34     1.325365091475   118.65696445   110.83412026
 O     46  35  34     1.205220237218   120.96001265   288.38478827
 C     45  42  40     1.497255653320   124.49734552   350.39479731
 O     49  45  42     1.329003018883   119.08592151   111.47204974
 O     49  45  42     1.205141038095   121.04470171   288.44957557
 C     50  49  45     1.424420861227   122.64277926   352.81188853
 C     52  50  49     1.522698330235   112.72681647   281.56946483
 C     47  46  35     1.424705617417   121.92309015   351.35821449
 C     54  47  46     1.519788449884   108.27978482   216.01003129
 C     44  42  40     5.528577805521   140.39968513   166.98798001
 C     56  44  42     1.409640601643    34.00765647    13.16184886
 C     57  56  44     1.415688714831   120.40412433   176.80804055
 C     58  57  56     1.395045777242   123.30862494   359.25089213
 C     59  58  57     1.412876977235   116.39480898   358.31369156
 C     56  44  42     1.391309141277   149.84884727    23.33996260
 C     57  56  44     1.413032858854   127.52401851   357.07943537
 C     62  57  56     1.365799740006   113.97569256   181.78408920
 S     58  57  56     1.745457598969   110.77570556   177.66603230
 C     60  59  58     1.418720316659   128.53313720   182.76913931
 C     65  60  59     1.364115413006   113.82215168   181.43641486
 S     61  56  44     1.738825835384   124.72745541   173.49689151
 C     56  44  42     1.445486819103    88.92307888   199.02964452
 C     59  58  57     1.444642153130   120.93606327   177.14548987
 C     68  56  44     1.368390060399   128.44114626   219.32047777
 C     70  68  56     1.403427043847   112.95203176   183.12903136
 C     71  70  68     1.371599104804   114.83556407     0.65254505
 S     72  71  70     1.733867639297   109.56399740   359.63962570
 C     69  59  58     1.369278134967   128.29100968    34.90809314
 C     74  69  59     1.402662792762   112.90504474   183.13081285
 C     75  74  69     1.372051626179   114.82141295     0.71970550
 S     76  75  74     1.733338435188   109.62282421   359.47383366
 S     72  71  70     1.742602902155   126.42977319   180.10645990
 C     78  72  71     1.833202091042   100.32013801   178.29127716
 S     76  75  74     1.742135013683   126.28166437   179.87369361
 C     80  76  75     1.832948220545   100.40636150   179.29046129
 F     71  70  68     1.341650982968   122.26638720   180.90921099
 F     75  74  69     1.341648986360   122.33552453   180.88392288
 C     79  78  72     1.515336793620   109.52230012   180.96140392
 C     81  80  76     1.515401047413   109.44637135   179.34758630
 C     44  42  40     1.377496176801    80.41611346   172.96453641
 C     66  65  60     1.423618037115   129.87037854   181.35960639
 S     87  66  65     1.741251142081   123.09751792     3.63812605
 C     88  87  66     1.742837240536    91.38311784   178.49254040
 C     89  88  87     1.382775820876   110.95896675     0.34189146
 C     87  66  65     1.375447675631   125.88108899   182.25278181
 C     89  88  87     1.423711888937   123.07698288   183.79986680
 C     92  89  88     1.377955232509   130.82898407   339.43999686
 C     93  92  89     1.396655324409   113.15083897   181.71670710
 C     94  93  92     1.379637437010   113.40308380   358.81261131
 S     95  94  93     1.735192243269   110.87786638   359.67216214
 C     95  94  93     1.423234265362   129.51653646   177.00770494
 S     97  95  94     1.741427359295   121.79411318   353.94112920
 C     97  95  94     2.324067882421   160.94542962   182.30654301
 C     97  95  94     1.383993793411   127.36295941   177.72454280
 C     90  89  88     1.499673594386   124.37621845   171.52163856
 O    101  90  89     1.325787577932   118.52714965   111.71365702
 O    101  90  89     1.205082845824   121.09493104   289.15619394
 C    100  97  95     1.496688516359   124.55286912   351.45852156
 O    104 100  97     1.329386000453   118.98251147   110.99115733
 O    104 100  97     1.205240702515   121.24771781   288.11649205
 C    105 104 100     1.425176955504   122.73659608   353.81951599
 C    107 105 104     1.522357577378   113.00459913   282.86790804
 C    102 101  90     1.424996875119   121.86933895   351.91596657
 C    109 102 101     1.519551486360   108.26509707   213.86520220
 C     99  97  95     5.541286473203   140.24651509   169.02279271
 C    111  99  97     1.410804043303    33.84140337     5.39548843
 C    112 111  99     1.416083507919   120.33663022   184.29405764
 C    113 112 111     1.393927372893   123.44063310     0.15579754
 C    114 113 112     1.411872573747   116.29088695   359.35232436
 C    111  99  97     1.392233253518   149.86533991   358.59100005
 C    112 111  99     1.413581429066   127.77858283     3.54677053
 C    117 112 111     1.366340313575   113.97521472   182.78793672
 S    113 112 111     1.744025894160   110.99946038   177.64180735
 C    115 114 113     1.416575648739   128.27836751   179.95005079
 C    120 115 114     1.363942194303   113.87327578   182.57225481
 S    116 111  99     1.742012641171   124.91741239   186.37813549
 C    111  99  97     1.445503235590    89.15326220   183.47233241
 C    114 113 112     1.444959311192   120.85736253   177.96495000
 C    123 111  99     1.368826443381   128.03320304   213.72011814
 C    125 123 111     1.403115266113   112.99775505   182.82525115
 C    126 125 123     1.371676779748   114.83104874     0.67797568
 S    127 126 125     1.733846832826   109.53950565   359.64091556
 C    124 114 113     1.369374499909   128.01810822    35.75052834
 C    129 124 114     1.402687729254   112.92056967   182.53528011
 C    130 129 124     1.372061613084   114.80518467     0.72528915
 S    131 130 129     1.733208293714   109.61798050   359.62952851
 S    127 126 125     1.742288082063   126.38743485   179.87161164
 C    133 127 126     1.833208743215   100.36954506   176.96359637
 S    131 130 129     1.742072583591   126.38197995   180.17328394
 C    135 131 130     1.833135532960   100.40356023   178.31682237
 F    126 125 123     1.341664120896   122.27166784   181.02272016
 F    130 129 124     1.341814220412   122.32392738   181.05309782
 C    134 133 127     1.515349237140   109.49734665   180.14257576
 C    136 135 131     1.515330685329   109.47400497   181.14928242
 C     99  97  95     1.377454395434    80.39336512   172.71792856
 C    121 120 115     1.423153792497   128.15543019   178.38590958
 S    142 121 120     1.740093300142   121.43458009     2.77410944
 C    143 142 121     1.743766267136    91.47504827   180.86379348
 C    144 143 142     1.380131154565   110.84967589   359.47897092
 C    142 121 120     1.374165753175   127.53102758   183.45416709
 C    144 143 142     1.425433217306   120.42429907   180.70130861
 C    147 144 143     1.377506390729   127.46683515    16.60013679
 C    148 147 144     1.396486581461   113.29377484   177.37372238
 C    149 148 147     1.375013067792   113.10987877     1.30883993
 S    150 149 148     1.738424806829   111.41801992   359.55809764
 C    150 149 148     1.428716842135   128.15867807   181.64095900
 S    152 150 149     1.743022421973   120.77938067    25.01236117
 C    153 152 150     1.716366519599    91.15199328   177.51584456
 C    154 153 152     1.358185681746   112.45506392   359.96906235
 C    152 150 149     1.375224486838   128.20851988   201.76697548
 C    145 144 143     1.496717337041   124.26752664   178.09837451
 O    157 145 144     1.336923617377   118.17443475    97.61024292
 O    157 145 144     1.200984967475   122.27465564   275.85955399
 C    156 152 150     1.501563160643   124.35158304    13.37999097
 O    160 156 152     1.328602191064   118.78589589   254.37417405
 O    160 156 152     1.201508438006   120.38009001    76.97554909
 C    161 160 156     1.422253206324   121.80471015     7.70519110
 C    163 161 160     1.520067485377   107.87286336   149.97886550
 C    158 157 145     1.421878983915   122.41991932   356.07018378
 C    165 158 157     1.523377043709   111.46281069   269.12610145
 H      7   2   1     1.074336120355   123.43860708     2.02493172
 H     10   5   4     1.074420291180   124.38205544     2.66592019
 H     15  13   1     1.073774612617   124.54920401     5.21335692
 H     19  14   4     1.073698144312   124.62723114     5.70232563
 H     24  23  17     1.090364752044   107.43281960    57.55482277
 H     24  23  17     1.090613151122   107.45301432   299.83423312
 H     26  25  21     1.090464199183   107.43570353    58.72300432
 H     26  25  21     1.090610042270   107.39667803   301.04336236
 H     29  24  23     1.087406350267   110.51173263   300.01600303
 H     29  24  23     1.087603036314   109.74920650   180.09325731
 H     29  24  23     1.087439914202   110.54489744    60.13274872
 H     30  26  25     1.087344275011   110.53352598   299.72826496
 H     30  26  25     1.087605106369   109.69342724   179.82354831
 H     30  26  25     1.087397226914   110.54993341    59.89073716
 H     31   8   7     1.087121484564   110.13530183     0.37587950
 H     31   8   7     1.089667081314   110.46750335   239.92509069
 H     31   8   7     1.089571924152   110.49666627   120.89103705
 H     36  32  11     1.075939505223   122.64838207     0.97018269
 H     38  37  34     1.075435158157   122.63632318   359.92791459
 H     39  38  37     1.075730653881   124.13286646   178.59341158
 H     44  42  40     1.075117925857   156.26877900   348.55215748
 H     52  50  49     1.092569348737   103.72074410   162.56587963
 H     52  50  49     1.096179810296   110.32694727    45.78769735
 H     53  52  50     1.087875116776   110.52423766   312.19714064
 H     53  52  50     1.086294631350   109.20698747   192.57156729
 H     53  52  50     1.087263182491   111.08653058    73.00537072
 H     54  47  46     1.097018712967   108.15871270    95.83482085
 H     54  47  46     1.095870710486   110.12377993   337.14994086
 H     55  54  47     1.086072880888   109.84498373   300.94659172
 H     55  54  47     1.086111223816   109.56909958   180.96654991
 H     55  54  47     1.087436765472   110.48101980    60.69353055
 H     62  57  56     1.072716177048   123.36372156     2.34154196
 H     65  60  59     1.074470968477   124.35220679     2.53679817
 H     70  68  56     1.073666529608   124.58292181     5.83241876
 H     74  69  59     1.073692071406   124.69470383     5.72898047
 H     79  78  72     1.090517639060   107.45980939    59.72717386
 H     79  78  72     1.090609532372   107.36695116   302.02679430
 H     81  80  76     1.090455832393   107.44913063    58.21328637
 H     81  80  76     1.090582478357   107.41083594   300.49120896
 H     84  79  78     1.087310929081   110.52283484   300.09306930
 H     84  79  78     1.087640522507   109.73499232   180.19073575
 H     84  79  78     1.087366209977   110.54075890    60.24330101
 H     85  81  80     1.087395717529   110.53252846   299.77100576
 H     85  81  80     1.087552635508   109.71253595   179.86333381
 H     85  81  80     1.087430445086   110.55860709    59.92669476
 H     91  87  66     1.075942610040   122.66069377     2.49327058
 H     93  92  89     1.075438900449   122.70232024     0.30371290
 H     94  93  92     1.075750897327   124.08211049   178.44456498
 H     99  97  95     1.075109166597   156.35431448   350.11112081
 H    107 105 104     1.092490840099   103.62477889   163.84389121
 H    107 105 104     1.096026501961   110.25699325    47.20712508
 H    108 107 105     1.087678224017   110.64791632   311.12289684
 H    108 107 105     1.086293364520   109.09045632   191.56816217
 H    108 107 105     1.087189823996   111.15348114    72.08774997
 H    109 102 101     1.097069190070   108.22198050    93.65696593
 H    109 102 101     1.095834612613   110.11475672   334.90992952
 H    110 109 102     1.086092982438   109.85471359   301.69777719
 H    110 109 102     1.086095863955   109.54293889   181.70842002
 H    110 109 102     1.087308165103   110.43029844    61.58371466
 H    117 112 111     1.072605847364   123.42484910     3.37859010
 H    120 115 114     1.074279307071   124.41866108     2.79279240
 H    125 123 111     1.073736366991   124.57512035     5.57742943
 H    129 124 114     1.073768941300   124.66024698     5.23673001
 H    134 133 127     1.090564362062   107.44803782    58.93308375
 H    134 133 127     1.090573473820   107.34403753   301.18709067
 H    136 135 131     1.090401744221   107.46641092    59.97451421
 H    136 135 131     1.090608198851   107.40885671   302.24695859
 H    139 134 133     1.087328127522   110.52459943   299.80679764
 H    139 134 133     1.087592863575   109.74186895   179.88458081
 H    139 134 133     1.087393429123   110.54226198    59.97002222
 H    140 136 135     1.087368696027   110.55965804   299.67180015
 H    140 136 135     1.087529827683   109.68436092   179.75920819
 H    140 136 135     1.087456921584   110.54765247    59.84817482
 H    146 142 121     1.076143339059   122.81504587   359.93510480
 H    148 147 144     1.075685377143   122.48945068   358.44335011
 H    149 148 147     1.075221813534   124.20276814   180.76557797
 H    154 153 152     1.071610896641   119.39578799   179.54773448
 H    155 154 153     1.075274604973   123.88269732   178.85725503
 H    163 161 160     1.096692939797   110.10537565    29.03001463
 H    163 161 160     1.097758654623   108.67221764   270.27232795
 H    164 163 161     1.086846769145   110.05413762   303.14438090
 H    164 163 161     1.086227522253   109.89799238   182.56231206
 H    164 163 161     1.085938037735   109.89351671    62.26383218
 H    165 158 157     1.093117428184   104.64553393   150.06849170
 H    165 158 157     1.094922193126   110.67374423    32.75417307
 H    166 165 158     1.086800020059   109.81322648   307.32100084
 H    166 165 158     1.086132643603   109.50085752   187.61688642
 H    166 165 158     1.087155738475   110.95977750    67.50627050

---------------------------
INTERNAL COORDINATES (A.U.)
---------------------------
 C      0   0   0     0.000000000000     0.00000000     0.00000000
 C      1   0   0     2.658643368293     0.00000000     0.00000000
 C      2   1   0     2.671335952873   120.13421560     0.00000000
 C      3   2   1     2.634800638954   123.58314861     0.36237899
 C      4   3   2     2.664966763819   116.28154999   358.13405528
 C      1   2   3     2.632782842953   116.37742759     1.27193443
 C      2   1   3     2.693038397577   128.24800056   180.17360878
 C      7   2   1     2.552898933248   114.00260447   181.29144222
 S      3   2   1     3.293771631759   110.87990809   178.41510964
 C      5   4   3     2.678633771726   128.24975667   181.93098416
 C     10   5   4     2.575921272948   113.82384352   181.91272782
 S      6   1   2     3.292682807826   125.10311331   180.83463727
 C      1   2   3     2.735216053593   122.91137035   182.15931676
 C      4   3   2     2.730588186056   121.09761282   176.42817373
 C     13   1   2     2.584266715798   128.05745600   217.74762444
 C     15  13   1     2.653076191991   112.87923563   182.92190783
 C     16  15  13     2.590608490886   114.79246991     0.72514931
 S     17  16  15     3.277420965190   109.61788974   359.37576518
 C     14   4   3     2.586370633321   128.49802618    36.06537198
 C     19  14   4     2.651808857358   112.90062180   183.22305192
 C     20  19  14     2.591991326716   114.80623567     0.73728720
 S     21  20  19     3.275494401659   109.62818349   359.54180008
 S     17  16  15     3.295103283713   126.23258834   180.39349110
 C     23  17  16     3.463664819897   100.43133704   182.94863073
 S     21  20  19     3.293444526447   126.49215243   179.96270611
 C     25  21  20     3.463905624339   100.25837589   178.83467281
 F     16  15  13     2.536719923756   122.28772288   180.82161994
 F     20  19  14     2.536252924876   122.30747499   180.91036616
 C     24  23  17     2.863805795810   109.43232623   178.70048961
 C     26  25  21     2.863502569430   109.53991825   179.88600113
 C      8   7   2     2.805079282096   128.31400254   180.09963104
 C     11  10   5     2.689994046711   128.24320871   179.60004772
 S     32  11  10     3.290425419585   121.65357492     4.34045295
 C     33  32  11     3.291608623685    91.37593115   180.13871144
 C     34  33  32     2.612609526376   110.98514438     0.16727848
 C     32  11  10     2.597448140356   127.24932300   184.52421426
 C     34  33  32     2.688664247387   122.25643554   183.08706023
 C     37  34  33     2.604989507151   130.09176645   343.00695295
 C     38  37  34     2.637845989532   113.16536753   181.12310656
 C     39  38  37     2.606994247685   113.35011853   358.96646988
 S     37  34  33     3.279530801284   118.79762084   162.14806350
 C     40  39  38     2.688282540476   129.31090047   177.02758433
 S     42  40  39     3.291719194578   121.78053684   355.73314123
 C     42  40  39     4.390367727047   160.96439450   183.84177489
 C     42  40  39     2.614758499292   127.35183327   179.18760157
 C     35  34  33     2.834545547683   124.15142131   171.14711484
 O     46  35  34     2.504577050347   118.65696445   110.83412026
 O     46  35  34     2.277536179402   120.96001265   288.38478827
 C     45  42  40     2.829403137241   124.49734552   350.39479731
 O     49  45  42     2.511451736843   119.08592151   111.47204974
 O     49  45  42     2.277386514749   121.04470171   288.44957557
 C     50  49  45     2.691765327164   122.64277926   352.81188853
 C     52  50  49     2.877482828723   112.72681647   281.56946483
 C     47  46  35     2.692303438378   121.92309015   351.35821449
 C     54  47  46     2.871983951777   108.27978482   216.01003129
 C     44  42  40    10.447497962510   140.39968513   166.98798001
 C     56  44  42     2.663834684361    34.00765647    13.16184886
 C     57  56  44     2.675263961914   120.40412433   176.80804055
 C     58  57  56     2.636254463270   123.30862494   359.25089213
 C     59  58  57     2.669950547896   116.39480898   358.31369156
 C     56  44  42     2.629193244634   149.84884727    23.33996260
 C     57  56  44     2.670245121465   127.52401851   357.07943537
 C     62  57  56     2.580987462392   113.97569256   181.78408920
 S     58  57  56     3.298436840424   110.77570556   177.66603230
 C     60  59  58     2.680992859115   128.53313720   182.76913931
 C     65  60  59     2.577804545642   113.82215168   181.43641486
 S     61  56  44     3.285904623463   124.72745541   173.49689151
 C     56  44  42     2.731574218297    88.92307888   199.02964452
 C     59  58  57     2.729978030934   120.93606327   177.14548987
 C     68  56  44     2.585882458535   128.44114626   219.32047777
 C     70  68  56     2.652092761809   112.95203176   183.12903136
 C     71  70  68     2.591946673612   114.83556407     0.65254505
 S     72  71  70     3.276534990739   109.56399740   359.63962570
 C     69  59  58     2.587560676255   128.29100968    34.90809314
 C     74  69  59     2.650648536562   112.90504474   183.13081285
 C     75  74  69     2.592801815079   114.82141295     0.71970550
 S     76  75  74     3.275534939905   109.62282421   359.47383366
 S     72  71  70     3.293042245250   126.42977319   180.10645990
 C     78  72  71     3.464249900201   100.32013801   178.29127716
 S     76  75  74     3.292158064176   126.28166437   179.87369361
 C     80  76  75     3.463770154489   100.40636150   179.29046129
 F     71  70  68     2.535352925116   122.26638720   180.90921099
 F     75  74  69     2.535349152073   122.33552453   180.88392288
 C     79  78  72     2.863571540597   109.52230012   180.96140392
 C     81  80  76     2.863692962668   109.44637135   179.34758630
 C     44  42  40     2.603090524677    80.41611346   172.96453641
 C     66  65  60     2.690248209458   129.87037854   181.35960639
 S     87  66  65     3.290487788912   123.09751792     3.63812605
 C     88  87  66     3.293485080613    91.38311784   178.49254040
 C     89  88  87     2.613067606064   110.95896675     0.34189146
 C     87  66  65     2.599219418482   125.88108899   182.25278181
 C     89  88  87     2.690425563698   123.07698288   183.79986680
 C     92  89  88     2.603958014247   130.82898407   339.43999686
 C     93  92  89     2.639296066616   113.15083897   181.71670710
 C     94  93  92     2.607136920054   113.40308380   358.81261131
 S     95  94  93     3.279038129482   110.87786638   359.67216214
 C     95  94  93     2.689522985946   129.51653646   177.00770494
 S     97  95  94     3.290820791185   121.79411318   353.94112920
 C     97  95  94     4.391851814418   160.94542962   182.30654301
 C     97  95  94     2.615369240593   127.36295941   177.72454280
 C     90  89  88     2.833972383664   124.37621845   171.52163856
 O    101  90  89     2.505375434047   118.52714965   111.71365702
 O    101  90  89     2.277276547294   121.09493104   289.15619394
 C    100  97  95     2.828331403703   124.55286912   351.45852156
 O    104 100  97     2.512175467125   118.98251147   110.99115733
 O    104 100  97     2.277574853209   121.24771781   288.11649205
 C    105 104 100     2.693194138278   122.73659608   353.81951599
 C    107 105 104     2.876838899144   113.00459913   282.86790804
 C    102 101  90     2.692853835669   121.86933895   351.91596657
 C    109 102 101     2.871536155614   108.26509707   213.86520220
 C     99  97  95    10.471513863956   140.24651509   169.02279271
 C    111  99  97     2.666033270471    33.84140337     5.39548843
 C    112 111  99     2.676010012729   120.33663022   184.29405764
 C    113 112 111     2.634140985344   123.44063310     0.15579754
 C    114 113 112     2.668052500377   116.29088695   359.35232436
 C    111  99  97     2.630939563686   149.86533991   358.59100005
 C    112 111  99     2.671281768932   127.77858283     3.54677053
 C    117 112 111     2.582008998393   113.97521472   182.78793672
 S    113 112 111     3.295731310429   110.99946038   177.64180735
 C    115 114 113     2.676940024098   128.27836751   179.95005079
 C    120 115 114     2.577477209732   113.87327578   182.57225481
 S    116 111  99     3.291926813642   124.91741239   186.37813549
 C    111  99  97     2.731605240961    89.15326220   183.47233241
 C    114 113 112     2.730577372812   120.85736253   177.96495000
 C    123 111  99     2.586707102860   128.03320304   213.72011814
 C    125 123 111     2.651503587278   112.99775505   182.82525115
 C    126 125 123     2.592093457983   114.83104874     0.67797568
 S    127 126 125     3.276495672207   109.53950565   359.64091556
 C    124 114 113     2.587742779603   128.01810822    35.75052834
 C    129 124 114     2.650695659702   112.92056967   182.53528011
 C    130 129 124     2.592820687596   114.80518467     0.72528915
 S    131 130 129     3.275289008161   109.61798050   359.62952851
 S    127 126 125     3.292447321495   126.38743485   179.87161164
 C    133 127 126     3.464262470986   100.36954506   176.96359637
 S    131 130 129     3.292040088400   126.38197995   180.17328394
 C    135 131 130     3.464124123654   100.40356023   178.31682237
 F    126 125 123     2.535377752202   122.27166784   181.02272016
 F    130 129 124     2.535661399180   122.32392738   181.05309782
 C    134 133 127     2.863595055441   109.49734665   180.14257576
 C    136 135 131     2.863559997599   109.47400497   181.14928242
 C     99  97  95     2.603011569336    80.39336512   172.71792856
 C    121 120 115     2.689370914272   128.15543019   178.38590958
 S    142 121 120     3.288299784740   121.43458009     2.77410944
 C    143 142 121     3.295240686456    91.47504827   180.86379348
 C    144 143 142     2.608069911020   110.84967589   359.47897092
 C    142 121 120     2.596796936115   127.53102758   183.45416709
 C    144 143 142     2.693678402903   120.42429907   180.70130861
 C    147 144 143     2.603109826205   127.46683515    16.60013679
 C    148 147 144     2.638977188657   113.29377484   177.37372238
 C    149 148 147     2.598398128691   113.10987877     1.30883993
 S    150 149 148     3.285146789323   111.41801992   359.55809764
 C    150 149 148     2.699883554556   128.15867807   181.64095900
 S    152 150 149     3.293835022813   120.77938067    25.01236117
 C    153 152 150     3.243462667473    91.15199328   177.51584456
 C    154 153 152     2.566598977513   112.45506392   359.96906235
 C    152 150 149     2.598797652787   128.20851988   201.76697548
 C    145 144 143     2.828385866900   124.26752664   178.09837451
 O    157 145 144     2.526419498814   118.17443475    97.61024292
 O    157 145 144     2.269532679483   122.27465564   275.85955399
 C    156 152 150     2.837543146400   124.35158304    13.37999097
 O    160 156 152     2.510694282039   118.78589589   254.37417405
 O    160 156 152     2.270521895427   120.38009001    76.97554909
 C    161 160 156     2.687669053044   121.80471015     7.70519110
 C    163 161 160     2.872511252441   107.87286336   149.97886550
 C    158 157 145     2.686961875178   122.41991932   356.07018378
 C    165 158 157     2.878765411313   111.46281069   269.12610145
 H      7   2   1     2.030201043251   123.43860708     2.02493172
 H     10   5   4     2.030360103059   124.38205544     2.66592019
 H     15  13   1     2.029139947403   124.54920401     5.21335692
 H     19  14   4     2.028995443250   124.62723114     5.70232563
 H     24  23  17     2.060490767444   107.43281960    57.55482277
 H     24  23  17     2.060960173673   107.45301432   299.83423312
 H     26  25  21     2.060678695302   107.43570353    58.72300432
 H     26  25  21     2.060954298794   107.39667803   301.04336236
 H     29  24  23     2.054900198291   110.51173263   300.01600303
 H     29  24  23     2.055271881055   109.74920650   180.09325731
 H     29  24  23     2.054963624937   110.54489744    60.13274872
 H     30  26  25     2.054782893059   110.53352598   299.72826496
 H     30  26  25     2.055275792892   109.69342724   179.82354831
[...]
  69   4.960     250.0   0.014275   0.011099  -55.879081  -44.856354     0.15 ( 223-> 231)    0.10 ( 223-> 237)    0.08 ( 223-> 232)
  70   4.981     248.9   0.002797   0.001903  83.493424  67.398784     0.08 ( 203-> 230)    0.06 ( 207-> 230)    0.04 ( 207-> 231)

-----------------------------------------------------------------------------
         ABSORPTION SPECTRUM VIA TRANSITION ELECTRIC DIPOLE MOMENTS
-----------------------------------------------------------------------------
State   Energy  Wavelength   fosc         T2         TX        TY        TZ  
        (cm-1)    (nm)                  (au**2)     (au)      (au)      (au) 
-----------------------------------------------------------------------------
   0   20048.8    498.8   4.753974721  78.06292   8.75681  -1.17521  -0.00057
   1   21427.3    466.7   0.066747919   1.02552  -0.26665  -0.88526   0.41319
   2   22804.1    438.5   0.290500018   4.19381  -1.89946   0.76447   0.03820
   3   23541.9    424.8   0.938722170  13.12716   2.21841   2.86115  -0.14008
   4   24543.6    407.4   0.357405732   4.79400   1.23878   1.77629  -0.32283
   5   24994.0    400.1   0.911850733  12.01058  -2.82587  -1.94965  -0.47319
   6   26391.6    378.9   0.011598076   0.14468   0.36589  -0.07775   0.06895
   7   26606.0    375.9   0.007009848   0.08674   0.00302   0.09204   0.27974
   8   27366.1    365.4   0.065444664   0.78729  -0.14547  -0.86252  -0.14900
   9   27480.1    363.9   0.143734223   1.72194   1.07736   0.70968  -0.24000
  10   28494.9    350.9   0.336335427   3.88581  -0.56876  -1.84352   0.40467
  11   28548.8    350.3   0.994478029  11.46786  -0.58760  -3.33392   0.08683
  12   28838.6    346.8   0.261554773   2.98583   0.90373   1.32450   0.64404
  13   29447.0    339.6   0.148507343   1.66029  -0.38447  -1.19991  -0.26962
  14   29712.5    336.6   0.023269099   0.25782  -0.38322  -0.20361   0.26363
  15   29971.5    333.6   0.033504734   0.36802  -0.00815   0.59543   0.11585
  16   30213.6    331.0   0.152119519   1.65752  -1.26446  -0.21303   0.11519
  17   30496.0    327.9   0.022943092   0.24768   0.43335   0.17076  -0.17528
  18   30755.7    325.1   0.030922663   0.33100   0.51229  -0.24889   0.08135
  19   31490.5    317.6   0.018271500   0.19102   0.41912  -0.11189   0.05326
  20   31707.6    315.4   0.049667898   0.51569   0.71473   0.05919  -0.03661
  21   31736.9    315.1   0.110872967   1.15010   0.78137   0.71632   0.16264
  22   32175.7    310.8   0.070048011   0.71671   0.67459  -0.50304   0.09270
  23   32210.8    310.5   0.105669195   1.08000   0.84735   0.59575   0.08415
  24   32446.8    308.2   0.042643286   0.43267   0.55323   0.34142  -0.10021
  25   32774.0    305.1   0.000180840   0.00182   0.00686  -0.03918   0.01531
  26   32997.4    303.1   0.481532431   4.80420   1.11158   1.88125   0.17176
  27   33253.2    300.7   0.061750191   0.61134  -0.31245  -0.71477  -0.05303
  28   33501.6    298.5   0.030355361   0.29830   0.09776   0.53695   0.02059
  29   33752.5    296.3   0.153840622   1.50052  -1.16398  -0.37363  -0.07796
  30   34030.3    293.9   0.129077110   1.24870  -1.09298  -0.22488  -0.05931
  31   34216.1    292.3   0.041796096   0.40214   0.25193   0.58066  -0.03879
  32   34334.9    291.2   0.022216049   0.21301  -0.27619  -0.36971  -0.00694
  33   34663.6    288.5   0.035911454   0.34106   0.57537  -0.01795   0.09841
  34   34895.5    286.6   0.015617053   0.14733  -0.34627   0.16408  -0.02260
  35   34929.3    286.3   0.015096692   0.14229  -0.37553  -0.02734   0.02280
  36   35138.2    284.6   0.037778351   0.35395  -0.48035   0.19254   0.29350
  37   35537.1    281.4   0.032744096   0.30334   0.48656   0.22722   0.12235
  38   35594.3    280.9   0.075339765   0.69682   0.59634   0.52709   0.25174
  39   35707.1    280.1   0.011338149   0.10454  -0.25808   0.19467   0.00572
  40   35895.6    278.6   0.070299623   0.64474  -0.43835  -0.67171  -0.03743
  41   35999.2    277.8   0.026773133   0.24484  -0.40741  -0.12838  -0.24975
  42   36198.5    276.3   0.079310152   0.72130   0.71104  -0.46139   0.05323
  43   36561.8    273.5   0.100678496   0.90654   0.94144  -0.11360   0.08557
  44   36698.9    272.5   0.059192220   0.53099   0.65271   0.03940   0.32158
  45   36979.8    270.4   0.063247153   0.56306   0.71683   0.00894   0.22165
  46   37197.6    268.8   0.044397873   0.39294  -0.56137  -0.21543   0.17718
  47   37329.8    267.9   0.009500425   0.08378  -0.26217  -0.09536   0.07720
  48   37500.3    266.7   0.031982856   0.28077  -0.17220   0.50037   0.02744
  49   37559.5    266.2   0.023264310   0.20391  -0.40357  -0.20144  -0.02164
  50   37659.1    265.5   0.009399836   0.08217   0.02970   0.25357  -0.13035
  51   37953.5    263.5   0.056272473   0.48811   0.42100  -0.53393  -0.16061
  52   38149.1    262.1   0.060872769   0.52531  -0.63117  -0.27046   0.23190
  53   38343.5    260.8   0.016922810   0.14530  -0.35404   0.10778  -0.09128
  54   38368.0    260.6   0.020592886   0.17669  -0.21012  -0.27184  -0.24217
  55   38446.5    260.1   0.037616059   0.32210   0.45956   0.23542   0.23555
  56   38623.0    258.9   0.005704890   0.04863  -0.12049   0.16800  -0.07671
  57   38666.0    258.6   0.014518314   0.12361  -0.29423  -0.07998  -0.17505
  58   38796.4    257.8   0.004999444   0.04242   0.12932  -0.15904   0.02014
  59   38852.7    257.4   0.003962274   0.03357   0.11362   0.03060   0.14046
  60   38900.9    257.1   0.080281704   0.67941  -0.74374  -0.29536  -0.19754
  61   39128.2    255.6   0.033424961   0.28123   0.44396   0.11727   0.26528
  62   39248.6    254.8   0.054494296   0.45709  -0.03371  -0.60955   0.29053
  63   39375.4    254.0   0.014343467   0.11992  -0.03211  -0.31968   0.12923
  64   39508.8    253.1   0.001728071   0.01440  -0.10558   0.00642   0.05667
  65   39583.5    252.6   0.030570470   0.25425   0.40922  -0.29452   0.00689
  66   39741.8    251.6   0.005505455   0.04561  -0.19415  -0.07811  -0.04255
  67   39865.9    250.8   0.026541890   0.21918   0.39583  -0.09898   0.22958
  68   40000.7    250.0   0.008999605   0.07407  -0.20721  -0.16425   0.06443
  69   40007.5    250.0   0.014274959   0.11747   0.24968  -0.04427   0.23058
  70   40173.7    248.9   0.002796864   0.02292   0.01546   0.11324   0.09928

-----------------------------------------------------------------------------
         ABSORPTION SPECTRUM VIA TRANSITION VELOCITY DIPOLE MOMENTS
-----------------------------------------------------------------------------
State   Energy  Wavelength   fosc         P2         PX        PY        PZ  
        (cm-1)    (nm)                  (au**2)     (au)      (au)      (au) 
-----------------------------------------------------------------------------
   0   20048.8    498.8   4.788338641   0.65611   0.80357  -0.10191   0.00008
   1   21427.3    466.7   0.065404282   0.00958  -0.02382  -0.08666   0.03874
   2   22804.1    438.5   0.284620072   0.04436  -0.19611   0.07676   0.00296
   3   23541.9    424.8   0.843902877   0.13578   0.22826   0.28886  -0.01554
   4   24543.6    407.4   0.306443987   0.05140   0.12668   0.18495  -0.03388
   5   24994.0    400.1   0.838741070   0.14327  -0.30901  -0.21225  -0.05231
   6   26391.6    378.9   0.010306561   0.00186   0.04172  -0.00712   0.00822
   7   26606.0    375.9   0.007344251   0.00134  -0.00248   0.01372   0.03378
   8   27366.1    365.4   0.056712165   0.01061  -0.01691  -0.10014  -0.01713
   9   27480.1    363.9   0.133322507   0.02504   0.13093   0.08494  -0.02612
  10   28494.9    350.9   0.290196934   0.05652  -0.07089  -0.22166   0.04854
  11   28548.8    350.3   0.880313603   0.17176  -0.07570  -0.40732   0.01115
  12   28838.6    346.8   0.238654340   0.04704   0.11496   0.16564   0.07991
  13   29447.0    339.6   0.131776272   0.02652  -0.04654  -0.15234  -0.03387
  14   29712.5    336.6   0.021436026   0.00435  -0.04934  -0.02738   0.03419
  15   29971.5    333.6   0.027134927   0.00556  -0.00172   0.07288   0.01559
  16   30213.6    331.0   0.148032188   0.03057  -0.17137  -0.03113   0.01525
  17   30496.0    327.9   0.020181851   0.00421   0.05635   0.02476  -0.02045
  18   30755.7    325.1   0.028556086   0.00600   0.06901  -0.03364   0.01040
  19   31490.5    317.6   0.018253364   0.00393   0.05991  -0.01658   0.00801
  20   31707.6    315.4   0.045319150   0.00982   0.09868   0.00785  -0.00463
  21   31736.9    315.1   0.093484617   0.02028   0.10327   0.09558   0.02183
  22   32175.7    310.8   0.058643545   0.01290   0.09521  -0.06054   0.01292
  23   32210.8    310.5   0.087024749   0.01916   0.10721   0.08667   0.01238
  24   32446.8    308.2   0.035064407   0.00778   0.07428   0.04613  -0.01138
  25   32774.0    305.1   0.000198366   0.00004   0.00276  -0.00593   0.00129
  26   32997.4    303.1   0.374515187   0.08446   0.14100   0.25305   0.02335
  27   33253.2    300.7   0.047508111   0.01080  -0.03809  -0.09636  -0.00781
  28   33501.6    298.5   0.024490876   0.00561   0.01354   0.07357   0.00343
  29   33752.5    296.3   0.125913056   0.02905  -0.15950  -0.05921  -0.00995
  30   34030.3    293.9   0.109818225   0.02554  -0.15668  -0.03055  -0.00782
  31   34216.1    292.3   0.029185638   0.00683   0.03371   0.07522  -0.00551
  32   34334.9    291.2   0.018110000   0.00425  -0.03513  -0.05486  -0.00247
  33   34663.6    288.5   0.032254568   0.00764   0.08610  -0.00585   0.01391
  34   34895.5    286.6   0.012358705   0.00295  -0.05003   0.02049  -0.00492
  35   34929.3    286.3   0.011709459   0.00280  -0.05230  -0.00700   0.00335
  36   35138.2    284.6   0.031412278   0.00754  -0.07234   0.02596   0.04046
  37   35537.1    281.4   0.026386551   0.00641   0.07038   0.03378   0.01772
  38   35594.3    280.9   0.062675118   0.01525   0.08862   0.07802   0.03614
  39   35707.1    280.1   0.009419841   0.00230  -0.04017   0.02615   0.00134
  40   35895.6    278.6   0.054305112   0.01332  -0.05980  -0.09865  -0.00380
  41   35999.2    277.8   0.019977844   0.00492  -0.05892  -0.01828  -0.03331
  42   36198.5    276.3   0.065501280   0.01620   0.10681  -0.06893   0.00674
  43   36561.8    273.5   0.079719218   0.01992   0.13985  -0.01319   0.01372
  44   36698.9    272.5   0.047845157   0.01200   0.09857   0.01100   0.04650
  45   36979.8    270.4   0.050466341   0.01275   0.10851  -0.00051   0.03132
  46   37197.6    268.8   0.034427831   0.00875  -0.08408  -0.03264   0.02486
  47   37329.8    267.9   0.006911324   0.00176  -0.03780  -0.01367   0.01215
  48   37500.3    266.7   0.027038312   0.00693  -0.02748   0.07852   0.00307
  49   37559.5    266.2   0.017970776   0.00461  -0.06019  -0.03127  -0.00360
  50   37659.1    265.5   0.008008205   0.00206   0.00262   0.04115  -0.01900
  51   37953.5    263.5   0.045130218   0.01171   0.06656  -0.08200  -0.02348
  52   38149.1    262.1   0.041697049   0.01087  -0.09088  -0.04067   0.03097
  53   38343.5    260.8   0.012063028   0.00316  -0.05210   0.01718  -0.01233
  54   38368.0    260.6   0.016312514   0.00428  -0.03495  -0.04307  -0.03466
  55   38446.5    260.1   0.027438026   0.00721   0.06779   0.03800   0.03421
  56   38623.0    258.9   0.003406651   0.00090  -0.01584   0.02170  -0.01331
  57   38666.0    258.6   0.011284237   0.00298  -0.04612  -0.01363  -0.02587
  58   38796.4    257.8   0.002769523   0.00073   0.01467  -0.02263   0.00263
  59   38852.7    257.4   0.002855083   0.00076   0.01712   0.00465   0.02105
  60   38900.9    257.1   0.057184611   0.01520  -0.11051  -0.04577  -0.02993
  61   39128.2    255.6   0.025186853   0.00674   0.06955   0.01985   0.03878
  62   39248.6    254.8   0.037981140   0.01019   0.00184  -0.09218   0.04107
  63   39375.4    254.0   0.010419821   0.00280  -0.00861  -0.04929   0.01734
  64   39508.8    253.1   0.001114718   0.00030  -0.01525  -0.00053   0.00825
  65   39583.5    252.6   0.023624752   0.00639   0.06461  -0.04707   0.00114
  66   39741.8    251.6   0.002924778   0.00079  -0.02505  -0.01175  -0.00539
  67   39865.9    250.8   0.018456264   0.00503   0.06061  -0.01516   0.03354
  68   40000.7    250.0   0.006997113   0.00191  -0.03337  -0.02721   0.00767
  69   40007.5    250.0   0.011099297   0.00303   0.04329  -0.00493   0.03371
  70   40173.7    248.9   0.001903406   0.00052   0.00085   0.01842   0.01351

-------------------------------------------------------------------
                             CD SPECTRUM
-------------------------------------------------------------------
State   Energy Wavelength       R         MX        MY        MZ   
        (cm-1)   (nm)       (1e40*cgs)   (au)      (au)      (au)  
-------------------------------------------------------------------
   0   20048.8    498.8    361.19854  -0.25514  -0.59582  -3.05334
   1   21427.3    466.7    -419.12605  -0.02237  -1.12550   1.87739
   2   22804.1    438.5    206.77274   0.29592  -0.46007   0.95856
   3   23541.9    424.8    349.72026   0.60968  -0.18143  16.54039
   4   24543.6    407.4    -596.35402   0.28330   0.79128  -2.39573
   5   24994.0    400.1    400.42714  -0.73827   4.87295 -12.07882
   6   26391.6    378.9    -51.02678   0.03758  -0.51406   2.36052
   7   26606.0    375.9    -251.61884   0.15611  -1.74403   4.38794
   8   27366.1    365.4    174.64601  -0.32573   1.63740  -4.18805
   9   27480.1    363.9    191.41087   0.17565   0.91676   6.88280
  10   28494.9    350.9    -461.30436  -0.51456  -0.53468   1.67700
  11   28548.8    350.3    632.67498  -0.89344   0.49749 -17.85515
  12   28838.6    346.8    -821.66927   0.85366  -5.82614  16.19609
  13   29447.0    339.6     85.65451  -0.44000   2.51487  -9.21693
  14   29712.5    336.6    -425.22480   0.14885  -1.74952   5.70770
  15   29971.5    333.6    297.18096   0.39134  -1.98982  -0.62792
  16   30213.6    331.0    -54.59456  -0.07142  -0.35106   0.57743
  17   30496.0    327.9    -81.98771  -0.05015   0.08486  -2.02568
  18   30755.7    325.1    102.57171  -0.01827   0.29202  -4.34076
  19   31490.5    317.6     10.84413  -0.11342  -0.39976  -0.81097
  20   31707.6    315.4    -36.82043   0.05994   0.09658  -2.94031
  21   31736.9    315.1      9.71097   0.34560  -1.67929   5.48266
  22   32175.7    310.8    -63.01801  -0.05185  -0.77614  -0.95051
  23   32210.8    310.5    -47.64870   0.41727  -0.42384   1.20106
  24   32446.8    308.2    -45.39498   0.07798   0.33795  -0.33985
  25   32774.0    305.1     -2.85227   0.02506  -0.14232   0.41483
  26   32997.4    303.1    117.01535   0.60284  -1.65527  11.33817
  27   33253.2    300.7    -39.01560  -0.18593   0.21643  -4.94291
  28   33501.6    298.5     -9.59692   0.26513  -0.19887   5.90574
  29   33752.5    296.3    -51.39878  -0.23416   0.35731  -1.01313
  30   34030.3    293.9     30.03262  -0.05718   0.48391   1.36699
  31   34216.1    292.3      5.71859   0.06364   0.00168   1.06383
  32   34334.9    291.2    -29.88165  -0.14559  -0.15266  -4.33670
  33   34663.6    288.5     25.46997  -0.04637  -0.94714  -0.99957
  34   34895.5    286.6     20.61432   0.15428  -0.22048  -0.09486
  35   34929.3    286.3     -6.12068  -0.08061   0.39696   0.28725
  36   35138.2    284.6     -1.74642   0.34451  -2.56591   2.27229
  37   35537.1    281.4    -19.67334   0.22429  -1.48601   2.54990
  38   35594.3    280.9    -39.38346   0.49159  -3.11520   6.02180
  39   35707.1    280.1     -4.88580   0.01003   0.09026   1.00391
  40   35895.6    278.6    -42.35281  -0.25860   0.14155  -4.31227
  41   35999.2    277.8      5.15743  -0.08856  -0.14624   0.30724
  42   36198.5    276.3     33.56122  -0.17184  -0.50509  -4.75710
  43   36561.8    273.5     -7.31386   0.01032  -0.23390  -0.06149
  44   36698.9    272.5    -217.06849  -0.08866  -1.64019   3.24448
  45   36979.8    270.4    -51.36742   0.16734  -1.54180   0.50410
  46   37197.6    268.8     -6.79185  -0.10213  -0.83711  -1.17882
  47   37329.8    267.9     -7.12008   0.09857  -1.10171  -0.63488
  48   37500.3    266.7      9.66876   0.07294  -0.21691   2.91864
  49   37559.5    266.2     -4.29747  -0.21675   0.46167  -1.09772
  50   37659.1    265.5     -3.71420   0.02842   0.79031   1.42299
  51   37953.5    263.5     14.87327  -0.21741   1.42022  -4.89852
  52   38149.1    262.1     79.15477  -0.18842  -1.15616  -3.30924
  53   38343.5    260.8     36.73165  -0.04841  -0.65149   1.12559
  54   38368.0    260.6    -105.79117  -0.26910   0.99728  -2.73920
  55   38446.5    260.1    -18.30430   0.20819  -1.20763   1.13045
  56   38623.0    258.9    -14.90306   0.10011   0.21031  -0.52087
  57   38666.0    258.6     14.79745  -0.07513  -0.77494   0.83899
  58   38796.4    257.8     30.83966  -0.06046   0.48163  -2.30442
  59   38852.7    257.4    -46.58574   0.11415  -0.33853   1.38846
  60   38900.9    257.1    -94.79649  -0.42901   0.29749  -0.86540
  61   39128.2    255.6     11.75568   0.11269  -0.43065  -0.18620
  62   39248.6    254.8    210.63476  -0.27344   0.08514  -2.92878
  63   39375.4    254.0    -30.81172  -0.13109  -1.03653  -1.58521
  64   39508.8    253.1      1.79252  -0.02726   0.40354  -0.23069
  65   39583.5    252.6     54.66744  -0.10115   0.62376  -0.98844
  66   39741.8    251.6    -11.38405  -0.27776   0.63049  -1.02518
  67   39865.9    250.8    -32.09020   0.02743  -1.78002  -0.22178
  68   40000.7    250.0     54.99380  -0.24246   1.22464  -1.27880
  69   40007.5    250.0    -55.87908   0.12274  -0.51849   0.79563
  70   40173.7    248.9     83.49342   0.13995  -1.31578  -2.08868

sTD-DFT done

Total run time:       55.368 sec

           *** ORCA-CIS/TD-DFT FINISHED WITHOUT ERROR ***

-------------------------   --------------------
FINAL SINGLE POINT ENERGY    -16905.950356579244
-------------------------   --------------------


                            ***************************************
                            *     ORCA property calculations      *
                            ***************************************

                                    ---------------------
                                    Active property flags
                                    ---------------------
   (+) Dipole Moment


------------------------------------------------------------------------------
                       ORCA ELECTRIC PROPERTIES CALCULATION
------------------------------------------------------------------------------

Dipole Moment Calculation                       ... on
Quadrupole Moment Calculation                   ... off
Polarizability Calculation                      ... off
GBWName                                         ... P2.gbw
Electron density file                           ... P2.scfp
The origin for moment calculation is the CENTER OF MASS  = (-44.045753, -1.556863  0.538572)

-------------
DIPOLE MOMENT
-------------
                                X             Y             Z
Electronic contribution:     44.38134     -37.56275      40.11731
Nuclear contribution   :    -43.65936      35.26722     -40.31189
                        -----------------------------------------
Total Dipole Moment    :      0.72198      -2.29553      -0.19458
                        -----------------------------------------
Magnitude (a.u.)       :      2.41425
Magnitude (Debye)      :      6.13653



--------------------
Rotational spectrum 
--------------------
 
Rotational constants in cm-1:     0.000408     0.000021     0.000020 
Rotational constants in MHz :    12.235708     0.628721     0.603331 

 Dipole components along the rotational axes: 
x,y,z [a.u.] :    -0.557313    -2.341233    -0.191367 
x,y,z [Debye]:    -1.416578    -5.950942    -0.486416 

 

Timings for individual modules:

Sum of individual times         ...    18157.241 sec (= 302.621 min)
GTO integral calculation        ...       16.773 sec (=   0.280 min)   0.1 %
SCF iterations                  ...    18084.900 sec (= 301.415 min)  99.6 %
CIS module                      ...       55.568 sec (=   0.926 min)   0.3 %
                             ****ORCA TERMINATED NORMALLY****
TOTAL RUN TIME: 0 days 5 hours 2 minutes 39 seconds 624 msec
