
                                 *****************
                                 * O   R   C   A *
                                 *****************

           --- An Ab Initio, DFT and Semiempirical electronic structure package ---

                  #######################################################
                  #                        -***-                        #
                  #          Department of theory and spectroscopy      #
                  #               Directorship: Frank Neese             #
                  #        Max Planck Institute fuer Kohlenforschung    #
                  #                Kaiser Wilhelm Platz 1               #
                  #                 D-45470 Muelheim/Ruhr               #
                  #                      Germany                        #
                  #                                                     #
                  #                  All rights reserved                #
                  #                        -***-                        #
                  #######################################################


                         Program Version 4.2.0 -  RELEASE  -


 With contributions from (in alphabetic order):
   Daniel Aravena         : Magnetic Suceptibility
   Michael Atanasov       : Ab Initio Ligand Field Theory (pilot matlab implementation)
   Alexander A. Auer      : GIAO ZORA, VPT2
   Ute Becker             : Parallelization
   Giovanni Bistoni       : ED, misc. LED, open-shell LED, HFLED
   Martin Brehm           : Molecular dynamics
   Dmytro Bykov           : SCF Hessian
   Vijay G. Chilkuri      : MRCI spin determinant printing, contributions to CSF-ICE
   Dipayan Datta          : RHF DLPNO-CCSD density
   Achintya Kumar Dutta   : EOM-CC, STEOM-CC
   Dmitry Ganyushin       : Spin-Orbit,Spin-Spin,Magnetic field MRCI
   Miquel Garcia          : C-PCM Hessian, Gaussian charge scheme
   Yang Guo               : DLPNO-NEVPT2, CIM, IAO-localization
   Andreas Hansen         : Spin unrestricted coupled pair/coupled cluster methods
   Benjamin Helmich-Paris : CASSCF linear response (MC-RPA)
   Lee Huntington         : MR-EOM, pCC
   Robert Izsak           : Overlap fitted RIJCOSX, COSX-SCS-MP3, EOM
   Christian Kollmar      : KDIIS, OOCD, Brueckner-CCSD(T), CCSD density
   Simone Kossmann        : Meta GGA functionals, TD-DFT gradient, OOMP2, MP2 Hessian
   Martin Krupicka        : AUTO-CI
   Lucas Lang             : DCDCAS
   Dagmar Lenk            : GEPOL surface, SMD
   Dimitrios Liakos       : Extrapolation schemes; Compound Job, initial MDCI parallelization
   Dimitrios Manganas     : Further ROCIS development; embedding schemes
   Dimitrios Pantazis     : SARC Basis sets
   Taras Petrenko         : DFT Hessian,TD-DFT gradient, ASA, ECA, R-Raman, ABS, FL, XAS/XES, NRVS
   Peter Pinski           : DLPNO-MP2, DLPNO-MP2 Gradient
   Christoph Reimann      : Effective Core Potentials
   Marius Retegan         : Local ZFS, SOC
   Christoph Riplinger    : Optimizer, TS searches, QM/MM, DLPNO-CCSD(T), (RO)-DLPNO pert. Triples
   Tobias Risthaus        : Range-separated hybrids, TD-DFT gradient, RPA, STAB
   Michael Roemelt        : Original ROCIS implementation
   Masaaki Saitow         : Open-shell DLPNO-CCSD energy and density
   Barbara Sandhoefer     : DKH picture change effects
   Avijit Sen             : IP-ROCIS
   Kantharuban Sivalingam : CASSCF convergence, NEVPT2, FIC-MRCI
   Bernardo de Souza      : ESD, SOC TD-DFT
   Georgi Stoychev        : AutoAux, RI-MP2 NMR
   Willem Van den Heuvel  : Paramagnetic NMR
   Boris Wezisla          : Elementary symmetry handling
   Frank Wennmohs         : Technical directorship


 We gratefully acknowledge several colleagues who have allowed us to
 interface, adapt or use parts of their codes:
   Stefan Grimme, W. Hujo, H. Kruse,             : VdW corrections, initial TS optimization,
                  C. Bannwarth                     DFT functionals, gCP, sTDA/sTD-DF
   Ed Valeev, F. Pavosevic, A. Kumar             : LibInt (2-el integral package), F12 methods
   Garnet Chan, S. Sharma, J. Yang, R. Olivares  : DMRG
   Ulf Ekstrom                                   : XCFun DFT Library
   Mihaly Kallay                                 : mrcc  (arbitrary order and MRCC methods)
   Andreas Klamt, Michael Diedenhofen            : otool_cosmo (COSMO solvation model)
   Jiri Pittner, Ondrej Demel                    : Mk-CCSD
   Frank Weinhold                                : gennbo (NPA and NBO analysis)
   Christopher J. Cramer and Donald G. Truhlar   : smd solvation model
   Lars Goerigk                                  : TD-DFT with DH, B97 family of functionals
   V. Asgeirsson, H. Jonsson                     : NEB implementation
   FAccTs GmbH                                   : IRC, NEB, NEB-TS, Multilevel, MM, QM/MM, CI optimization
   S Lehtola, MJT Oliveira, MAL Marques          : LibXC Library


 Your calculation uses the libint2 library for the computation of 2-el integrals
 For citations please refer to: http://libint.valeyev.net

 Your ORCA version has been built with support for libXC version: 4.2.3
 For citations please refer to: https://tddft.org/programs/libxc/

 This ORCA versions uses:
   CBLAS   interface :  Fast vector & matrix operations
   LAPACKE interface :  Fast linear algebra routines
   SCALAPACK package :  Parallel linear algebra routines


XCFun DFT library Copyright 2009-2010 Ulf Ekstrom and contributors.
See http://admol.org/xcfun for more information. This is free soft-
ware; see the source code for copying conditions. There is ABSOLUTELY
NO WARRANTY; not even for MERCHANTABILITY or FITNESS FOR A PARTICULAR
PURPOSE. For details see the documentation. Scientific users of this 
library should cite U. Ekstrom, L. Visscher, R. Bast, A. J. Thorvald-
sen and K. Ruud; J.Chem.Theor.Comp. 2010, DOI: 10.1021/ct100117s
XCFun Version 0.99 
----- Orbital basis set information -----
Your calculation utilizes the basis: def2-SVP
   F. Weigend and R. Ahlrichs, Phys. Chem. Chem. Phys. 7, 3297 (2005).

----- AuxJ basis set information -----
Your calculation utilizes the auxiliary basis: def2/J
   F. Weigend, Phys. Chem. Chem. Phys. 8, 1057 (2006).

================================================================================
                                        WARNINGS
                       Please study these warnings very carefully!
================================================================================

INFO   : Checking CIS options ...

WARNING: CIS/ROCIS methods need fully converged wavefunctions
  ===> : Setting SCFConvForced true
         You can overwrite this default with %scf ConvForced false 


INFO   : the flag for use of LIBINT has been found!

================================================================================
                                       INPUT FILE
================================================================================
NAME = PBDB-T_olig.inp
|  1> # ORCA input file
|  2> # PBDB-T_olig.out
|  3> ! CAM-B3LYP def2-SVP def2/J RIJCOSX Grid4 TightSCF
|  4> %maxcore 5000
|  5> %tddft
|  6>     Mode sTDDFT
|  7>     Ethresh 5.0
|  8>     maxcore 5000
|  9> end
| 10> * xyz 0 1
| 11>    C        0.72633         0.97799        -0.06492
| 12>    C        1.65652        -0.07422        -0.13609
| 13>    C        1.21802        -1.39717        -0.37630
| 14>    C       -0.11557        -1.74882        -0.58640
| 15>    C       -1.05189        -0.69369        -0.51357
| 16>    C       -0.61056         0.62623        -0.24750
| 17>    C        3.07394        -0.00308        -0.00286
| 18>    C        3.70063        -1.18806        -0.16058
| 19>    S        2.57594        -2.48899        -0.45732
| 20>    C       -2.45852        -0.75098        -0.69264
| 21>    C       -3.07249         0.46536        -0.61530
| 22>    S       -1.93989         1.75016        -0.26621
| 23>    C        1.09999         2.36518         0.11844
| 24>    C       -0.48968        -3.10652        -0.91777
| 25>    C        0.37621         3.35522         0.72496
| 26>    C        0.95515         4.63248         0.59746
| 27>    C        2.12890         4.63396        -0.09104
| 28>    S        2.54738         3.02997        -0.59349
| 29>    C        0.11510        -4.27414        -0.53181
| 30>    C       -0.46237        -5.42150        -1.10365
| 31>    C       -1.50449        -5.14981        -1.93864
| 32>    S       -1.79434        -3.44963        -2.02201
| 33>    C        3.01458         5.78376        -0.42834
| 34>    C        4.40197         5.63720         0.19628
| 35>    C       -2.32636        -6.12434        -2.71620
| 36>    C       -3.54595        -5.48694        -3.36928
| 37>    C        5.15717        -1.46736        -0.08663
| 38>    C       -4.45477         0.77703        -0.75647
| 39>    C       -5.51546        -0.04376        -1.07828
| 40>    C       -6.74392         0.61790        -1.10836
| 41>    C       -6.65785         1.96098        -0.80547
| 42>    S       -4.99168         2.40095        -0.49851
| 43>    C       -7.60430         3.02393        -0.72288
| 44>    S       -6.88422         4.59268        -0.51958
| 45>    C       -8.42015         5.40181        -0.49906
| 46>    C       -9.44906         4.48952        -0.65456
| 47>    C       -8.99273         3.13161        -0.75704
| 48>    C      -10.86537         4.86651        -0.66226
| 49>    C      -11.78062         3.73140        -0.66768
| 50>    C      -11.33674         2.37395        -0.73095
| 51>    C       -9.92214         2.00066        -0.80656
| 52>    C      -13.14721         3.85200        -0.59815
| 53>    S      -13.89912         2.29531        -0.59765
| 54>    C      -12.37534         1.47767        -0.69431
| 55>    C       -8.33196         6.81304        -0.28358
| 56>    C       -9.07839         7.90159        -0.66967
| 57>    C       -8.48571         9.12865        -0.33915
| 58>    S       -6.88366         7.32801         0.54077
| 59>    O      -11.25513         6.02592        -0.65847
| 60>    O       -9.56647         0.83228        -0.87775
| 61>    C      -13.94384         5.10390        -0.52911
| 62>    C      -15.43422         4.86333        -0.33993
| 63>    C      -12.34474        -0.00620        -0.77222
| 64>    C      -12.28568        -0.47028        -2.23028
| 65>    C       -3.06887        10.57792         2.36002
| 66>    C       -4.31305        10.66056         1.71402
| 67>    C       -4.74003        11.86414         1.10765
| 68>    C       -3.96073        13.01896         1.09342
| 69>    C       -2.69152        12.92952         1.70779
| 70>    C       -2.28726        11.71961         2.33075
| 71>    C       -5.23633         9.61126         1.52742
| 72>    C       -6.31877         9.94921         0.77052
| 73>    S       -6.28758        11.64133         0.31569
| 74>    C       -1.66304        13.90443         1.76027
| 75>    C       -0.50918        13.46217         2.34375
| 76>    S       -0.66355        11.82162         2.94593
| 77>    C       -2.65054         9.33561         2.99367
| 78>    C       -4.44300        14.21781         0.43809
| 79>    C       -2.34297         9.12158         4.30402
| 80>    C       -2.09556         7.76372         4.60159
| 81>    C       -2.19222         6.94069         3.52070
| 82>    S       -2.59512         7.84311         2.09491
| 83>    C       -5.72297        14.69898         0.43261
| 84>    C       -5.88107        15.86483        -0.34126
| 85>    C       -4.73380        16.27315        -0.94819
| 86>    S       -3.41696        15.21977        -0.55145
| 87>    C       -1.96722         5.46741         3.45730
| 88>    C       -2.98692         4.75327         2.57251
| 89>    C       -4.51002        17.46872        -1.80819
| 90>    C       -3.71894        18.54722        -1.06484
| 91>    C       -7.28579         9.00295         0.31997
| 92>    C        0.76521        14.10127         2.39842
| 93>    C        1.14682        15.37444         2.02807
| 94>    C        2.52731        15.58766         2.08169
| 95>    C        3.24232        14.48076         2.48759
| 96>    S        2.14912        13.16556         2.85359
| 97>    C        4.63198        14.15866         2.55759
| 98>    S        4.93722        12.46443         2.78591
| 99>    C        6.66121        12.65903         2.71130
|100>    C        6.98320        13.99195         2.52418
|101>    C        5.83443        14.85000         2.44574
|102>    C        8.36198        14.48257         2.45692
|103>    C        8.46992        15.93672         2.42672
|104>    C        7.33225        16.80080         2.35456
|105>    C        5.95590        16.30312         2.29800
|106>    C        9.66267        16.61585         2.47817
|107>    S        9.39611        18.32414         2.45286
|108>    C        7.67734        18.12890         2.36378
|109>    C        7.37449        11.42570         2.83419
|110>    C        8.56973        10.92942         2.36584
|111>    C        8.69494         9.53858         2.51560
|112>    S        6.43147        10.14755         3.54922
|113>    O        9.33763        13.74483         2.44212
|114>    O        4.99834        17.05029         2.15566
|115>    C       11.02986        16.03939         2.54844
|116>    C       12.11168        17.07708         2.80951
|117>    C        6.80571        19.32875         2.27072
|118>    C        6.50558        19.66735         0.80777
|119>    C        4.28975         5.43549         3.93334
|120>    C        5.57805         5.94878         3.70910
|121>    C        6.60570         5.14728         3.16144
|122>    C        6.41978         3.79706         2.86552
|123>    C        5.13745         3.26101         3.13462
|124>    C        4.10351         4.10033         3.62197
|125>    C        5.94020         7.30511         3.78715
|126>    C        7.17984         7.59294         3.29738
|127>    S        8.00874         6.13458         2.78081
|128>    C        4.67306         1.93213         2.96714
|129>    C        3.34710         1.77071         3.26005
|130>    S        2.59117         3.26054         3.77305
|131>    C        3.19251         6.31197         4.29542
|132>    C        7.47163         3.02228         2.24501
|133>    C        2.02192         6.45511         3.60930
|134>    C        1.22185         7.50872         4.09078
|135>    C        1.75689         8.14938         5.16402
|136>    S        3.28670         7.46003         5.60012
|137>    C        8.82180         3.13220         2.43286
|138>    C        9.57550         2.27004         1.61333
|139>    C        8.81538         1.50837         0.78008
|140>    S        7.13060         1.83761         1.01202
|141>    C        1.23366         9.34232         5.88341
|142>    C        2.02769        10.59323         5.50215
|143>    C        9.25602         0.46125        -0.18400
|144>    C        9.23186        -0.92726         0.46039
|145>    C        7.60632         8.94191         3.10802
|146>    C        2.54490         0.59905         3.15812
|147>    C        2.92513        -0.71333         2.97486
|148>    C        1.85085        -1.59325         2.85462
|149>    C        0.61890        -0.97659         2.93785
|150>    S        0.82067         0.73599         3.21430
|151>    C       -0.71193        -1.43716         2.73082
|152>    S       -1.94149        -0.20995         2.78465
|153>    C       -3.18246        -1.29395         2.23777
|154>    C       -2.65326        -2.55894         2.01648
|155>    C       -1.26812        -2.66258         2.37621
|156>    C       -3.34218        -3.66359         1.34334
|157>    C       -2.67531        -4.95227         1.47485
|158>    C       -1.37938        -5.10425         2.05803
|159>    C       -0.58574        -3.95288         2.49403
|160>    C       -3.23460        -6.14175         1.07911
|161>    S       -2.18010        -7.46232         1.43847
|162>    C       -0.97541        -6.41314         2.11794
|163>    C       -4.50467        -0.75575         2.18514
|164>    C       -5.71402        -1.30714         1.83601
|165>    C       -6.78954        -0.41236         1.95717
|166>    C       -6.40988         0.81685         2.40009
|167>    S       -4.72506         0.90804         2.68396
|168>    O       -4.36372        -3.52758         0.68196
|169>    O        0.53258        -4.07742         2.97411
|170>    C       -4.56385        -6.35537         0.45031
|171>    C       -4.93598        -7.82268         0.29934
|172>    C        0.27360        -7.00269         2.66935
|173>    C        1.12597        -7.66660         1.58672
|174>    H        3.60727         0.90431         0.21199
|175>    H       -3.01449        -1.65460        -0.85436
|176>    H       -0.52530         3.17586         1.28089
|177>    H        0.49205         5.52808         0.97377
|178>    H        0.92568        -4.31683         0.17209
|179>    H       -0.11856        -6.42147        -0.90707
|180>    H        2.54506         6.70330        -0.07181
|181>    H        3.11873         5.85448        -1.51513
|182>    H        4.32487         5.60792         1.27983
|183>    H        5.03393         6.47707        -0.08190
|184>    H        4.87587         4.71779        -0.14159
|185>    H       -2.63819        -6.93090        -2.04527
|186>    H       -1.69679        -6.57798        -3.48954
|187>    H       -4.16585        -4.99165        -2.62449
|188>    H       -4.14389        -6.24178        -3.87423
|189>    H       -3.23857        -4.74205        -4.10009
|190>    H        5.69705        -0.54819         0.13052
|191>    H        5.51662        -1.87424        -1.03152
|192>    H        5.36669        -2.20309         0.68991
|193>    H       -5.40039        -1.09428        -1.27340
|194>    H       -7.67530         0.13563        -1.33471
|195>    H      -10.01472         7.80822        -1.18632
|196>    H       -8.91625        10.08423        -0.58205
|197>    H      -13.76544         5.67507        -1.44609
|198>    H      -13.54663         5.71807         0.28512
|199>    H      -15.83826         4.28840        -1.17088
|200>    H      -15.96316         5.81131        -0.28712
|201>    H      -15.61953         4.31263         0.58005
|202>    H      -13.23676        -0.41460        -0.29260
|203>    H      -11.45593        -0.36846        -0.25292
|204>    H      -13.13963        -0.09075        -2.78770
|205>    H      -12.29261        -1.55599        -2.27457
|206>    H      -11.37156        -0.10947        -2.69409
|207>    H       -5.09824         8.61986         1.91806
|208>    H       -1.75499        14.89144         1.34792
|209>    H       -2.33328         9.90905         5.03715
|210>    H       -1.85257         7.40977         5.58807
|211>    H       -6.52199        14.25147         0.99562
|212>    H       -6.81883        16.38080        -0.44785
|213>    H       -2.01011         5.07141         4.47460
|214>    H       -0.96028         5.26886         3.07598
|215>    H       -3.99864         4.95277         2.91848
|216>    H       -2.82278         3.67864         2.59680
|217>    H       -2.90487         5.09132         1.54166
|218>    H       -5.48005        17.86739        -2.11248
|219>    H       -3.96089        17.17894        -2.70765
|220>    H       -4.25134        18.85641        -0.16805
|221>    H       -3.57498        19.41639        -1.70163
|222>    H       -2.74347        18.16413        -0.77352
|223>    H        0.44575        16.12656         1.71407
|224>    H        3.00179        16.51355         1.81637
|225>    H        9.31170        11.55163         1.90131
|226>    H        9.54577         8.97935         2.16741
|227>    H       11.23002        15.51389         1.60864
|228>    H       11.03656        15.27011         3.32678
|229>    H       12.13372        17.81748         2.01218
|230>    H       13.08559        16.59742         2.86164
|231>    H       11.92921        17.59174         3.75064
|232>    H        7.29960        20.17663         2.74993
|233>    H        5.86423        19.12094         2.78232
|234>    H        7.42819        19.84208         0.25793
|235>    H        5.89033        20.56132         0.75306
|236>    H        5.96683        18.84575         0.34348
|237>    H        5.27164         8.06738         4.14059
|238>    H        5.29015         1.11527         2.64350
|239>    H        1.77537         5.84801         2.75788
|240>    H        0.28720         7.79605         3.64779
|241>    H        9.26257         3.78900         3.16078
|242>    H       10.64982         2.22133         1.63719
|243>    H        1.29788         9.18702         6.96323
|244>    H        0.18584         9.47947         5.61152
|245>    H        3.07309        10.47975         5.78073
|246>    H        1.62410        11.46657         6.00764
|247>    H        1.97158        10.75834         4.42898
|248>    H       10.27097         0.69063        -0.51562
|249>    H        8.59945         0.46450        -1.05675
|250>    H        9.89211        -0.95433         1.32416
|251>    H        9.56046        -1.67866        -0.25302
|252>    H        8.22482        -1.17565         0.78705
|253>    H        3.95364        -1.02159         2.93048
|254>    H        1.96070        -2.65108         2.71297
|255>    H       -5.81708        -2.31444         1.48195
|256>    H       -7.80479        -0.66540         1.71088
|257>    H       -7.02121         1.68104         2.57022
|258>    H       -4.56627        -5.86212        -0.52598
|259>    H       -5.31450        -5.83115         1.05013
|260>    H       -4.21036        -8.34223        -0.32351
|261>    H       -5.91535        -7.91514        -0.16297
|262>    H       -4.96436        -8.31285         1.27023
|263>    H        0.00758        -7.75285         3.42020
|264>    H        0.84310        -6.20916         3.15322
|265>    H        0.55551        -8.43468         1.06676
|266>    H        1.99995        -8.12982         2.03718
|267>    H        1.46342        -6.92727         0.86470
|268> *
|269> 
|270>                          ****END OF INPUT****
================================================================================

                       ****************************
                       * Single Point Calculation *
                       ****************************

---------------------------------
CARTESIAN COORDINATES (ANGSTROEM)
---------------------------------
  C      0.726330    0.977990   -0.064920
  C      1.656520   -0.074220   -0.136090
  C      1.218020   -1.397170   -0.376300
  C     -0.115570   -1.748820   -0.586400
  C     -1.051890   -0.693690   -0.513570
  C     -0.610560    0.626230   -0.247500
  C      3.073940   -0.003080   -0.002860
  C      3.700630   -1.188060   -0.160580
  S      2.575940   -2.488990   -0.457320
  C     -2.458520   -0.750980   -0.692640
  C     -3.072490    0.465360   -0.615300
  S     -1.939890    1.750160   -0.266210
  C      1.099990    2.365180    0.118440
  C     -0.489680   -3.106520   -0.917770
  C      0.376210    3.355220    0.724960
  C      0.955150    4.632480    0.597460
  C      2.128900    4.633960   -0.091040
  S      2.547380    3.029970   -0.593490
  C      0.115100   -4.274140   -0.531810
  C     -0.462370   -5.421500   -1.103650
  C     -1.504490   -5.149810   -1.938640
  S     -1.794340   -3.449630   -2.022010
  C      3.014580    5.783760   -0.428340
  C      4.401970    5.637200    0.196280
  C     -2.326360   -6.124340   -2.716200
  C     -3.545950   -5.486940   -3.369280
  C      5.157170   -1.467360   -0.086630
  C     -4.454770    0.777030   -0.756470
  C     -5.515460   -0.043760   -1.078280
  C     -6.743920    0.617900   -1.108360
  C     -6.657850    1.960980   -0.805470
  S     -4.991680    2.400950   -0.498510
  C     -7.604300    3.023930   -0.722880
  S     -6.884220    4.592680   -0.519580
  C     -8.420150    5.401810   -0.499060
  C     -9.449060    4.489520   -0.654560
  C     -8.992730    3.131610   -0.757040
  C    -10.865370    4.866510   -0.662260
  C    -11.780620    3.731400   -0.667680
  C    -11.336740    2.373950   -0.730950
  C     -9.922140    2.000660   -0.806560
  C    -13.147210    3.852000   -0.598150
  S    -13.899120    2.295310   -0.597650
  C    -12.375340    1.477670   -0.694310
  C     -8.331960    6.813040   -0.283580
  C     -9.078390    7.901590   -0.669670
  C     -8.485710    9.128650   -0.339150
  S     -6.883660    7.328010    0.540770
  O    -11.255130    6.025920   -0.658470
  O     -9.566470    0.832280   -0.877750
  C    -13.943840    5.103900   -0.529110
  C    -15.434220    4.863330   -0.339930
  C    -12.344740   -0.006200   -0.772220
  C    -12.285680   -0.470280   -2.230280
  C     -3.068870   10.577920    2.360020
  C     -4.313050   10.660560    1.714020
  C     -4.740030   11.864140    1.107650
  C     -3.960730   13.018960    1.093420
  C     -2.691520   12.929520    1.707790
  C     -2.287260   11.719610    2.330750
  C     -5.236330    9.611260    1.527420
  C     -6.318770    9.949210    0.770520
  S     -6.287580   11.641330    0.315690
  C     -1.663040   13.904430    1.760270
  C     -0.509180   13.462170    2.343750
  S     -0.663550   11.821620    2.945930
  C     -2.650540    9.335610    2.993670
  C     -4.443000   14.217810    0.438090
  C     -2.342970    9.121580    4.304020
  C     -2.095560    7.763720    4.601590
  C     -2.192220    6.940690    3.520700
  S     -2.595120    7.843110    2.094910
  C     -5.722970   14.698980    0.432610
  C     -5.881070   15.864830   -0.341260
  C     -4.733800   16.273150   -0.948190
  S     -3.416960   15.219770   -0.551450
  C     -1.967220    5.467410    3.457300
  C     -2.986920    4.753270    2.572510
  C     -4.510020   17.468720   -1.808190
  C     -3.718940   18.547220   -1.064840
  C     -7.285790    9.002950    0.319970
  C      0.765210   14.101270    2.398420
  C      1.146820   15.374440    2.028070
  C      2.527310   15.587660    2.081690
  C      3.242320   14.480760    2.487590
  S      2.149120   13.165560    2.853590
  C      4.631980   14.158660    2.557590
  S      4.937220   12.464430    2.785910
  C      6.661210   12.659030    2.711300
  C      6.983200   13.991950    2.524180
  C      5.834430   14.850000    2.445740
  C      8.361980   14.482570    2.456920
  C      8.469920   15.936720    2.426720
  C      7.332250   16.800800    2.354560
  C      5.955900   16.303120    2.298000
  C      9.662670   16.615850    2.478170
  S      9.396110   18.324140    2.452860
  C      7.677340   18.128900    2.363780
  C      7.374490   11.425700    2.834190
  C      8.569730   10.929420    2.365840
  C      8.694940    9.538580    2.515600
  S      6.431470   10.147550    3.549220
  O      9.337630   13.744830    2.442120
  O      4.998340   17.050290    2.155660
  C     11.029860   16.039390    2.548440
  C     12.111680   17.077080    2.809510
  C      6.805710   19.328750    2.270720
  C      6.505580   19.667350    0.807770
  C      4.289750    5.435490    3.933340
  C      5.578050    5.948780    3.709100
  C      6.605700    5.147280    3.161440
  C      6.419780    3.797060    2.865520
  C      5.137450    3.261010    3.134620
  C      4.103510    4.100330    3.621970
  C      5.940200    7.305110    3.787150
  C      7.179840    7.592940    3.297380
  S      8.008740    6.134580    2.780810
  C      4.673060    1.932130    2.967140
  C      3.347100    1.770710    3.260050
  S      2.591170    3.260540    3.773050
  C      3.192510    6.311970    4.295420
  C      7.471630    3.022280    2.245010
  C      2.021920    6.455110    3.609300
  C      1.221850    7.508720    4.090780
  C      1.756890    8.149380    5.164020
  S      3.286700    7.460030    5.600120
  C      8.821800    3.132200    2.432860
  C      9.575500    2.270040    1.613330
  C      8.815380    1.508370    0.780080
  S      7.130600    1.837610    1.012020
  C      1.233660    9.342320    5.883410
  C      2.027690   10.593230    5.502150
  C      9.256020    0.461250   -0.184000
  C      9.231860   -0.927260    0.460390
  C      7.606320    8.941910    3.108020
  C      2.544900    0.599050    3.158120
  C      2.925130   -0.713330    2.974860
  C      1.850850   -1.593250    2.854620
  C      0.618900   -0.976590    2.937850
  S      0.820670    0.735990    3.214300
  C     -0.711930   -1.437160    2.730820
  S     -1.941490   -0.209950    2.784650
  C     -3.182460   -1.293950    2.237770
  C     -2.653260   -2.558940    2.016480
  C     -1.268120   -2.662580    2.376210
  C     -3.342180   -3.663590    1.343340
  C     -2.675310   -4.952270    1.474850
  C     -1.379380   -5.104250    2.058030
  C     -0.585740   -3.952880    2.494030
  C     -3.234600   -6.141750    1.079110
  S     -2.180100   -7.462320    1.438470
  C     -0.975410   -6.413140    2.117940
  C     -4.504670   -0.755750    2.185140
  C     -5.714020   -1.307140    1.836010
  C     -6.789540   -0.412360    1.957170
  C     -6.409880    0.816850    2.400090
  S     -4.725060    0.908040    2.683960
  O     -4.363720   -3.527580    0.681960
  O      0.532580   -4.077420    2.974110
  C     -4.563850   -6.355370    0.450310
  C     -4.935980   -7.822680    0.299340
  C      0.273600   -7.002690    2.669350
  C      1.125970   -7.666600    1.586720
  H      3.607270    0.904310    0.211990
  H     -3.014490   -1.654600   -0.854360
  H     -0.525300    3.175860    1.280890
  H      0.492050    5.528080    0.973770
  H      0.925680   -4.316830    0.172090
  H     -0.118560   -6.421470   -0.907070
  H      2.545060    6.703300   -0.071810
  H      3.118730    5.854480   -1.515130
  H      4.324870    5.607920    1.279830
  H      5.033930    6.477070   -0.081900
  H      4.875870    4.717790   -0.141590
  H     -2.638190   -6.930900   -2.045270
  H     -1.696790   -6.577980   -3.489540
  H     -4.165850   -4.991650   -2.624490
  H     -4.143890   -6.241780   -3.874230
  H     -3.238570   -4.742050   -4.100090
  H      5.697050   -0.548190    0.130520
  H      5.516620   -1.874240   -1.031520
  H      5.366690   -2.203090    0.689910
  H     -5.400390   -1.094280   -1.273400
  H     -7.675300    0.135630   -1.334710
  H    -10.014720    7.808220   -1.186320
  H     -8.916250   10.084230   -0.582050
  H    -13.765440    5.675070   -1.446090
  H    -13.546630    5.718070    0.285120
  H    -15.838260    4.288400   -1.170880
  H    -15.963160    5.811310   -0.287120
  H    -15.619530    4.312630    0.580050
  H    -13.236760   -0.414600   -0.292600
  H    -11.455930   -0.368460   -0.252920
  H    -13.139630   -0.090750   -2.787700
  H    -12.292610   -1.555990   -2.274570
  H    -11.371560   -0.109470   -2.694090
  H     -5.098240    8.619860    1.918060
  H     -1.754990   14.891440    1.347920
  H     -2.333280    9.909050    5.037150
  H     -1.852570    7.409770    5.588070
  H     -6.521990   14.251470    0.995620
  H     -6.818830   16.380800   -0.447850
  H     -2.010110    5.071410    4.474600
  H     -0.960280    5.268860    3.075980
  H     -3.998640    4.952770    2.918480
  H     -2.822780    3.678640    2.596800
  H     -2.904870    5.091320    1.541660
  H     -5.480050   17.867390   -2.112480
  H     -3.960890   17.178940   -2.707650
  H     -4.251340   18.856410   -0.168050
  H     -3.574980   19.416390   -1.701630
  H     -2.743470   18.164130   -0.773520
  H      0.445750   16.126560    1.714070
  H      3.001790   16.513550    1.816370
  H      9.311700   11.551630    1.901310
  H      9.545770    8.979350    2.167410
  H     11.230020   15.513890    1.608640
  H     11.036560   15.270110    3.326780
  H     12.133720   17.817480    2.012180
  H     13.085590   16.597420    2.861640
  H     11.929210   17.591740    3.750640
  H      7.299600   20.176630    2.749930
  H      5.864230   19.120940    2.782320
  H      7.428190   19.842080    0.257930
  H      5.890330   20.561320    0.753060
  H      5.966830   18.845750    0.343480
  H      5.271640    8.067380    4.140590
  H      5.290150    1.115270    2.643500
  H      1.775370    5.848010    2.757880
  H      0.287200    7.796050    3.647790
  H      9.262570    3.789000    3.160780
  H     10.649820    2.221330    1.637190
  H      1.297880    9.187020    6.963230
  H      0.185840    9.479470    5.611520
  H      3.073090   10.479750    5.780730
  H      1.624100   11.466570    6.007640
  H      1.971580   10.758340    4.428980
  H     10.270970    0.690630   -0.515620
  H      8.599450    0.464500   -1.056750
  H      9.892110   -0.954330    1.324160
  H      9.560460   -1.678660   -0.253020
  H      8.224820   -1.175650    0.787050
  H      3.953640   -1.021590    2.930480
  H      1.960700   -2.651080    2.712970
  H     -5.817080   -2.314440    1.481950
  H     -7.804790   -0.665400    1.710880
  H     -7.021210    1.681040    2.570220
  H     -4.566270   -5.862120   -0.525980
  H     -5.314500   -5.831150    1.050130
  H     -4.210360   -8.342230   -0.323510
  H     -5.915350   -7.915140   -0.162970
  H     -4.964360   -8.312850    1.270230
  H      0.007580   -7.752850    3.420200
  H      0.843100   -6.209160    3.153220
  H      0.555510   -8.434680    1.066760
  H      1.999950   -8.129820    2.037180
  H      1.463420   -6.927270    0.864700

----------------------------
CARTESIAN COORDINATES (A.U.)
----------------------------
  NO LB      ZA    FRAG     MASS         X           Y           Z
   0 C     6.0000    0    12.011    1.372565    1.848133   -0.122681
   1 C     6.0000    0    12.011    3.130369   -0.140255   -0.257173
   2 C     6.0000    0    12.011    2.301724   -2.640269   -0.711104
   3 C     6.0000    0    12.011   -0.218396   -3.304791   -1.108135
   4 C     6.0000    0    12.011   -1.987784   -1.310884   -0.970507
   5 C     6.0000    0    12.011   -1.153791    1.183403   -0.467707
   6 C     6.0000    0    12.011    5.808905   -0.005820   -0.005405
   7 C     6.0000    0    12.011    6.993177   -2.245108   -0.303452
   8 S    16.0000    0    32.060    4.867821   -4.703509   -0.864210
   9 C     6.0000    0    12.011   -4.645929   -1.419147   -1.308900
  10 C     6.0000    0    12.011   -5.806165    0.879403   -1.162748
  11 S    16.0000    0    32.060   -3.665861    3.307323   -0.503064
  12 C     6.0000    0    12.011    2.078680    4.469542    0.223819
  13 C     6.0000    0    12.011   -0.925361   -5.870472   -1.734334
  14 C     6.0000    0    12.011    0.710934    6.340447    1.369976
  15 C     6.0000    0    12.011    1.804972    8.754119    1.129036
  16 C     6.0000    0    12.011    4.023038    8.756915   -0.172041
  17 S    16.0000    0    32.060    4.813851    5.725813   -1.121534
  18 C     6.0000    0    12.011    0.217507   -8.076954   -1.004975
  19 C     6.0000    0    12.011   -0.873753  -10.245150   -2.085596
  20 C     6.0000    0    12.011   -2.843074   -9.731731   -3.663499
  21 S    16.0000    0    32.060   -3.390811   -6.518856   -3.821045
  22 C     6.0000    0    12.011    5.696731   10.929722   -0.809445
  23 C     6.0000    0    12.011    8.318518   10.652764    0.370915
  24 C     6.0000    0    12.011   -4.396183  -11.573325   -5.132874
  25 C     6.0000    0    12.011   -6.700874  -10.368814   -6.367016
  26 C     6.0000    0    12.011    9.745639   -2.772909   -0.163707
  27 C     6.0000    0    12.011   -8.418295    1.468374   -1.429521
  28 C     6.0000    0    12.011  -10.422709   -0.082694   -2.037654
  29 C     6.0000    0    12.011  -12.744162    1.167662   -2.094497
  30 C     6.0000    0    12.011  -12.581513    3.705715   -1.522118
  31 S    16.0000    0    32.060   -9.432908    4.537138   -0.942047
  32 C     6.0000    0    12.011  -14.370044    5.714400   -1.366045
  33 S    16.0000    0    32.060  -13.009290    8.678907   -0.981864
  34 C     6.0000    0    12.011  -15.911778   10.207942   -0.943087
  35 C     6.0000    0    12.011  -17.856136    8.483963   -1.236939
  36 C     6.0000    0    12.011  -16.993797    5.917885   -1.430598
  37 C     6.0000    0    12.011  -20.532574    9.196371   -1.251490
  38 C     6.0000    0    12.011  -22.262145    7.051324   -1.261732
  39 C     6.0000    0    12.011  -21.423334    4.486115   -1.381295
  40 C     6.0000    0    12.011  -18.750127    3.780699   -1.524178
  41 C     6.0000    0    12.011  -24.844626    7.279225   -1.130340
  42 S    16.0000    0    32.060  -26.265530    4.337507   -1.129395
  43 C     6.0000    0    12.011  -23.386003    2.792392   -1.312056
  44 C     6.0000    0    12.011  -15.745123   12.874780   -0.535889
  45 C     6.0000    0    12.011  -17.155671   14.931841   -1.265493
  46 C     6.0000    0    12.011  -16.035668   17.250648   -0.640901
  47 S    16.0000    0    32.060  -13.008232   13.847932    1.021907
  48 O     8.0000    0    15.999  -21.269113   11.387339   -1.244328
  49 O     8.0000    0    15.999  -18.078008    1.572781   -1.658707
  50 C     6.0000    0    12.011  -26.350039    9.644973   -0.999873
  51 C     6.0000    0    12.011  -29.166449    9.190362   -0.642375
  52 C     6.0000    0    12.011  -23.328178   -0.011716   -1.459284
  53 C     6.0000    0    12.011  -23.216571   -0.888700   -4.214618
  54 C     6.0000    0    12.011   -5.799324   19.989372    4.459791
  55 C     6.0000    0    12.011   -8.150483   20.145539    3.239028
  56 C     6.0000    0    12.011   -8.957359   22.419975    2.093155
  57 C     6.0000    0    12.011   -7.484695   24.602269    2.066264
  58 C     6.0000    0    12.011   -5.086236   24.433252    3.227255
  59 C     6.0000    0    12.011   -4.322295   22.146853    4.404479
  60 C     6.0000    0    12.011   -9.895230   18.162649    2.886405
  61 C     6.0000    0    12.011  -11.940745   18.801282    1.456072
  62 S    16.0000    0    32.060  -11.881804   21.998926    0.596568
  63 C     6.0000    0    12.011   -3.142690   26.275565    3.326428
  64 C     6.0000    0    12.011   -0.962211   25.439814    4.429046
  65 S    16.0000    0    32.060   -1.253928   22.339624    5.567001
  66 C     6.0000    0    12.011   -5.008795   17.641746    5.657216
  67 C     6.0000    0    12.011   -8.396053   26.867767    0.827870
  68 C     6.0000    0    12.011   -4.427572   17.237288    8.133419
  69 C     6.0000    0    12.011   -3.960034   14.671305    8.695745
  70 C     6.0000    0    12.011   -4.142695   13.116003    6.653159
  71 S    16.0000    0    32.060   -4.904066   14.821330    3.958806
  72 C     6.0000    0    12.011  -10.814846   27.777047    0.817514
  73 C     6.0000    0    12.011  -11.113612   29.980184   -0.644888
  74 C     6.0000    0    12.011   -8.945586   30.751797   -1.791819
  75 S    16.0000    0    32.060   -6.457119   28.761197   -1.042089
  76 C     6.0000    0    12.011   -3.717507   10.331908    6.533350
  77 C     6.0000    0    12.011   -5.644461    8.982379    4.861339
  78 C     6.0000    0    12.011   -8.522703   33.011097   -3.416984
  79 C     6.0000    0    12.011   -7.027778   35.049166   -2.012256
  80 C     6.0000    0    12.011  -13.768148   17.013110    0.604656
  81 C     6.0000    0    12.011    1.446037   26.647538    4.532357
  82 C     6.0000    0    12.011    2.167176   29.053481    3.832497
  83 C     6.0000    0    12.011    4.775924   29.456408    3.933824
  84 C     6.0000    0    12.011    6.127097   27.364671    4.700864
  85 S    16.0000    0    32.060    4.061248   24.879303    5.392504
  86 C     6.0000    0    12.011    8.753174   26.755990    4.833145
  87 S    16.0000    0    32.060    9.329994   23.554359    5.264607
  88 C     6.0000    0    12.011   12.587863   23.922100    5.123614
  89 C     6.0000    0    12.011   13.196336   26.440954    4.770009
  90 C     6.0000    0    12.011   11.025475   28.062433    4.621779
  91 C     6.0000    0    12.011   15.801852   27.368091    4.642906
  92 C     6.0000    0    12.011   16.005829   30.116036    4.585836
  93 C     6.0000    0    12.011   13.855944   31.748911    4.449474
  94 C     6.0000    0    12.011   11.255020   30.808432    4.342591
  95 C     6.0000    0    12.011   18.259800   31.399406    4.683063
  96 S    16.0000    0    32.060   17.756075   34.627606    4.635234
  97 C     6.0000    0    12.011   14.508070   34.258656    4.466897
  98 C     6.0000    0    12.011   13.935766   21.591444    5.355843
  99 C     6.0000    0    12.011   16.194443   20.653611    4.470790
 100 C     6.0000    0    12.011   16.431055   18.025304    4.753795
 101 S    16.0000    0    32.060   12.153717   19.176090    6.707054
 102 O     8.0000    0    15.999   17.645563   25.973964    4.614938
 103 O     8.0000    0    15.999    9.445494   32.220379    4.073607
 104 C     6.0000    0    12.011   20.843415   30.310054    4.815854
 105 C     6.0000    0    12.011   22.887758   32.271004    5.309204
 106 C     6.0000    0    12.011   12.860928   36.526044    4.291039
 107 C     6.0000    0    12.011   12.293765   37.165905    1.526464
 108 C     6.0000    0    12.011    8.106453   10.271588    7.432935
 109 C     6.0000    0    12.011   10.540987   11.241565    7.009183
 110 C     6.0000    0    12.011   12.482964    9.726950    5.974256
 111 C     6.0000    0    12.011   12.131626    7.175404    5.415048
 112 C     6.0000    0    12.011    9.708374    6.162416    5.923573
 113 C     6.0000    0    12.011    7.754510    7.748501    6.844531
 114 C     6.0000    0    12.011   11.225351   13.804657    7.156676
 115 C     6.0000    0    12.011   13.567931   14.348577    6.231145
 116 S    16.0000    0    32.060   15.134325   11.592676    5.254969
 117 C     6.0000    0    12.011    8.830804    3.651197    5.607082
 118 C     6.0000    0    12.011    6.325102    3.346157    6.160602
 119 S    16.0000    0    32.060    4.896602    6.161528    7.130031
 120 C     6.0000    0    12.011    6.032970   11.927895    8.117167
 121 C     6.0000    0    12.011   14.119334    5.711282    4.242454
 122 C     6.0000    0    12.011    3.820875   12.198390    6.820589
 123 C     6.0000    0    12.011    2.308962   14.189424    7.730454
 124 C     6.0000    0    12.011    3.320041   15.400096    9.758584
 125 S    16.0000    0    32.060    6.210963   14.097414   10.582693
 126 C     6.0000    0    12.011   16.670786    5.919000    4.597439
 127 C     6.0000    0    12.011   18.095073    4.289754    3.048752
 128 C     6.0000    0    12.011   16.658654    2.850406    1.474138
 129 S    16.0000    0    32.060   13.474881    3.472580    1.912441
 130 C     6.0000    0    12.011    2.331280   17.654426   11.118034
 131 C     6.0000    0    12.011    3.831779   20.018304   10.397557
 132 C     6.0000    0    12.011   17.491343    0.871636   -0.347710
 133 C     6.0000    0    12.011   17.445687   -1.752267    0.870011
 134 C     6.0000    0    12.011   14.373862   16.897761    5.873307
 135 C     6.0000    0    12.011    4.809164    1.132040    5.967982
 136 C     6.0000    0    12.011    5.527695   -1.347998    5.621671
 137 C     6.0000    0    12.011    3.497600   -3.010806    5.394450
 138 C     6.0000    0    12.011    1.169552   -1.845488    5.551732
 139 S    16.0000    0    32.060    1.550842    1.390820    6.074147
 140 C     6.0000    0    12.011   -1.345353   -2.715839    5.160502
 141 S    16.0000    0    32.060   -3.668884   -0.396748    5.262226
 142 C     6.0000    0    12.011   -6.013978   -2.445211    4.228772
 143 C     6.0000    0    12.011   -5.013935   -4.835696    3.810595
 144 C     6.0000    0    12.011   -2.396400   -5.031547    4.490386
 145 C     6.0000    0    12.011   -6.315805   -6.923182    2.538545
 146 C     6.0000    0    12.011   -5.055603   -9.358434    2.787063
 147 C     6.0000    0    12.011   -2.606650   -9.645635    3.889113
 148 C     6.0000    0    12.011   -1.106888   -7.469861    4.713034
 149 C     6.0000    0    12.011   -6.112508  -11.606225    2.039222
 150 S    16.0000    0    32.060   -4.119792  -14.101741    2.718314
 151 C     6.0000    0    12.011   -1.843258  -12.119078    4.002327
 152 C     6.0000    0    12.011   -8.512593   -1.428161    4.129316
 153 C     6.0000    0    12.011  -10.797933   -2.470137    3.469556
 154 C     6.0000    0    12.011  -12.830371   -0.779247    3.698515
 155 C     6.0000    0    12.011  -12.112918    1.543623    4.535513
 156 S    16.0000    0    32.060   -8.929069    1.715947    5.071949
 157 O     8.0000    0    15.999   -8.246236   -6.666160    1.288718
 158 O     8.0000    0    15.999    1.006430   -7.705207    5.620253
 159 C     6.0000    0    12.011   -8.624427  -12.009909    0.850963
 160 C     6.0000    0    12.011   -9.327650  -14.782723    0.565671
 161 C     6.0000    0    12.011    0.517029  -13.233166    5.044340
 162 C     6.0000    0    12.011    2.127775  -14.487774    2.998466
 163 H     1.0000    0     1.008    6.816752    1.708898    0.400603
 164 H     1.0000    0     1.008   -5.696561   -3.126741   -1.614506
 165 H     1.0000    0     1.008   -0.992673    6.001506    2.420531
 166 H     1.0000    0     1.008    0.929840   10.446557    1.840159
 167 H     1.0000    0     1.008    1.749282   -8.157626    0.325203
 168 H     1.0000    0     1.008   -0.224046  -12.134820   -1.714114
 169 H     1.0000    0     1.008    4.809466   12.667401   -0.135701
 170 H     1.0000    0     1.008    5.893546   11.063364   -2.863181
 171 H     1.0000    0     1.008    8.172820   10.597433    2.418528
 172 H     1.0000    0     1.008    9.512749   12.239888   -0.154769
 173 H     1.0000    0     1.008    9.214059    8.915331   -0.267566
 174 H     1.0000    0     1.008   -4.985457  -13.097503   -3.865000
 175 H     1.0000    0     1.008   -3.206468  -12.430581   -6.594275
 176 H     1.0000    0     1.008   -7.872316   -9.432851   -4.959567
 177 H     1.0000    0     1.008   -7.830817  -11.795255   -7.321234
 178 H     1.0000    0     1.008   -6.120010   -8.961176   -7.748047
 179 H     1.0000    0     1.008   10.765864   -1.035929    0.246647
 180 H     1.0000    0     1.008   10.424901   -3.541800   -1.949290
 181 H     1.0000    0     1.008   10.141574   -4.163237    1.303741
 182 H     1.0000    0     1.008  -10.205258   -2.067890   -2.406377
 183 H     1.0000    0     1.008  -14.504215    0.256304   -2.522236
 184 H     1.0000    0     1.008  -18.925078   14.755397   -2.241820
 185 H     1.0000    0     1.008  -16.849271   19.056433   -1.099915
 186 H     1.0000    0     1.008  -26.012912   10.724328   -2.732714
 187 H     1.0000    0     1.008  -25.599421   10.805586    0.538799
 188 H     1.0000    0     1.008  -29.929974    8.103902   -2.212643
 189 H     1.0000    0     1.008  -30.166001   10.981784   -0.542578
 190 H     1.0000    0     1.008  -29.516634    8.149690    1.096136
 191 H     1.0000    0     1.008  -25.013851   -0.783480   -0.552934
 192 H     1.0000    0     1.008  -21.648570   -0.696288   -0.477950
 193 H     1.0000    0     1.008  -24.830302   -0.171493   -5.267990
 194 H     1.0000    0     1.008  -23.229666   -2.940395   -4.298314
 195 H     1.0000    0     1.008  -21.489134   -0.206868   -5.091092
 196 H     1.0000    0     1.008   -9.634277   16.289175    3.624608
 197 H     1.0000    0     1.008   -3.316450   28.140743    2.547200
 198 H     1.0000    0     1.008   -4.409260   18.725391    9.518834
 199 H     1.0000    0     1.008   -3.500850   14.002436   10.559922
 200 H     1.0000    0     1.008  -12.324775   26.931375    1.881449
 201 H     1.0000    0     1.008  -12.885721   30.955226   -0.846314
 202 H     1.0000    0     1.008   -3.798557    9.583576    8.455769
 203 H     1.0000    0     1.008   -1.814666    9.956702    5.812760
 204 H     1.0000    0     1.008   -7.556335    9.359379    5.515128
 205 H     1.0000    0     1.008   -5.334281    6.951622    4.907241
 206 H     1.0000    0     1.008   -5.489409    9.621200    2.913315
 207 H     1.0000    0     1.008  -10.355794   33.764474   -3.992009
 208 H     1.0000    0     1.008   -7.484997   32.463492   -5.116717
 209 H     1.0000    0     1.008   -8.033868   35.633451   -0.317568
 210 H     1.0000    0     1.008   -6.755733   36.691660   -3.215615
 211 H     1.0000    0     1.008   -5.184407   34.325231   -1.461741
 212 H     1.0000    0     1.008    0.842345   30.474782    3.239123
 213 H     1.0000    0     1.008    5.672561   31.206087    3.432442
 214 H     1.0000    0     1.008   17.596563   21.829417    3.592955
 215 H     1.0000    0     1.008   18.038891   16.968512    4.095811
 216 H     1.0000    0     1.008   21.221662   29.317003    3.039889
 217 H     1.0000    0     1.008   20.856076   28.856326    6.286703
 218 H     1.0000    0     1.008   22.929408   33.670158    3.802469
 219 H     1.0000    0     1.008   24.728181   31.364578    5.407716
 220 H     1.0000    0     1.008   22.542940   33.243571    7.087682
 221 H     1.0000    0     1.008   13.794245   38.128305    5.196615
 222 H     1.0000    0     1.008   11.081789   36.133340    5.257823
 223 H     1.0000    0     1.008   14.037245   37.496097    0.487417
 224 H     1.0000    0     1.008   11.131111   38.855264    1.423077
 225 H     1.0000    0     1.008   11.275675   35.613306    0.649083
 226 H     1.0000    0     1.008    9.961956   15.245139    7.824581
 227 H     1.0000    0     1.008    9.996935    2.107555    4.995491
 228 H     1.0000    0     1.008    3.354963   11.051137    5.211638
 229 H     1.0000    0     1.008    0.542729   14.732399    6.893324
 230 H     1.0000    0     1.008   17.503721    7.160172    5.973009
 231 H     1.0000    0     1.008   20.125243    4.197705    3.093841
 232 H     1.0000    0     1.008    2.452638   17.360952   13.158598
 233 H     1.0000    0     1.008    0.351187   17.913602   10.604236
 234 H     1.0000    0     1.008    5.807298   19.803857   10.923997
 235 H     1.0000    0     1.008    3.069104   21.668677   11.352794
 236 H     1.0000    0     1.008    3.725746   20.330316    8.369559
 237 H     1.0000    0     1.008   19.409320    1.305102   -0.974381
 238 H     1.0000    0     1.008   16.250605    0.877778   -1.996968
 239 H     1.0000    0     1.008   18.693379   -1.803422    2.502300
 240 H     1.0000    0     1.008   18.066651   -3.172208   -0.478139
 241 H     1.0000    0     1.008   15.542657   -2.221657    1.487309
 242 H     1.0000    0     1.008    7.471297   -1.930525    5.537805
 243 H     1.0000    0     1.008    3.705186   -5.009815    5.126770
 244 H     1.0000    0     1.008  -10.992688   -4.373658    2.800480
 245 H     1.0000    0     1.008  -14.748916   -1.257424    3.233095
 246 H     1.0000    0     1.008  -13.268164    3.176705    4.857012
 247 H     1.0000    0     1.008   -8.629000  -11.077801   -0.993958
 248 H     1.0000    0     1.008  -10.042950  -11.019277    1.984458
 249 H     1.0000    0     1.008   -7.956427  -15.764530   -0.611345
 250 H     1.0000    0     1.008  -11.178391  -14.957447   -0.307969
 251 H     1.0000    0     1.008   -9.381281  -15.709010    2.400387
 252 H     1.0000    0     1.008    0.014324  -14.650763    6.463241
 253 H     1.0000    0     1.008    1.593228  -11.733612    5.958722
 254 H     1.0000    0     1.008    1.049762  -15.939235    2.015884
 255 H     1.0000    0     1.008    3.779358  -15.363133    3.849712
 256 H     1.0000    0     1.008    2.765463  -13.090643    1.634046

--------------------------------
INTERNAL COORDINATES (ANGSTROEM)
--------------------------------
 C      0   0   0     0.000000000000     0.00000000     0.00000000
 C      1   0   0     1.406223484763     0.00000000     0.00000000
 C      2   1   0     1.414277128642   120.22759591     0.00000000
 C      3   2   1     1.395084951033   123.90038879     1.56769762
 C      4   3   2     1.412550412623   115.95027630   358.41236565
 C      1   2   3     1.394397872237   116.02824180   359.80517367
 C      2   1   3     1.425443997111   128.00162148   179.48079107
 C      7   2   1     1.349738328307   114.01365040   181.88190764
 S      3   2   1     1.744299824915   110.61168164   178.48004575
 C      5   4   3     1.419139234149   128.34201062   179.46848381
 C     10   5   4     1.364706427075   113.75298387   182.80680988
 S      6   1   2     1.740886830871   124.79510199   182.46096095
 C      1   2   3     1.448288224526   123.53394360   182.82562638
 C      4   3   2     1.446759710180   121.21341481   175.71778075
 C     13   1   2     1.368175135134   127.78736933   209.14914017
 C     15  13   1     1.408126727678   113.49891055   187.16307714
 C     16  15  13     1.360780475646   113.66774490   359.32484541
 S     17  16  15     1.732156295777   110.74116014   359.70970358
 C     14   4   3     1.370423450763   128.38505487    31.54906761
 C     19  14   4     1.406025446462   113.54543719   183.69302419
 C     20  19  14     1.362731760326   113.61515898     0.48081942
 S     21  20  19     1.726723953561   110.74804389   359.66513372
 C     17  16  15     1.490047110799   128.90816258   179.63590223
 C     23  17  16     1.528555196943   111.90163776   118.25250884
 C     21  20  19     1.493244310687   127.57842271   179.28856063
 C     25  21  20     1.523217651716   113.00700143   170.78993613
 C      8   7   2     1.484919480679   127.93325699   179.99039248
 C     11  10   5     1.423996192481   128.76803361   179.42585973
 C     28  11  10     1.379246597349   129.74620112   355.97099875
 C     29  28  11     1.395640617638   113.56643365   179.22195526
 C     30  29  28     1.379497837403   113.69852195   359.75786779
 S     28  11  10     1.729720172774   119.47261071   175.59800617
 C     31  30  29     1.425640702667   134.20362235   179.24075531
 S     33  31  30     1.738051397082   113.87215410   188.61884896
 C     34  33  31     1.736143252212    93.18212740   179.63935446
 C     35  34  33     1.383874662749   110.43819087   359.54832603
 C     33  31  30     1.393018217002   135.88170060     9.04021373
 C     36  35  34     1.465644829486   123.33254825   179.24165995
 C     38  36  35     1.458144934840   113.97500694   187.43026599
 C     39  38  36     1.429581424683   122.98743721   356.87913000
 C     37  33  31     1.464685318080   125.00152598     4.84962680
 C     39  38  36     1.373661897630   123.77388711   176.13147086
 S     42  39  38     1.728772007582   110.71126838   181.11886540
 C     40  39  38     1.372352100592   112.58034153   178.67864313
 C     35  34  33     1.430307386333   114.02072607   177.50190023
 C     45  35  34     1.375196108015   134.84885608   149.62733914
 C     46  45  35     1.402208720697   113.39632639   187.60916036
 S     45  35  34     1.744224731335   114.43768202   336.02205182
 O     38  36  35     1.223175690488   123.48458057     7.11750004
 O     41  37  33     1.223389140625   123.70487125   356.92281909
 C     42  39  38     1.485476182408   127.57942041     1.06920772
 C     51  42  39     1.521478077956   113.44340645   185.02016383
 C     44  40  39     1.486228954435   129.42589505   178.23083930
 C     53  44  40     1.531273095695   110.68904962   276.43976978
 C     48  45  35     5.331435858631   159.28890423   164.32745119
 C     55  48  45     1.404325190973    40.97217060     8.32008367
 C     56  55  48     1.413718965601   120.99672952   194.01371325
 C     57  56  55     1.393240903541   122.75935395     1.00491085
 C     58  57  56     1.412920392167   116.45799478     0.83811056
 C     55  48  45     1.383917259485   154.12920055   334.34413510
 C     56  55  48     1.410069504812   126.66900520    10.93285955
 C     61  56  55     1.363372350497   114.13353558   185.00388618
 S     62  61  56     1.752459197642   111.67244835   356.88077257
 C     59  58  57     1.418088420692   128.61351758   175.19921353
 C     64  59  58     1.366541516969   113.93444020   185.01282804
 S     60  55  48     1.739335113369   124.62056592   209.28122208
 C     55  48  45     1.455969246756    80.44296704   175.43984580
 C     58  57  56     1.448890294087   120.28297209   179.04455562
 C     67  55  48     1.362873900366   128.11742449   230.22885344
 C     69  67  55     1.411928961598   113.15415424   174.40623129
 C     70  69  67     1.362000267474   113.66875741     0.95695078
 S     71  70  69     1.734810476824   110.75582163     0.05667161
 C     68  58  57     1.367434751716   127.19503260    38.71814414
 C     73  68  58     1.408217529148   113.49113385   182.30264854
 C     74  73  68     1.360631360876   113.51018352     0.92446343
 S     75  74  73     1.732362444063   110.87377395   359.28199340
 C     71  70  69     1.491709931052   128.30441027   178.47262309
 C     77  71  70     1.527297408398   112.68875638   139.50742474
 C     75  74  73     1.489652682104   128.68502747   181.62734468
 C     79  75  74     1.530208821991   111.27694426   106.28043430
 C     47  46  45     1.374790046080   113.69765118   359.20275393
 C     65  64  59     1.426712126184   128.72661568   170.56093190
 C     82  65  64     1.379763444761   130.54981693     8.40262764
 C     83  82  65     1.397887875654   113.80247033   187.32265494
 C     84  83  82     1.378847968450   113.63739446     0.34594315
 S     82  65  64     1.731455983010   118.81170016   194.91880534
 C     85  84  83     1.428216834238   134.42947172   171.91612991
 S     87  85  84     1.736581922312   113.42168270   194.36517248
 C     88  87  85     1.736541773814    93.41240015   177.26258588
 C     89  88  87     1.383967911803   110.16427227     0.34803271
 C     87  85  84     1.391527010374   136.45293937    11.68730782
 C     90  89  88     1.465014054677   123.20993192   178.27893681
 C     92  90  89     1.458463337249   113.86006553   187.43297216
 C     93  92  90     1.430431522618   122.98813722   354.96993962
 C     94  93  92     1.464658232660   122.96115720   359.69854974
 C     93  92  90     1.373505450262   123.81284192   174.26681866
 S     96  93  92     1.729147059622   110.73634431   181.15786412
 C     94  93  92     1.372232387936   112.59979367   178.83992597
 C     89  88  87     1.430025593967   113.25616886   181.28711983
 C     99  89  88     1.376315450215   135.63584401   149.60191008
 C    100  99  89     1.404471967431   113.46708248   193.74356607
 S     99  89  88     1.741901846776   113.45846634   340.50703479
 O     92  90  89     1.223262960324   123.31338065     6.66664663
 O     95  94  93     1.222883820361   122.18860447   184.49433070
 C     96  93  92     1.485413242367   127.52941453     1.09788311
 C    105  96  93     1.521608554590   113.44341378   188.97010485
 C     98  94  93     1.485947187150   129.31333824   178.33353555
 C    107  98  94     1.531323179280   110.69176031   275.19738533
 C     24  23  17     3.744181846025   112.69456402   300.09635972
 C    109  24  23     1.404801442091    78.08321525   205.93497209
 C    110 109  24     1.413647144128   121.42221612   288.88596286
 C    111 110 109     1.394714645080   122.28819913   357.29856657
 C    112 111 110     1.415674624128   116.55070694     0.35302230
 C    109  24  23     1.383578273933    80.29375798    86.43379915
 C    110 109  24     1.406014044702   125.43799540    98.32659390
 C    115 110 109     1.363608481713   114.69818347   191.29231254
 S    116 115 110     1.755201887106   111.07842257   356.89890396
 C    113 112 111     1.417614078972   128.99293970   181.62144795
 C    118 113 112     1.367487698702   113.76489416   183.29334371
 S    114 109  24     1.736445992854   124.35758557   253.27668802
 C    109  24  23     1.450260229890   103.84570850   325.13336117
 C    112 111 110     1.446272841133   120.84378415   176.93589570
 C    121 109  24     1.364379222247   125.94252550    37.65680628
 C    123 121 109     1.407845526825   113.21029244   188.28786077
 C    124 123 121     1.359616539617   113.51378615   358.32490073
 S    125 124 123     1.733696994460   111.00465605     0.38525435
 C    122 112 111     1.367599743273   128.02643891    34.94279838
 C    127 122 112     1.408194935547   113.53166947   183.35355754
 C    128 127 122     1.360966261815   113.57980999     0.87735711
 S    129 128 127     1.732246746165   110.78501675   359.35621177
 C    125 124 123     1.488085161743   128.38830191   176.44007098
 C    131 125 124     1.529908054950   110.64063425   256.28570069
 C    129 128 127     1.489991325612   128.62964503   182.33088198
 C    133 129 128     1.530941604961   111.12321472    92.65238781
 C    101 100  99     1.375525372249   113.88700921   359.58405069
 C    119 118 113     1.423622745147   128.91694760   177.48209949
 C    136 119 118     1.378586357433   129.61221529    12.98704803
 C    137 136 119     1.393841591573   113.56967787   183.07612009
 C    138 137 136     1.380180274819   113.62170262     0.22283264
 S    136 119 118     1.730571538221   119.60236884   195.02337023
 C    139 138 137     1.423409510542   132.93789952   172.14689427
 S    141 139 138     1.738033327241   115.36969822   186.72180916
 C    142 141 139     1.736127954760    93.15577276   171.61975840
 C    143 142 141     1.388964219914   110.27313538   359.69159175
 C    141 139 138     1.391671564918   134.07802799     0.22877068
 C    144 143 142     1.465598802026   125.48747247   190.85728483
 C    146 144 143     1.456951138302   114.20837232   191.58103691
 C    147 146 144     1.429206562293   123.08768296   352.34544418
 C    145 141 139     1.464376354220   124.68953623    19.09836715
 C    147 146 144     1.372690104175   123.63751188   170.95939652
 S    150 147 146     1.727719590819   110.71285926   181.97443298
 C    148 147 146     1.371121439224   112.73653762   177.80702261
 C    143 142 141     1.428519667698   115.97417728   176.11609800
 C    153 143 142     1.374208903879   132.27833487   181.36635808
 C    154 153 143     1.404298495477   113.35442496   178.64150477
 C    155 154 153     1.360616428719   112.95538721   359.81837336
 S    156 155 154     1.710998604734   112.14323052   359.85024625
 O    146 144 143     1.224526927470   123.81355694    14.14289668
 O    149 145 141     1.223366927949   123.17834317     3.16719981
 C    150 147 146     1.485909992866   127.66614769     0.74593601
 C    160 150 147     1.521272925513   113.54611968   187.19558819
 C    152 148 147     1.487161111212   129.94717336   181.46169723
 C    162 152 148     1.529509340246   112.18930857   244.54176450
 H      7   2   1     1.074224382287   123.67864376     2.37844838
 H     10   5   4     1.073212515628   124.50517916     4.04589875
 H     15  13   1     1.074219928413   123.54258198     9.58413111
 H     16  15  13     1.076183156391   123.11188292   176.92356767
 H     19  14   4     1.074401034298   123.45717747     6.15913429
 H     20  19  14     1.075541265317   123.57786680   180.36550037
 H     23  17  16     1.092298715050   108.67632254   356.93023787
 H     23  17  16     1.094057148873   109.34946973   239.13272754
 H     24  23  17     1.086684098945   110.22097510   298.66303102
 H     24  23  17     1.087262236491   110.42283965   178.80689001
 H     24  23  17     1.088141578564   110.45212448    58.58084313
 H     25  21  20     1.094497166465   108.57487248    48.38475249
 H     25  21  20     1.095537489135   108.75498869   292.36713616
 H     26  25  21     1.088255640096   110.67696681   303.70586692
 H     26  25  21     1.087331675111   110.42064922   183.30240338
 H     26  25  21     1.087854233158   110.38507133    63.22252783
 H     27   8   7     1.087886954513   109.74291245     0.42263324
 H     27   8   7     1.089758114904   110.52319705   240.23226698
 H     27   8   7     1.090051207467   110.54647876   121.21953462
 H     29  28  11     1.074665152361   122.80271625   359.96841351
 H     30  29  28     1.072980605510   123.74581693   180.34560653
 H     46  45  35     1.073479877920   122.66371086     6.73541298
 H     47  46  45     1.075870920696   123.70284797   178.64708862
 H     51  42  39     1.094949336408   108.25938720    62.30666461
 H     51  42  39     1.094509509278   108.23150365   308.14494431
 H     52  51  42     1.088242036038   110.62691149   299.42009375
 H     52  51  42     1.086845205216   110.17296572   179.46042075
 H     52  51  42     1.088105457435   110.60821268    59.49325676
 H     53  44  40     1.092028197804   109.48425881   155.44170173
 H     53  44  40     1.091278155971   108.85995828    35.89235092
 H     54  53  44     1.088113357973   110.59805796   301.82937032
 H     54  53  44     1.086635096571   109.96061911   181.61908390
 H     54  53  44     1.086700946259   109.76831029    62.14872347
 H     61  56  55     1.074496355368   123.66518880     3.34657887
 H     64  59  58     1.073627526240   123.75824064     2.67677623
 H     69  67  55     1.075956548333   122.83430523   356.82537747
 H     70  69  67     1.075856650767   123.31334494   180.90906389
 H     73  68  58     1.075024846504   123.17092014     4.53922478
 H     74  73  68     1.075630181150   123.33049666   180.59530574
 H     77  71  70     1.092499355652   108.20969841    17.51850287
 H     77  71  70     1.094876800604   109.42821508   261.09681137
 H     78  77  71     1.087691523043   110.54768048   302.98641816
 H     78  77  71     1.087364511376   110.38849591   183.13778520
 H     78  77  71     1.087962190290   110.68731193    63.02628572
 H     79  75  74     1.092011160154   108.68911501   345.36112785
 H     79  75  74     1.092952193328   109.74248280   227.11014502
 H     80  79  75     1.087786982915   110.35251213   300.81545205
 H     80  79  75     1.087052194975   110.33038482   180.68423548
 H     80  79  75     1.087734807478   110.21208406    60.70064338
 H     83  82  65     1.075071922850   122.92834894     6.48809638
 H     84  83  82     1.073684434506   123.95025695   179.18788697
 H    100  99  89     1.073989239192   122.56418871    11.70695706
 H    101 100  99     1.076051187398   123.41155163   177.38658196
 H    105  96  93     1.095188712323   108.29040552    66.36613097
 H    105  96  93     1.094371858191   108.18454256   312.16137054
 H    106 105  96     1.088307424628   110.64983605   299.31534727
 H    106 105  96     1.086872550302   110.14147108   179.36029450
 H    106 105  96     1.088069801713   110.59422802    59.41844361
 H    107  98  94     1.092002770418   109.52208980   154.18524258
 H    107  98  94     1.091468802348   108.83733850    34.61841921
 H    108 107  98     1.088146961858   110.61372751   301.72603712
 H    108 107  98     1.086603933133   109.93733752   181.52739482
 H    108 107  98     1.086666152321   109.76567285    62.06589064
 H    115 110 109     1.073754096663   122.86922111     7.25233394
 H    118 113 112     1.073686722140   124.09127270     3.41640310
 H    123 121 109     1.074371131825   122.42053089     5.35459304
 H    124 123 121     1.073484648935   123.64040084   177.26721582
 H    127 122 112     1.074956724385   123.15674982     5.38138401
 H    128 127 122     1.075688349895   123.32302152   180.48123962
 H    131 125 124     1.092819075053   110.06564512   135.27380444
 H    131 125 124     1.091174159793   108.53873859    16.43293574
 H    132 131 125     1.087816936254   110.46612265   298.69638907
 H    132 131 125     1.086797029716   110.38946617   178.37014433
 H    132 131 125     1.087245829194   110.08176209    58.56938342
 H    133 129 128     1.092112865642   108.88721403   332.02578309
 H    133 129 128     1.092148016479   109.70503280   213.55956102
 H    134 133 129     1.087548371476   110.32207387   300.35252949
 H    134 133 129     1.086983784654   110.23887200   180.29596301
 H    134 133 129     1.087443749948   110.37838482    60.30336114
 H    137 136 119     1.074628601937   122.85680158     3.10910184
 H    138 137 136     1.072910086587   123.70353433   180.36084827
 H    154 153 143     1.072675690598   123.03810227   357.13246440
 H    155 154 153     1.074904911236   123.61497183   178.87481508
 H    156 155 154     1.072144086352   128.37050771   179.32283997
 H    160 150 147     1.093820635662   108.35206251    64.37504728
 H    160 150 147     1.094562041777   108.22458246   310.13734746
 H    161 160 150     1.088300835891   110.74194889   299.88056112
 H    161 160 150     1.086942953701   110.16131389   179.89170667
 H    161 160 150     1.087979524348   110.63251675    59.89766992
 H    162 152 148     1.094203997662   108.78557195   124.01760463
 H    162 152 148     1.090023067554   108.34847879     5.94467693
 H    163 162 152     1.088912255235   110.62295360   302.87751061
 H    163 162 152     1.086889148166   109.86187797   183.02130129
 H    163 162 152     1.087103597547   110.35887362    63.55824594

---------------------------
INTERNAL COORDINATES (A.U.)
---------------------------
 C      0   0   0     0.000000000000     0.00000000     0.00000000
 C      1   0   0     2.657377269291     0.00000000     0.00000000
 C      2   1   0     2.672596450602   120.22759591     0.00000000
 C      3   2   1     2.636328491008   123.90038879     1.56769762
 C      4   3   2     2.669333430214   115.95027630   358.41236565
 C      1   2   3     2.635030100251   116.02824180   359.80517367
 C      2   1   3     2.693698773782   128.00162148   179.48079107
 C      7   2   1     2.550635792956   114.01365040   181.88190764
 S      3   2   1     3.296248964537   110.61168164   178.48004575
 C      5   4   3     2.681784498444   128.34201062   179.46848381
 C     10   5   4     2.578921400374   113.75298387   182.80680988
 S      6   1   2     3.289799340496   124.79510199   182.46096095
 C      1   2   3     2.736868107337   123.53394360   182.82562638
 C      4   3   2     2.733979633831   121.21341481   175.71778075
 C     13   1   2     2.585476308645   127.78736933   209.14914017
 C     15  13   1     2.660973877165   113.49891055   187.16307714
 C     16  15  13     2.571502427358   113.66774490   359.32484541
 S     17  16  15     3.273301020166   110.74116014   359.70970358
 C     14   4   3     2.589725009445   128.38505487    31.54906761
 C     19  14   4     2.657003031138   113.54543719   183.69302419
 C     20  19  14     2.575189821012   113.61515898     0.48081942
 S     21  20  19     3.263035381111   110.74804389   359.66513372
 C     17  16  15     2.815780966050   128.90816258   179.63590223
 C     23  17  16     2.888550702803   111.90163776   118.25250884
 C     21  20  19     2.821822798235   127.57842271   179.28856063
 C     25  21  20     2.878464204098   113.00700143   170.78993613
 C      8   7   2     2.806091149408   127.93325699   179.99039248
 C     11  10   5     2.690962819535   128.76803361   179.42585973
 C     28  11  10     2.606398340133   129.74620112   355.97099875
 C     29  28  11     2.637378548712   113.56643365   179.22195526
 C     30  29  28     2.606873115029   113.69852195   359.75786779
 S     28  11  10     3.268697414861   119.47261071   175.59800617
 C     31  30  29     2.694070493411   134.20362235   179.24075531
 S     33  31  30     3.284441147165   113.87215410   188.61884896
 C     34  33  31     3.280835275935    93.18212740   179.63935446
 C     35  34  33     2.615144116269   110.43819087   359.54832603
 C     33  31  30     2.632422929697   135.88170060     9.04021373
 C     36  35  34     2.769667337327   123.33254825   179.24165995
 C     38  36  35     2.755494590412   113.97500694   187.43026599
 C     39  38  36     2.701517378793   122.98743721   356.87913000
 C     37  33  31     2.767854123547   125.00152598     4.84962680
 C     39  38  36     2.595844787123   123.77388711   176.13147086
 S     42  39  38     3.266905642320   110.71126838   181.11886540
 C     40  39  38     2.593369629431   112.58034153   178.67864313
 C     35  34  33     2.702889247495   114.02072607   177.50190023
 C     45  35  34     2.598744024583   134.84885608   149.62733914
 C     46  45  35     2.649790464714   113.39632639   187.60916036
 S     45  35  34     3.296107058235   114.43768202   336.02205182
 O     38  36  35     2.311467068692   123.48458057     7.11750004
 O     41  37  33     2.311870430995   123.70487125   356.92281909
 C     42  39  38     2.807143163213   127.57942041     1.06920772
 C     51  42  39     2.875176886101   113.44340645   185.02016383
 C     44  40  39     2.808565696186   129.42589505   178.23083930
 C     53  44  40     2.893686787106   110.68904962   276.43976978
 C     48  45  35    10.074953673381   159.28890423   164.32745119
 C     55  48  45     2.653790013905    40.97217060     8.32008367
 C     56  55  48     2.671541675316   120.99672952   194.01371325
 C     57  56  55     2.632843746270   122.75935395     1.00491085
 C     58  57  56     2.670032590227   116.45799478     0.83811056
 C     55  48  45     2.615224612433   154.12920055   334.34413510
 C     56  55  48     2.664645193888   126.66900520    10.93285955
 C     61  56  55     2.576400361000   114.13353558   185.00388618
 S     62  61  56     3.311667944415   111.67244835   356.88077257
 C     59  58  57     2.679798748792   128.61351758   175.19921353
 C     64  59  58     2.582389217705   113.93444020   185.01282804
 S     60  55  48     3.286867019381   124.62056592   209.28122208
 C     55  48  45     2.751383135781    80.44296704   175.43984580
 C     58  57  56     2.738005853921   120.28297209   179.04455562
 C     67  55  48     2.575458426762   128.11742449   230.22885344
 C     69  67  55     2.668159057973   113.15415424   174.40623129
 C     70  69  67     2.573807499854   113.66875741     0.95695078
 S     71  70  69     3.278316695456   110.75582163     0.05667161
 C     68  58  57     2.584077186749   127.19503260    38.71814414
 C     73  68  58     2.661145467077   113.49113385   182.30264854
 C     74  73  68     2.571220641281   113.51018352     0.92446343
 S     75  74  73     3.273690583970   110.87377395   359.28199340
 C     71  70  69     2.818923240939   128.30441027   178.47262309
 C     77  71  70     2.886173826920   112.68875638   139.50742474
 C     75  74  73     2.815035603838   128.68502747   181.62734468
 C     79  75  74     2.891675601274   111.27694426   106.28043430
 C     47  46  45     2.597976678732   113.69765118   359.20275393
 C     65  64  59     2.696095190432   128.72661568   170.56093190
 C     82  65  64     2.607375040195   130.54981693     8.40262764
 C     83  82  65     2.641625250915   113.80247033   187.32265494
 C     84  83  82     2.605645040685   113.63739446     0.34594315
 S     82  65  64     3.271977620828   118.81170016   194.91880534
 C     85  84  83     2.698938676565   134.42947172   171.91612991
 S     87  85  84     3.281664242288   113.42168270   194.36517248
 C     88  87  85     3.281588372622    93.41240015   177.26258588
 C     89  88  87     2.615320331442   110.16427227     0.34803271
 C     87  85  84     2.629604957561   136.45293937    11.68730782
 C     90  89  88     2.768475345684   123.20993192   178.27893681
 C     92  90  89     2.756096283766   113.86006553   187.43297216
 C     93  92  90     2.703123831076   122.98813722   354.96993962
 C     94  93  92     2.767802939521   122.96115720   359.69854974
 C     93  92  90     2.595549144444   123.81284192   174.26681866
 S     96  93  92     3.267614387961   110.73634431   181.15786412
 C     94  93  92     2.593143405295   112.59979367   178.83992597
 C     89  88  87     2.702356737095   113.25616886   181.28711983
 C     99  89  88     2.600859274791   135.63584401   149.60191008
 C    100  99  89     2.654067381214   113.46708248   193.74356607
 S     99  89  88     3.291717442577   113.45846634   340.50703479
 O     92  90  89     2.311631984782   123.31338065     6.66664663
 O     95  94  93     2.310915514085   122.18860447   184.49433070
 C     96  93  92     2.807024223774   127.52941453     1.09788311
 C    105  96  93     2.875423451206   113.44341378   188.97010485
 C     98  94  93     2.808033233185   129.31333824   178.33353555
 C    107  98  94     2.893781431365   110.69176031   275.19738533
 C     24  23  17     7.075478284586   112.69456402   300.09635972
 C    109  24  23     2.654689998089    78.08321525   205.93497209
 C    110 109  24     2.671405952401   121.42221612   288.88596286
 C    111 110 109     2.635628714170   122.28819913   357.29856657
 C    112 111 110     2.675237334344   116.55070694     0.35302230
 C    109  24  23     2.614584022577    80.29375798    86.43379915
 C    110 109  24     2.656981484934   125.43799540    98.32659390
 C    115 110 109     2.576846584330   114.69818347   191.29231254
 S    116 115 110     3.316850876372   111.07842257   356.89890396
 C    113 112 111     2.678902372848   128.99293970   181.62144795
 C    118 113 112     2.584177242052   113.76489416   183.29334371
 S    114 109  24     3.281407372840   124.35758557   253.27668802
 C    109  24  23     2.740594657409   103.84570850   325.13336117
 C    112 111 110     2.733059584670   120.84378415   176.93589570
 C    121 109  24     2.578303072860   125.94252550    37.65680628
 C    123 121 109     2.660442484565   113.21029244   188.28786077
 C    124 123 121     2.569302907026   113.51378615   358.32490073
 S    125 124 123     3.276212518732   111.00465605     0.38525435
 C    122 112 111     2.584388975607   128.02643891    34.94279838
 C    127 122 112     2.661102771359   113.53166947   183.35355754
 C    128 127 122     2.571853512338   113.57980999     0.87735711
 S    129 128 127     3.273471946628   110.78501675   359.35621177
 C    125 124 123     2.812073419646   128.38830191   176.44007098
 C    131 125 124     2.891107233935   110.64063425   256.28570069
 C    129 128 127     2.815675547326   128.62964503   182.33088198
 C    133 129 128     2.893060360402   111.12321472    92.65238781
 C    101 100  99     2.599366243810   113.88700921   359.58405069
 C    119 118 113     2.690257106349   128.91694760   177.48209949
 C    136 119 118     2.605150667508   129.61221529    12.98704803
 C    137 136 119     2.633978882143   113.56967787   183.07612009
 C    138 137 136     2.608162734848   113.62170262     0.22283264
 S    136 119 118     3.270306262396   119.60236884   195.02337023
 C    139 138 137     2.689854151342   132.93789952   172.14689427
 S    141 139 138     3.284407000113   115.36969822   186.72180916
 C    142 141 139     3.280806367942    93.15577276   171.61975840
 C    143 142 141     2.624761985452   110.27313538   359.69159175
 C    141 139 138     2.629878126060   134.07802799     0.22877068
 C    144 143 142     2.769580358032   125.48747247   190.85728483
 C    146 144 143     2.753238641896   114.20837232   191.58103691
 C    147 146 144     2.700808991536   123.08768296   352.34544418
 C    145 141 139     2.767270266467   124.68953623    19.09836715
 C    147 146 144     2.594008363635   123.63751188   170.95939652
 S    150 147 146     3.264916862859   110.71285926   181.97443298
 C    148 147 146     2.591044016482   112.73653762   177.80702261
 C    143 142 141     2.699510948869   115.97417728   176.11609800
 C    153 143 142     2.596878479127   132.27833487   181.36635808
 C    154 153 143     2.653739566730   113.35442496   178.64150477
 C    155 154 153     2.571192423593   112.95538721   359.81837336
 S    156 155 154     3.233318778468   112.14323052   359.85024625
 O    146 144 143     2.314020536531   123.81355694    14.14289668
 O    149 145 141     2.311828455121   123.17834317     3.16719981
 C    150 147 146     2.807962946174   127.66614769     0.74593601
 C    160 150 147     2.874789204169   113.54611968   187.19558819
 C    152 148 147     2.810327217208   129.94717336   181.46169723
 C    162 152 148     2.890353772340   112.18930857   244.54176450
 H      7   2   1     2.029989888903   123.67864376     2.37844838
 H     10   5   4     2.028077738033   124.50517916     4.04589875
 H     15  13   1     2.029981472301   123.54258198     9.58413111
 H     16  15  13     2.033691435518   123.11188292   176.92356767
 H     19  14   4     2.030323712824   123.45717747     6.15913429
 H     20  19  14     2.032478437181   123.57786680   180.36550037
[...]
  67   34417.1    290.6   0.022608260   0.00532   0.03790  -0.06202   0.00585
  68   34496.6    289.9   0.091449481   0.02156  -0.02391   0.14359  -0.01922
  69   34555.0    289.4   0.105496707   0.02491   0.15510  -0.02838  -0.00734
  70   34620.3    288.8   0.011808104   0.00279  -0.02916  -0.02300  -0.03761
  71   34746.4    287.8   0.022884191   0.00543   0.01967   0.05385   0.04634
  72   34814.1    287.2   0.008889015   0.00212  -0.02259   0.03564   0.01829
  73   34916.0    286.4   0.086614900   0.02067   0.01037   0.14267   0.01441
  74   34986.1    285.8   0.003843315   0.00092  -0.02513  -0.01498  -0.00793
  75   35073.2    285.1   0.003726702   0.00089   0.02490   0.01446   0.00803
  76   35186.1    284.2   0.006448192   0.00155  -0.01790   0.03427   0.00750
  77   35203.8    284.1   0.050785300   0.01222   0.09237  -0.05629   0.02276
  78   35264.5    283.6   0.095601834   0.02304   0.10348   0.10662   0.03105
  79   35338.0    283.0   0.023264319   0.00562   0.06595   0.03363  -0.01174
  80   35380.8    282.6   0.018276455   0.00442  -0.02934  -0.05476  -0.02368
  81   35410.0    282.4   0.022352363   0.00541   0.05291  -0.02402  -0.04510
  82   35519.7    281.5   0.012514913   0.00304   0.05241   0.01093   0.01313
  83   35577.1    281.1   0.043475962   0.01057   0.03030  -0.09810   0.00546
  84   35683.0    280.2   0.013566176   0.00331   0.00560  -0.05404   0.01889
  85   35785.8    279.4   0.040715983   0.00996  -0.09516   0.01014   0.02829
  86   36021.3    277.6   0.087539859   0.02155   0.09401  -0.11217  -0.01152
  87   36054.0    277.4   0.006670404   0.00164  -0.00096   0.01981  -0.03536
  88   36144.5    276.7   0.017571364   0.00434   0.04137   0.04632  -0.02199
  89   36330.1    275.3   0.045439039   0.01128   0.07352   0.07445   0.01832
  90   36391.6    274.8   0.058599302   0.01457   0.08295   0.08771  -0.00074
  91   36472.0    274.2   0.004612624   0.00115  -0.00914   0.03263   0.00122
  92   36621.9    273.1   0.006338921   0.00159   0.02198   0.03061  -0.01289
  93   36718.8    272.3   0.015050754   0.00378  -0.04955  -0.03506  -0.00961
  94   36769.8    272.0   0.022795005   0.00573   0.07308   0.01861  -0.00642
  95   36849.4    271.4   0.008247999   0.00208   0.03643   0.02675   0.00586
  96   36944.5    270.7   0.003039793   0.00077   0.00032   0.02581  -0.01006
  97   36967.2    270.5   0.025563941   0.00646  -0.04260  -0.06726  -0.01096
  98   36998.4    270.3   0.043533539   0.01101   0.09843   0.00005   0.03631
  99   37020.5    270.1   0.047299529   0.01197   0.07698   0.07772  -0.00057
 100   37060.0    269.8   0.013973102   0.00354   0.03192   0.04636   0.01926
 101   37155.2    269.1   0.025067091   0.00637   0.07024  -0.03543   0.01326
 102   37157.1    269.1   0.021101261   0.00536  -0.04740  -0.03290  -0.04505
 103   37248.2    268.5   0.012204855   0.00311  -0.02658  -0.04855   0.00660
 104   37314.5    268.0   0.085595921   0.02183   0.11410  -0.09386  -0.00097
 105   37454.6    267.0   0.019645407   0.00503  -0.06191  -0.03449   0.00271
 106   37498.9    266.7   0.014922874   0.00382  -0.05213   0.01028  -0.03164
 107   37579.5    266.1   0.024318555   0.00625  -0.03077  -0.06930   0.02227
 108   37671.4    265.5   0.070208521   0.01808  -0.02039  -0.13277   0.00576
 109   37700.1    265.3   0.006123093   0.00158   0.03602  -0.00231   0.01658
 110   37728.8    265.0   0.010022415   0.00258  -0.04364   0.02376  -0.01073
 111   37820.3    264.4   0.064645570   0.01671  -0.11115  -0.01906  -0.06319
 112   37886.3    263.9   0.003991950   0.00103  -0.02854   0.01231   0.00822
 113   37951.6    263.5   0.005968635   0.00155   0.01686  -0.01757   0.03091
 114   37959.2    263.4   0.051929790   0.01347  -0.08503  -0.07522  -0.02419
 115   38072.9    262.7   0.003115570   0.00081   0.01979   0.02044   0.00115
 116   38105.1    262.4   0.056744496   0.01478  -0.03177  -0.11686   0.01066
 117   38203.3    261.8   0.005176969   0.00135  -0.03314   0.00584  -0.01480
 118   38282.5    261.2   0.014870129   0.00389  -0.00037   0.06088  -0.01356
 119   38379.6    260.6   0.008413134   0.00221  -0.04537   0.00907   0.00811
 120   38420.9    260.3   0.029382399   0.00772   0.02043   0.08463  -0.01166
 121   38492.7    259.8   0.012807476   0.00337   0.00869  -0.05385  -0.01984
 122   38533.9    259.5   0.012813940   0.00337  -0.02389   0.04024   0.03443
 123   38567.5    259.3   0.056817277   0.01498  -0.11868   0.02893   0.00741
 124   38730.4    258.2   0.008379475   0.00222  -0.04663   0.00448   0.00489
 125   38839.4    257.5   0.028490268   0.00756  -0.06545   0.03481  -0.04546
 126   38890.1    257.1   0.004806410   0.00128   0.00891   0.02883   0.01915
 127   38941.3    256.8   0.020714216   0.00551  -0.05250  -0.05127  -0.01131
 128   39010.3    256.3   0.009596176   0.00256   0.02457   0.04346   0.00810
 129   39085.4    255.9   0.004256556   0.00114  -0.03231  -0.00926  -0.00265
 130   39160.3    255.4   0.001391997   0.00037  -0.00861  -0.01661  -0.00475
 131   39230.8    254.9   0.010766757   0.00289  -0.02638   0.04331   0.01777
 132   39295.0    254.5   0.020635965   0.00554  -0.07063  -0.02088   0.01085
 133   39356.7    254.1   0.008628554   0.00232  -0.00699  -0.03755  -0.02937
 134   39384.2    253.9   0.010839740   0.00292   0.04374   0.00301   0.03155
 135   39409.8    253.7   0.012324568   0.00332  -0.04520  -0.03391  -0.01124
 136   39451.2    253.5   0.073793088   0.01990   0.12269  -0.06874  -0.01089
 137   39505.4    253.1   0.008329825   0.00225   0.02312  -0.03367  -0.02409
 138   39552.8    252.8   0.009840202   0.00266   0.04210   0.01151  -0.02747
 139   39581.3    252.6   0.023412602   0.00633  -0.07228  -0.02397  -0.02312
 140   39592.2    252.6   0.001961429   0.00053  -0.02179  -0.00743   0.00068
 141   39680.1    252.0   0.007109532   0.00193   0.03425   0.01188   0.02478
 142   39775.0    251.4   0.041504979   0.01128  -0.07904  -0.06974  -0.01312
 143   39814.3    251.2   0.025023742   0.00681   0.06939  -0.04187  -0.01553
 144   39886.6    250.7   0.036984857   0.01008   0.06758   0.07122  -0.02107
 145   39914.9    250.5   0.004892657   0.00133  -0.00189  -0.01983  -0.03062
 146   39947.4    250.3   0.015341780   0.00419   0.02179   0.06091  -0.00189
 147   39975.0    250.2   0.003623522   0.00099  -0.02195  -0.02228  -0.00342
 148   40043.5    249.7   0.008321567   0.00228  -0.00115  -0.04753  -0.00411
 149   40107.0    249.3   0.052293508   0.01433  -0.00407  -0.11946   0.00680
 150   40123.8    249.2   0.012766411   0.00350  -0.04024   0.04338   0.00028
 151   40196.2    248.8   0.002826355   0.00078   0.00378  -0.02693   0.00608
 152   40227.8    248.6   0.003446087   0.00095  -0.02130   0.00037  -0.02222

-------------------------------------------------------------------
                             CD SPECTRUM
-------------------------------------------------------------------
State   Energy Wavelength       R         MX        MY        MZ   
        (cm-1)   (nm)       (1e40*cgs)   (au)      (au)      (au)  
-------------------------------------------------------------------
   0   17714.2    564.5    -236.72519   1.49327  -0.98528  -3.84741
   1   18818.9    531.4    -1007.71948   2.31109   1.15542  -8.60093
   2   19892.4    502.7    560.38292   1.72590  -0.68547  -6.23321
   3   20793.4    480.9    528.16454   0.88640  -0.89961   2.60034
   4   21174.6    472.3     40.58354   0.07007   3.03553  -7.79734
   5   22585.4    442.8    -58.24733  -0.70634  -0.12379   1.35452
   6   23435.2    426.7    -29.44478  -0.09964   0.85834  -1.29839
   7   23689.0    422.1    -541.35645  -1.16180  -0.32277   1.33369
   8   23902.0    418.4     29.56022  -0.86957   0.07238   0.66863
   9   24176.8    413.6    360.51643   0.83789   0.28808  -1.96023
  10   24759.0    403.9    171.23265   0.56274  -0.26883   0.42320
  11   25254.7    396.0    -42.35805   0.71776   0.34657   0.05322
  12   25433.8    393.2    238.54911  -0.62431  -0.09388  -3.31667
  13   25570.4    391.1      1.79047  -0.11927   0.29157  -1.18878
  14   25761.4    388.2    -35.35440   1.10492   0.11324  -1.41460
  15   26252.8    380.9    -95.35394  -0.71709   0.00298  -3.22148
  16   26673.0    374.9    -16.05188   0.41180   0.18844  -1.44662
  17   27311.1    366.2    -25.61438   0.02973   0.21372  -1.85943
  18   27353.3    365.6    -21.28838   0.24540   0.03491   0.40243
  19   27792.4    359.8    184.72936  -0.37790   0.66384  -1.37616
  20   27998.2    357.2    -68.97971   0.59252  -0.43188   0.78619
  21   28077.1    356.2     18.73377  -0.95665  -0.73679   1.35205
  22   28359.7    352.6    -186.27113   0.89126  -0.17266   0.27517
  23   28565.6    350.1     50.64609   0.39558   1.09455  -1.71447
  24   28932.4    345.6     87.95959   0.52766  -0.00755   0.35768
  25   28933.3    345.6    102.08447   0.41755  -0.06814  -0.06210
  26   29458.2    339.5     79.38903  -0.73092  -0.26945   0.77998
  27   29650.8    337.3    -65.48917  -0.09783   1.05029  -1.35956
  28   30012.4    333.2    -25.11313  -1.28545  -0.44614   0.80071
  29   30180.0    331.3    -252.15812   1.47357   0.86830   0.13649
  30   30395.7    329.0    -23.12308   0.21712  -0.42069   0.32754
  31   30764.9    325.0    159.70859   0.65241   0.16766  -0.97753
  32   30863.9    324.0     20.72465   0.10626   0.05390   0.79172
  33   30963.4    323.0     54.20683   0.30350  -0.46619   1.36962
  34   31107.4    321.5    -52.26828  -0.13601  -0.05441  -1.35162
  35   31356.6    318.9    -20.06515  -0.40428  -0.35691  -0.56132
  36   31481.2    317.6    -329.82908  -1.67108  -0.77245   2.06106
  37   31569.6    316.8     34.24099   0.20720  -0.23738   0.01312
  38   31806.1    314.4    265.87733  -0.41524  -0.07040  -1.13868
  39   31944.8    313.0    -29.38493   0.25849  -0.07598   0.88135
  40   32112.8    311.4    -24.51039  -0.39911  -0.11718  -1.79723
  41   32180.0    310.8     -7.75757   0.41053  -0.08258   0.90092
  42   32371.3    308.9    -74.58320   1.18739   0.03485   0.27106
  43   32392.1    308.7     -5.79843  -0.49777   0.47680  -0.47254
  44   32436.5    308.3    -21.90423   0.12458   0.06381  -0.50414
  45   32518.6    307.5    -32.66058   0.24531  -0.00797   1.52115
  46   32625.6    306.5    -79.32769   0.42091   0.35956   0.77263
  47   32691.8    305.9    -24.08158   0.45287  -0.28914   1.17930
  48   32823.8    304.7     16.62356   0.05160   0.04071   1.94307
  49   32868.4    304.2     47.96614   0.26556  -0.02396   1.17358
  50   33102.9    302.1    117.93990   0.13965  -0.87678   2.24073
  51   33179.0    301.4     31.31945   0.32785  -0.71071   1.20750
  52   33263.6    300.6     64.88137   0.01074  -0.10096   1.89888
  53   33365.3    299.7    -42.68030   0.01103   0.15714  -2.40874
  54   33563.4    297.9    -18.57632  -0.25875  -0.17228  -0.08810
  55   33598.4    297.6     62.10445   0.41731   0.36088   0.66457
  56   33691.3    296.8     99.36319   0.14914  -0.21737   2.86883
  57   33767.5    296.1     53.48930  -0.74308   0.27298  -0.59869
  58   33802.3    295.8     10.61584   0.32546  -0.13835   0.66528
  59   33962.5    294.4     25.31814   0.35236   0.33148  -0.87586
  60   34028.2    293.9     28.96259  -0.15364   0.48127  -1.37860
  61   34085.4    293.4    -30.61379   0.16884  -0.48504   1.93477
  62   34138.9    292.9     12.34446   0.41977  -0.36062   0.27659
  63   34200.1    292.4    -25.84447   0.42428  -0.16772  -0.69558
  64   34236.6    292.1      4.02849  -0.16827   0.39166  -0.11010
  65   34325.6    291.3     30.60271  -0.06210  -0.44134   0.79862
  66   34376.6    290.9     -5.51291  -0.40558   0.01397   1.13231
  67   34417.1    290.6    -23.53902  -0.62492  -0.48679   1.43429
  68   34496.6    289.9    162.06412   1.08640  -0.59298  -0.45481
  69   34555.0    289.4      0.17896  -0.13530  -0.61016   0.01791
  70   34620.3    288.8    -29.75259   0.65067  -0.16948  -0.78599
  71   34746.4    287.8    -43.19040  -0.61745  -0.02079   0.92710
  72   34814.1    287.2    -31.89194  -0.20629  -0.07524   0.84331
  73   34916.0    286.4    -56.06545   0.87343   0.23274  -0.55855
  74   34986.1    285.8     18.36993   0.72055   0.43955  -1.68621
  75   35073.2    285.1     -5.78861  -0.55310   0.39187   1.54477
  76   35186.1    284.2     11.44930   0.29796   0.46265  -1.90354
  77   35203.8    284.1     24.99531  -0.32741  -0.08329   0.53124
  78   35264.5    283.6    -33.95817   0.22372  -0.15536   0.50658
  79   35338.0    283.0    -17.48406   0.26036   0.19192   1.18253
  80   35380.8    282.6      0.82554  -0.23655   0.04094   0.27702
  81   35410.0    282.4     17.58164   0.40024   0.13142   0.78396
  82   35519.7    281.5     -0.89445  -0.43588  -0.48435   1.66662
  83   35577.1    281.1    -68.79854  -0.67332  -0.55485   1.29886
  84   35683.0    280.2     -6.01176  -0.52343  -0.20399  -0.27157
  85   35785.8    279.4    -68.21364  -0.29001   0.23554   0.44843
  86   36021.3    277.6    -95.37166   0.08795  -0.38983  -0.71512
  87   36054.0    277.4     26.72401   0.46145   0.18271   0.61960
  88   36144.5    276.7     39.98460   0.27491  -0.31562   0.89518
  89   36330.1    275.3    -11.37778   0.21885   0.22385  -1.28008
  90   36391.6    274.8    -121.11524   0.94939   0.06086   1.85035
  91   36472.0    274.2    -10.53270  -0.16015   0.14396   0.20952
  92   36621.9    273.1    -49.21555   0.56866   0.36715  -0.73909
  93   36718.8    272.3      4.18692  -0.27810   0.40351   0.27571
  94   36769.8    272.0     51.02497  -0.28531  -0.24168   1.16960
  95   36849.4    271.4    -32.41586   0.14068   0.27766   1.76983
  96   36944.5    270.7     -2.21367   0.06694   0.15732   0.20260
  97   36967.2    270.5     -8.18076  -0.21977   0.07030  -0.07037
  98   36998.4    270.3    111.26535  -0.97001  -0.13980   0.56515
  99   37020.5    270.1     -0.19329   0.10616  -0.10058  -0.04910
 100   37060.0    269.8      7.33287  -0.49569  -0.14972   0.84690
 101   37155.2    269.1    -26.75981   0.08895  -0.19827   0.23573
 102   37157.1    269.1     50.44260   0.28555   0.06917   0.36575
 103   37248.2    268.5    -10.76386  -0.27113  -0.09453  -1.30755
 104   37314.5    268.0     40.71077  -0.65576  -0.50506   0.45379
 105   37454.6    267.0     -7.03735  -0.05025  -0.07873  -0.41664
 106   37498.9    266.7    -19.59269  -0.18376  -0.22317  -0.19427
 107   37579.5    266.1    -10.70219  -0.56145   0.27483   0.13295
 108   37671.4    265.5     18.90932  -0.73286   0.17964  -0.83111
 109   37700.1    265.3     16.19677  -0.27303   0.16948  -0.10498
 110   37728.8    265.0     -4.02420   0.05449   0.24960   0.08885
 111   37820.3    264.4     39.67928   0.55099   0.18309  -0.59500
 112   37886.3    263.9    -33.08312  -0.37787   0.20779   1.00834
 113   37951.6    263.5     78.95325  -0.24228   0.36114  -1.38116
 114   37959.2    263.4    -14.04930  -0.01874   0.19592  -0.80791
 115   38072.9    262.7     -5.59475   0.09068   0.11314   0.19269
 116   38105.1    262.4     10.74159  -0.79948   0.27451  -0.28875
 117   38203.3    261.8      3.79347   0.36359  -0.30401  -0.85938
 118   38282.5    261.2     -2.31918   0.26859   0.12077   0.36384
 119   38379.6    260.6    -23.16337  -0.22163   0.10519   0.28862
 120   38420.9    260.3     27.64982   0.63657  -0.26066   0.58648
 121   38492.7    259.8    -10.11880   0.26277  -0.22652   0.27969
 122   38533.9    259.5    -45.45283  -0.20275   0.02381   0.82695
 123   38567.5    259.3      4.44210   0.08841   0.37351  -0.34134
 124   38730.4    258.2     19.52476   0.31991   0.46999  -0.33571
 125   38839.4    257.5    114.39783   0.60768   0.12391   0.82982
 126   38890.1    257.1    -15.37589  -0.05810  -0.07599   0.57947
 127   38941.3    256.8    -17.92466  -0.43590   0.21755  -0.15922
 128   39010.3    256.3     17.40226  -0.07094  -0.23842  -0.00428
 129   39085.4    255.9     -4.42620  -0.02747  -0.17729  -0.35337
 130   39160.3    255.4     -0.52339  -0.02501   0.20726  -0.97858
 131   39230.8    254.9     16.33347   0.30431   0.36453  -1.19813
 132   39295.0    254.5     19.98741   0.10274   0.07170  -0.38173
 133   39356.7    254.1      3.95718   0.27057   0.29408  -0.37415
 134   39384.2    253.9    -17.77850  -0.07008   0.09006   0.45587
 135   39409.8    253.7    -23.94100  -0.27156   0.35178  -1.32374
 136   39451.2    253.5    -31.57888  -0.12054  -0.46309  -0.06042
 137   39505.4    253.1     -0.53106  -0.12653  -0.20962   0.17890
 138   39552.8    252.8     -7.84226   0.19129   0.18159   0.18009
 139   39581.3    252.6     -2.76444   0.16256   0.32735  -0.88890
 140   39592.2    252.6    -18.00525  -0.45111  -0.15192   0.86984
 141   39680.1    252.0    -23.14648   0.08993   0.02003   0.45266
 142   39775.0    251.4    -51.02678  -0.46425   0.25838  -0.85844
 143   39814.3    251.2     10.44161  -0.09746  -0.20437   0.74346
 144   39886.6    250.7    -40.63465   0.86436  -0.01036   1.50558
 145   39914.9    250.5     -3.06622   0.11302   0.18683  -0.17290
 146   39947.4    250.3    -16.75599   0.03601   0.15726  -0.18484
 147   39975.0    250.2     15.08539  -0.00148   0.48454   0.11114
 148   40043.5    249.7    -37.17308  -0.47058  -0.45495  -0.01546
 149   40107.0    249.3    -70.54856  -0.96876  -0.34730  -0.27056
 150   40123.8    249.2     31.68812   0.51314  -0.05027  -1.36549
 151   40196.2    248.8     -5.60839  -0.29252  -0.21286  -0.15288
 152   40227.8    248.6     -5.49892   0.28189   0.08791  -0.40098

sTD-DFT done

Total run time:       54.664 sec

           *** ORCA-CIS/TD-DFT FINISHED WITHOUT ERROR ***

-------------------------   --------------------
FINAL SINGLE POINT ENERGY    -15122.809191764589
-------------------------   --------------------


                            ***************************************
                            *     ORCA property calculations      *
                            ***************************************

                                    ---------------------
                                    Active property flags
                                    ---------------------
   (+) Dipole Moment


------------------------------------------------------------------------------
                       ORCA ELECTRIC PROPERTIES CALCULATION
------------------------------------------------------------------------------

Dipole Moment Calculation                       ... on
Quadrupole Moment Calculation                   ... off
Polarizability Calculation                      ... off
GBWName                                         ... PBDB-T_olig.gbw
Electron density file                           ... PBDB-T_olig.scfp
The origin for moment calculation is the CENTER OF MASS  = (-0.863440,  9.856021  2.529199)

-------------
DIPOLE MOMENT
-------------
                                X             Y             Z
Electronic contribution:     -5.73965      34.61286      33.61985
Nuclear contribution   :      5.59528     -35.03676     -34.42423
                        -----------------------------------------
Total Dipole Moment    :     -0.14437      -0.42390      -0.80438
                        -----------------------------------------
Magnitude (a.u.)       :      0.92063
Magnitude (Debye)      :      2.34005



--------------------
Rotational spectrum 
--------------------
 
Rotational constants in cm-1:     0.000206     0.000115     0.000078 
Rotational constants in MHz :     6.169993     3.444865     2.333009 

 Dipole components along the rotational axes: 
x,y,z [a.u.] :    -0.527557     0.019120    -0.754237 
x,y,z [Debye]:    -1.340942     0.048599    -1.917119 

 

Timings for individual modules:

Sum of individual times         ...    22602.913 sec (= 376.715 min)
GTO integral calculation        ...       14.921 sec (=   0.249 min)   0.1 %
SCF iterations                  ...    22532.998 sec (= 375.550 min)  99.7 %
CIS module                      ...       54.993 sec (=   0.917 min)   0.2 %
                             ****ORCA TERMINATED NORMALLY****
TOTAL RUN TIME: 0 days 6 hours 16 minutes 45 seconds 230 msec
