
                                 *****************
                                 * O   R   C   A *
                                 *****************

           --- An Ab Initio, DFT and Semiempirical electronic structure package ---

                  #######################################################
                  #                        -***-                        #
                  #          Department of theory and spectroscopy      #
                  #               Directorship: Frank Neese             #
                  #        Max Planck Institute fuer Kohlenforschung    #
                  #                Kaiser Wilhelm Platz 1               #
                  #                 D-45470 Muelheim/Ruhr               #
                  #                      Germany                        #
                  #                                                     #
                  #                  All rights reserved                #
                  #                        -***-                        #
                  #######################################################


                         Program Version 4.2.0 -  RELEASE  -


 With contributions from (in alphabetic order):
   Daniel Aravena         : Magnetic Suceptibility
   Michael Atanasov       : Ab Initio Ligand Field Theory (pilot matlab implementation)
   Alexander A. Auer      : GIAO ZORA, VPT2
   Ute Becker             : Parallelization
   Giovanni Bistoni       : ED, misc. LED, open-shell LED, HFLED
   Martin Brehm           : Molecular dynamics
   Dmytro Bykov           : SCF Hessian
   Vijay G. Chilkuri      : MRCI spin determinant printing, contributions to CSF-ICE
   Dipayan Datta          : RHF DLPNO-CCSD density
   Achintya Kumar Dutta   : EOM-CC, STEOM-CC
   Dmitry Ganyushin       : Spin-Orbit,Spin-Spin,Magnetic field MRCI
   Miquel Garcia          : C-PCM Hessian, Gaussian charge scheme
   Yang Guo               : DLPNO-NEVPT2, CIM, IAO-localization
   Andreas Hansen         : Spin unrestricted coupled pair/coupled cluster methods
   Benjamin Helmich-Paris : CASSCF linear response (MC-RPA)
   Lee Huntington         : MR-EOM, pCC
   Robert Izsak           : Overlap fitted RIJCOSX, COSX-SCS-MP3, EOM
   Christian Kollmar      : KDIIS, OOCD, Brueckner-CCSD(T), CCSD density
   Simone Kossmann        : Meta GGA functionals, TD-DFT gradient, OOMP2, MP2 Hessian
   Martin Krupicka        : AUTO-CI
   Lucas Lang             : DCDCAS
   Dagmar Lenk            : GEPOL surface, SMD
   Dimitrios Liakos       : Extrapolation schemes; Compound Job, initial MDCI parallelization
   Dimitrios Manganas     : Further ROCIS development; embedding schemes
   Dimitrios Pantazis     : SARC Basis sets
   Taras Petrenko         : DFT Hessian,TD-DFT gradient, ASA, ECA, R-Raman, ABS, FL, XAS/XES, NRVS
   Peter Pinski           : DLPNO-MP2, DLPNO-MP2 Gradient
   Christoph Reimann      : Effective Core Potentials
   Marius Retegan         : Local ZFS, SOC
   Christoph Riplinger    : Optimizer, TS searches, QM/MM, DLPNO-CCSD(T), (RO)-DLPNO pert. Triples
   Tobias Risthaus        : Range-separated hybrids, TD-DFT gradient, RPA, STAB
   Michael Roemelt        : Original ROCIS implementation
   Masaaki Saitow         : Open-shell DLPNO-CCSD energy and density
   Barbara Sandhoefer     : DKH picture change effects
   Avijit Sen             : IP-ROCIS
   Kantharuban Sivalingam : CASSCF convergence, NEVPT2, FIC-MRCI
   Bernardo de Souza      : ESD, SOC TD-DFT
   Georgi Stoychev        : AutoAux, RI-MP2 NMR
   Willem Van den Heuvel  : Paramagnetic NMR
   Boris Wezisla          : Elementary symmetry handling
   Frank Wennmohs         : Technical directorship


 We gratefully acknowledge several colleagues who have allowed us to
 interface, adapt or use parts of their codes:
   Stefan Grimme, W. Hujo, H. Kruse,             : VdW corrections, initial TS optimization,
                  C. Bannwarth                     DFT functionals, gCP, sTDA/sTD-DF
   Ed Valeev, F. Pavosevic, A. Kumar             : LibInt (2-el integral package), F12 methods
   Garnet Chan, S. Sharma, J. Yang, R. Olivares  : DMRG
   Ulf Ekstrom                                   : XCFun DFT Library
   Mihaly Kallay                                 : mrcc  (arbitrary order and MRCC methods)
   Andreas Klamt, Michael Diedenhofen            : otool_cosmo (COSMO solvation model)
   Jiri Pittner, Ondrej Demel                    : Mk-CCSD
   Frank Weinhold                                : gennbo (NPA and NBO analysis)
   Christopher J. Cramer and Donald G. Truhlar   : smd solvation model
   Lars Goerigk                                  : TD-DFT with DH, B97 family of functionals
   V. Asgeirsson, H. Jonsson                     : NEB implementation
   FAccTs GmbH                                   : IRC, NEB, NEB-TS, Multilevel, MM, QM/MM, CI optimization
   S Lehtola, MJT Oliveira, MAL Marques          : LibXC Library


 Your calculation uses the libint2 library for the computation of 2-el integrals
 For citations please refer to: http://libint.valeyev.net

 Your ORCA version has been built with support for libXC version: 4.2.3
 For citations please refer to: https://tddft.org/programs/libxc/

 This ORCA versions uses:
   CBLAS   interface :  Fast vector & matrix operations
   LAPACKE interface :  Fast linear algebra routines
   SCALAPACK package :  Parallel linear algebra routines


XCFun DFT library Copyright 2009-2010 Ulf Ekstrom and contributors.
See http://admol.org/xcfun for more information. This is free soft-
ware; see the source code for copying conditions. There is ABSOLUTELY
NO WARRANTY; not even for MERCHANTABILITY or FITNESS FOR A PARTICULAR
PURPOSE. For details see the documentation. Scientific users of this 
library should cite U. Ekstrom, L. Visscher, R. Bast, A. J. Thorvald-
sen and K. Ruud; J.Chem.Theor.Comp. 2010, DOI: 10.1021/ct100117s
XCFun Version 0.99 
----- Orbital basis set information -----
Your calculation utilizes the basis: def2-SVP
   F. Weigend and R. Ahlrichs, Phys. Chem. Chem. Phys. 7, 3297 (2005).

----- AuxJ basis set information -----
Your calculation utilizes the auxiliary basis: def2/J
   F. Weigend, Phys. Chem. Chem. Phys. 8, 1057 (2006).

================================================================================
                                        WARNINGS
                       Please study these warnings very carefully!
================================================================================

INFO   : Checking CIS options ...

WARNING: CIS/ROCIS methods need fully converged wavefunctions
  ===> : Setting SCFConvForced true
         You can overwrite this default with %scf ConvForced false 


INFO   : the flag for use of LIBINT has been found!

================================================================================
                                       INPUT FILE
================================================================================
NAME = PBN-S.inp
|  1> # ORCA input file
|  2> # SCF done       -486.209994294707          0.000465364457
|  3> ! CAM-B3LYP def2-SVP def2/J RIJCOSX Grid4 TightSCF
|  4> %maxcore 5000
|  5> %tddft
|  6>     Mode sTDDFT
|  7>     Ethresh 5.0
|  8>     maxcore 5000
|  9> end
| 10> * xyz 0 1
| 11>    C        0.69911         0.79740        -0.94080
| 12>    C        1.68972         0.02162        -1.54169
| 13>    C        1.52643        -1.35242        -1.83556
| 14>    C        0.32397        -2.00752        -1.51449
| 15>    C       -0.70596        -1.21027        -1.02877
| 16>    C       -0.55480         0.17163        -0.75900
| 17>    S        3.26684         0.57391        -2.03709
| 18>    C        3.65629        -0.99375        -2.69551
| 19>    C        2.66622        -1.89227        -2.49718
| 20>    S       -2.32190        -1.75830        -0.67287
| 21>    C       -2.81624        -0.12672        -0.27426
| 22>    C       -1.78011         0.75909        -0.36047
| 23>    C        0.93556         2.14765        -0.48356
| 24>    C        0.18557        -3.43977        -1.68075
| 25>    C        0.38519         2.76401         0.61093
| 26>    C        0.89429         4.05976         0.79968
| 27>    C        1.81757         4.46573        -0.12046
| 28>    S        2.08136         3.20037        -1.26472
| 29>    C        1.10352        -4.39877        -1.35883
| 30>    C        0.62350        -5.69498        -1.62768
| 31>    C       -0.62969        -5.75831        -2.15816
| 32>    S       -1.26285        -4.15676        -2.32801
| 33>    C        2.58955         5.73821        -0.15872
| 34>    C        3.94665         5.57661         0.53025
| 35>    C       -1.42008        -6.96530        -2.52795
| 36>    C       -2.68870        -7.08241        -1.68305
| 37>    C        4.93394        -1.17547        -3.42730
| 38>    C       -4.17563         0.16281         0.03007
| 39>    C       -5.24209        -0.70159         0.15846
| 40>    C       -6.45715        -0.06281         0.40784
| 41>    C       -6.35591         1.31155         0.46760
| 42>    S       -4.68934         1.80431         0.23808
| 43>    C       -7.31016         2.36243         0.59324
| 44>    S       -6.65147         3.95232         0.36964
| 45>    C       -8.20166         4.72659         0.50080
| 46>    C       -9.19099         3.78174         0.73594
| 47>    C       -8.68714         2.43856         0.79600
| 48>    C      -10.61642         4.08998         0.85723
| 49>    C      -11.49792         2.92595         1.04219
| 50>    C      -11.00723         1.62165         1.14800
| 51>    C       -9.56383         1.30491         1.06780
| 52>    C       -8.15643         6.14077         0.31416
| 53>    C       -9.02290         7.18689         0.55381
| 54>    C       -8.47960         8.44137         0.25798
| 55>    S       -6.64333         6.74418        -0.31005
| 56>    O      -11.07333         5.22130         0.80088
| 57>    O       -9.17598         0.15752         1.23293
| 58>    F        0.49179         4.84511         1.81787
| 59>    F        1.35939        -6.79792        -1.37512
| 60>    C      -12.87525         3.13334         1.11317
| 61>    C      -13.74543         2.07934         1.28542
| 62>    C      -13.25489         0.77192         1.43227
| 63>    C      -11.88698         0.56314         1.34332
| 64>    S      -14.43187        -0.50017         1.70425
| 65>    C      -13.44522        -1.94138         2.23288
| 66>    C      -12.86376        -1.76083         3.62166
| 67>    S      -15.49677         2.38871         1.34336
| 68>    C      -15.96324         1.77170        -0.31769
| 69>    C      -15.37509         2.62758        -1.42107
| 70>    C       -2.84120        10.80748        -1.72339
| 71>    C       -4.12486        10.45839        -1.32593
| 72>    C       -5.14862        11.39585        -1.03995
| 73>    C       -4.88094        12.77609        -1.16254
| 74>    C       -3.60677        13.13066        -1.59429
| 75>    C       -2.59067        12.18326        -1.87393
| 76>    S       -4.65900         8.83266        -1.05128
| 77>    C       -6.25194         9.39481        -0.59201
| 78>    C       -6.35374        10.75552        -0.64667
| 79>    S       -3.01264        14.76197        -1.79252
| 80>    C       -1.43395        14.16544        -2.25758
| 81>    C       -1.38582        12.80099        -2.27088
| 82>    C       -1.81122         9.80896        -1.93310
| 83>    C       -5.88231        13.76793        -0.82472
| 84>    C       -0.50010         9.84407        -1.54927
| 85>    C        0.17965         8.65866        -1.88994
| 86>    C       -0.56632         7.71630        -2.53309
| 87>    S       -2.18004         8.30449        -2.73203
| 88>    C       -6.72727        13.77965         0.24850
| 89>    C       -7.56034        14.91527         0.25031
| 90>    C       -7.38716        15.76946        -0.79782
| 91>    S       -6.13623        15.16773        -1.83020
| 92>    C       -0.17064         6.35491        -2.98794
| 93>    C       -0.96871         5.27131        -2.26261
| 94>    C       -8.08988        17.05310        -1.07433
| 95>    C       -7.12950        18.24112        -1.00910
| 96>    C       -7.18643         8.38498        -0.21629
| 97>    C       -0.32935        15.02477        -2.51355
| 98>    C       -0.23658        16.39845        -2.51383
| 99>    C        1.06027        16.87388        -2.72536
|100>    C        1.99473        15.87312        -2.88784
|101>    S        1.22306        14.30594        -2.80079
|102>    C        3.41432        15.85517        -3.02621
|103>    S        4.13745        14.29098        -2.78763
|104>    C        5.74615        14.88709        -3.04366
|105>    C        5.71826        16.25014        -3.31965
|106>    C        4.39376        16.80140        -3.30429
|107>    C        6.88806        17.04905        -3.67376
|108>    C        6.60839        18.45452        -4.03879
|109>    C        5.32053        18.99562        -4.00084
|110>    C        4.14132        18.21462        -3.59183
|111>    C        6.77598        13.90882        -2.91563
|112>    C        8.12385        13.99884        -2.64243
|113>    C        8.74338        12.75788        -2.49076
|114>    S        6.27965        12.23168        -2.99385
|115>    O        8.03064        16.61776        -3.70018
|116>    O        3.04367        18.74349        -3.50766
|117>    F        1.48542         8.47800        -1.60247
|118>    F       -8.46721        15.13330         1.22096
|119>    C        7.68363        19.24478        -4.42830
|120>    C        7.50626        20.57118        -4.79177
|121>    C        6.21553        21.11981        -4.71966
|122>    C        5.14659        20.33662        -4.34305
|123>    S        5.94534        22.82748        -5.13983
|124>    C        6.62608        23.61959        -3.63448
|125>    C        5.78305        23.31853        -2.41201
|126>    S        8.79833        21.62867        -5.32897
|127>    C       10.20005        20.51232        -5.67288
|128>    C        9.96731        19.66434        -6.90825
|129>    C       10.07170         6.98459        -1.96309
|130>    C        9.25882         8.08545        -2.20331
|131>    C        7.89657         7.98156        -2.58109
|132>    C        7.30000         6.71194        -2.75593
|133>    C        8.09667         5.61007        -2.44626
|134>    C        9.45449         5.72175        -2.05550
|135>    S        9.78256         9.74601        -2.14069
|136>    C        8.17530        10.29780        -2.55516
|137>    C        7.30854         9.25925        -2.74200
|138>    S        7.61571         3.93477        -2.52936
|139>    C        9.20140         3.40560        -2.01069
|140>    C       10.04178         4.46190        -1.80061
|141>    C       11.48192         7.14669        -1.67294
|142>    C        5.96538         6.55627        -3.29410
|143>    C       12.07803         8.10221        -0.89967
|144>    C       13.48164         7.98894        -0.90578
|145>    C       13.98597         6.98450        -1.67703
|146>    S       12.68207         6.12373        -2.41923
|147>    C        5.05858         5.55687        -3.06598
|148>    C        3.89574         5.71019        -3.84335
|149>    C        3.88054         6.78913        -4.67679
|150>    S        5.35714         7.66480        -4.50012
|151>    C       15.40937         6.59722        -1.88307
|152>    C       15.69422         5.19326        -1.34877
|153>    C        2.79479         7.23633        -5.59300
|154>    C        2.27397         8.62161        -5.20918
|155>    C        7.88826        11.68812        -2.64596
|156>    C        9.52925         2.02809        -1.84686
|157>    C       10.73609         1.51875        -1.41163
|158>    C       10.78343         0.12743        -1.39699
|159>    C        9.61669        -0.46495        -1.82480
|160>    S        8.42462         0.74620        -2.22410
|161>    C        9.28550        -1.84967        -1.91618
|162>    S        7.63059        -2.31557        -1.68209
|163>    C        7.99466        -4.00625        -1.87333
|164>    C        9.35416        -4.19463        -2.07886
|165>    C       10.08255        -2.96359        -2.13768
|166>    C       10.03782        -5.49120        -2.11849
|167>    C       11.48384        -5.42946        -2.39997
|168>    C       12.15874        -4.22791        -2.63228
|169>    C       11.48792        -2.91316        -2.53819
|170>    C        6.89406        -4.91609        -1.83651
|171>    C        6.75713        -6.17995        -2.35716
|172>    C        5.48289        -6.72932        -2.14631
|173>    S        5.39518        -4.39905        -1.09382
|174>    O        9.48747        -6.56016        -1.91321
|175>    O       12.08864        -1.88395        -2.80177
|176>    C        4.64699        -5.89152        -1.47528
|177>    F       14.26822         8.82090        -0.19954
|178>    F        2.86432         4.84744        -3.77460
|179>    C       12.20009        -6.62392        -2.47215
|180>    C       13.54572        -6.63088        -2.76901
|181>    C       14.23103        -5.42449        -2.98632
|182>    C       13.51677        -4.23729        -2.92836
|183>    S       15.94962        -5.52985        -3.31974
|184>    C       16.55323        -3.81119        -3.21249
|185>    C       16.58532        -3.30185        -1.78442
|186>    S       14.41800        -8.17989        -2.84500
|187>    C       14.59698        -8.34407        -4.66101
|188>    C       13.25802        -8.54502        -5.34105
|189>    H        2.71731        -2.90753        -2.84585
|190>    H       -1.91483         1.81225        -0.19269
|191>    H       -0.30755         2.30495         1.29074
|192>    H        2.05700        -4.19119        -0.90920
|193>    H        2.01609         6.51888         0.34454
|194>    H        2.74788         6.04251        -1.19394
|195>    H        3.81088         5.34493         1.58409
|196>    H        4.51890         6.49684         0.44545
|197>    H        4.51230         4.76897         0.07046
|198>    H       -0.79084        -7.84580        -2.38105
|199>    H       -1.69556        -6.91320        -3.58480
|200>    H       -2.43622        -7.15011        -0.62742
|201>    H       -3.24623        -7.97169        -1.96491
|202>    H       -3.32132        -6.21029        -1.83235
|203>    H        4.83046        -0.81367        -4.45120
|204>    H        5.20528        -2.22777        -3.45879
|205>    H        5.73157        -0.60760        -2.95374
|206>    H       -5.13295        -1.76779         0.06552
|207>    H       -7.38898        -0.57890         0.53857
|208>    H      -10.01580         7.03981         0.93457
|209>    H       -9.01443         9.36389         0.39548
|210>    H      -13.25457         4.14041         1.02668
|211>    H      -11.45383        -0.42188         1.42115
|212>    H      -12.68135        -2.13824         1.48191
|213>    H      -14.16718        -2.75836         2.21697
|214>    H      -12.16456        -0.92787         3.65014
|215>    H      -12.33598        -2.66480         3.91923
|216>    H      -13.65767        -1.56802         4.33985
|217>    H      -17.05123         1.81347        -0.31953
|218>    H      -15.64391         0.73333        -0.39309
|219>    H      -15.69060         3.66213        -1.30802
|220>    H      -15.71138         2.26311        -2.38985
|221>    H      -14.28714         2.59403        -1.39734
|222>    H       -7.26360        11.28364        -0.43054
|223>    H       -0.50599        12.25927        -2.56594
|224>    H       -0.04124        10.64598        -1.00166
|225>    H       -6.73042        13.04466         1.03180
|226>    H        0.89415         6.21726        -2.79734
|227>    H       -0.34085         6.26320        -4.06390
|228>    H       -0.82841         5.35260        -1.18727
|229>    H       -0.63438         4.28837        -2.58408
|230>    H       -2.02966         5.37209        -2.48023
|231>    H       -8.88502        17.17469        -0.33566
|232>    H       -8.54611        17.01359        -2.06716
|233>    H       -6.67773        18.31015        -0.02222
|234>    H       -7.66363        19.16553        -1.21217
|235>    H       -6.33722        18.12553        -1.74548
|236>    H       -1.08905        17.03442        -2.35262
|237>    H        1.31879        17.91514        -2.75050
|238>    H        8.63710        14.93672        -2.55327
|239>    H        9.78874        12.63295        -2.26930
|240>    H        8.65527        18.77589        -4.43425
|241>    H        4.15311        20.75764        -4.30729
|242>    H        6.62077        24.68275        -3.86931
|243>    H        7.65491        23.28419        -3.51317
|244>    H        4.75795        23.64645        -2.56789
|245>    H        6.18907        23.83876        -1.54659
|246>    H        5.77568        22.25032        -2.20179
|247>    H       10.39786        19.91319        -4.78516
|248>    H       11.03497        21.19726        -5.82318
|249>    H        9.11116        19.00587        -6.77759
|250>    H       10.84589        19.05320        -7.10529
|251>    H        9.78348        20.29988        -7.77171
|252>    H        6.27125         9.42721        -2.96521
|253>    H       11.05331         4.34250        -1.46372
|254>    H       11.55272         8.83541        -0.31726
|255>    H        5.17771         4.75943        -2.35771
|256>    H       16.03909         7.32678        -1.36951
|257>    H       15.64641         6.63029        -2.95011
|258>    H       15.48036         5.14164        -0.28353
|259>    H       16.73899         4.93842        -1.50544
|260>    H       15.07577         4.46142        -1.86417
|261>    H        1.98615         6.50381        -5.54466
|262>    H        3.16918         7.26455        -6.62018
|263>    H        1.92636         8.62412        -4.17995
|264>    H        1.44793         8.90503        -5.85621
|265>    H        3.06451         9.36231        -5.30694
|266>    H       11.56162         2.13844        -1.11452
|267>    H       11.64297        -0.43205        -1.08164
|268>    H        7.54749        -6.69697        -2.86509
|269>    H        5.19573        -7.71151        -2.47494
|270>    H        3.63905        -6.08016        -1.16837
|271>    H       11.68057        -7.55325        -2.29302
|272>    H       13.98235        -3.27992        -3.10318
|273>    H       15.94749        -3.18591        -3.86689
|274>    H       17.56060        -3.87262        -3.62514
|275>    H       15.58740        -3.28039        -1.35170
|276>    H       16.99315        -2.29313        -1.76314
|277>    H       17.21173        -3.94450        -1.16987
|278>    H       15.24003        -9.21395        -4.78477
|279>    H       15.11399        -7.46014        -5.03104
|280>    H       12.74890        -9.41220        -4.92694
|281>    H       13.40586        -8.70255        -6.40772
|282>    H       12.62128        -7.67253        -5.20461
|283> *
|284> 
|285>                          ****END OF INPUT****
================================================================================

                       ****************************
                       * Single Point Calculation *
                       ****************************

---------------------------------
CARTESIAN COORDINATES (ANGSTROEM)
---------------------------------
  C      0.699110    0.797400   -0.940800
  C      1.689720    0.021620   -1.541690
  C      1.526430   -1.352420   -1.835560
  C      0.323970   -2.007520   -1.514490
  C     -0.705960   -1.210270   -1.028770
  C     -0.554800    0.171630   -0.759000
  S      3.266840    0.573910   -2.037090
  C      3.656290   -0.993750   -2.695510
  C      2.666220   -1.892270   -2.497180
  S     -2.321900   -1.758300   -0.672870
  C     -2.816240   -0.126720   -0.274260
  C     -1.780110    0.759090   -0.360470
  C      0.935560    2.147650   -0.483560
  C      0.185570   -3.439770   -1.680750
  C      0.385190    2.764010    0.610930
  C      0.894290    4.059760    0.799680
  C      1.817570    4.465730   -0.120460
  S      2.081360    3.200370   -1.264720
  C      1.103520   -4.398770   -1.358830
  C      0.623500   -5.694980   -1.627680
  C     -0.629690   -5.758310   -2.158160
  S     -1.262850   -4.156760   -2.328010
  C      2.589550    5.738210   -0.158720
  C      3.946650    5.576610    0.530250
  C     -1.420080   -6.965300   -2.527950
  C     -2.688700   -7.082410   -1.683050
  C      4.933940   -1.175470   -3.427300
  C     -4.175630    0.162810    0.030070
  C     -5.242090   -0.701590    0.158460
  C     -6.457150   -0.062810    0.407840
  C     -6.355910    1.311550    0.467600
  S     -4.689340    1.804310    0.238080
  C     -7.310160    2.362430    0.593240
  S     -6.651470    3.952320    0.369640
  C     -8.201660    4.726590    0.500800
  C     -9.190990    3.781740    0.735940
  C     -8.687140    2.438560    0.796000
  C    -10.616420    4.089980    0.857230
  C    -11.497920    2.925950    1.042190
  C    -11.007230    1.621650    1.148000
  C     -9.563830    1.304910    1.067800
  C     -8.156430    6.140770    0.314160
  C     -9.022900    7.186890    0.553810
  C     -8.479600    8.441370    0.257980
  S     -6.643330    6.744180   -0.310050
  O    -11.073330    5.221300    0.800880
  O     -9.175980    0.157520    1.232930
  F      0.491790    4.845110    1.817870
  F      1.359390   -6.797920   -1.375120
  C    -12.875250    3.133340    1.113170
  C    -13.745430    2.079340    1.285420
  C    -13.254890    0.771920    1.432270
  C    -11.886980    0.563140    1.343320
  S    -14.431870   -0.500170    1.704250
  C    -13.445220   -1.941380    2.232880
  C    -12.863760   -1.760830    3.621660
  S    -15.496770    2.388710    1.343360
  C    -15.963240    1.771700   -0.317690
  C    -15.375090    2.627580   -1.421070
  C     -2.841200   10.807480   -1.723390
  C     -4.124860   10.458390   -1.325930
  C     -5.148620   11.395850   -1.039950
  C     -4.880940   12.776090   -1.162540
  C     -3.606770   13.130660   -1.594290
  C     -2.590670   12.183260   -1.873930
  S     -4.659000    8.832660   -1.051280
  C     -6.251940    9.394810   -0.592010
  C     -6.353740   10.755520   -0.646670
  S     -3.012640   14.761970   -1.792520
  C     -1.433950   14.165440   -2.257580
  C     -1.385820   12.800990   -2.270880
  C     -1.811220    9.808960   -1.933100
  C     -5.882310   13.767930   -0.824720
  C     -0.500100    9.844070   -1.549270
  C      0.179650    8.658660   -1.889940
  C     -0.566320    7.716300   -2.533090
  S     -2.180040    8.304490   -2.732030
  C     -6.727270   13.779650    0.248500
  C     -7.560340   14.915270    0.250310
  C     -7.387160   15.769460   -0.797820
  S     -6.136230   15.167730   -1.830200
  C     -0.170640    6.354910   -2.987940
  C     -0.968710    5.271310   -2.262610
  C     -8.089880   17.053100   -1.074330
  C     -7.129500   18.241120   -1.009100
  C     -7.186430    8.384980   -0.216290
  C     -0.329350   15.024770   -2.513550
  C     -0.236580   16.398450   -2.513830
  C      1.060270   16.873880   -2.725360
  C      1.994730   15.873120   -2.887840
  S      1.223060   14.305940   -2.800790
  C      3.414320   15.855170   -3.026210
  S      4.137450   14.290980   -2.787630
  C      5.746150   14.887090   -3.043660
  C      5.718260   16.250140   -3.319650
  C      4.393760   16.801400   -3.304290
  C      6.888060   17.049050   -3.673760
  C      6.608390   18.454520   -4.038790
  C      5.320530   18.995620   -4.000840
  C      4.141320   18.214620   -3.591830
  C      6.775980   13.908820   -2.915630
  C      8.123850   13.998840   -2.642430
  C      8.743380   12.757880   -2.490760
  S      6.279650   12.231680   -2.993850
  O      8.030640   16.617760   -3.700180
  O      3.043670   18.743490   -3.507660
  F      1.485420    8.478000   -1.602470
  F     -8.467210   15.133300    1.220960
  C      7.683630   19.244780   -4.428300
  C      7.506260   20.571180   -4.791770
  C      6.215530   21.119810   -4.719660
  C      5.146590   20.336620   -4.343050
  S      5.945340   22.827480   -5.139830
  C      6.626080   23.619590   -3.634480
  C      5.783050   23.318530   -2.412010
  S      8.798330   21.628670   -5.328970
  C     10.200050   20.512320   -5.672880
  C      9.967310   19.664340   -6.908250
  C     10.071700    6.984590   -1.963090
  C      9.258820    8.085450   -2.203310
  C      7.896570    7.981560   -2.581090
  C      7.300000    6.711940   -2.755930
  C      8.096670    5.610070   -2.446260
  C      9.454490    5.721750   -2.055500
  S      9.782560    9.746010   -2.140690
  C      8.175300   10.297800   -2.555160
  C      7.308540    9.259250   -2.742000
  S      7.615710    3.934770   -2.529360
  C      9.201400    3.405600   -2.010690
  C     10.041780    4.461900   -1.800610
  C     11.481920    7.146690   -1.672940
  C      5.965380    6.556270   -3.294100
  C     12.078030    8.102210   -0.899670
  C     13.481640    7.988940   -0.905780
  C     13.985970    6.984500   -1.677030
  S     12.682070    6.123730   -2.419230
  C      5.058580    5.556870   -3.065980
  C      3.895740    5.710190   -3.843350
  C      3.880540    6.789130   -4.676790
  S      5.357140    7.664800   -4.500120
  C     15.409370    6.597220   -1.883070
  C     15.694220    5.193260   -1.348770
  C      2.794790    7.236330   -5.593000
  C      2.273970    8.621610   -5.209180
  C      7.888260   11.688120   -2.645960
  C      9.529250    2.028090   -1.846860
  C     10.736090    1.518750   -1.411630
  C     10.783430    0.127430   -1.396990
  C      9.616690   -0.464950   -1.824800
  S      8.424620    0.746200   -2.224100
  C      9.285500   -1.849670   -1.916180
  S      7.630590   -2.315570   -1.682090
  C      7.994660   -4.006250   -1.873330
  C      9.354160   -4.194630   -2.078860
  C     10.082550   -2.963590   -2.137680
  C     10.037820   -5.491200   -2.118490
  C     11.483840   -5.429460   -2.399970
  C     12.158740   -4.227910   -2.632280
  C     11.487920   -2.913160   -2.538190
  C      6.894060   -4.916090   -1.836510
  C      6.757130   -6.179950   -2.357160
  C      5.482890   -6.729320   -2.146310
  S      5.395180   -4.399050   -1.093820
  O      9.487470   -6.560160   -1.913210
  O     12.088640   -1.883950   -2.801770
  C      4.646990   -5.891520   -1.475280
  F     14.268220    8.820900   -0.199540
  F      2.864320    4.847440   -3.774600
  C     12.200090   -6.623920   -2.472150
  C     13.545720   -6.630880   -2.769010
  C     14.231030   -5.424490   -2.986320
  C     13.516770   -4.237290   -2.928360
  S     15.949620   -5.529850   -3.319740
  C     16.553230   -3.811190   -3.212490
  C     16.585320   -3.301850   -1.784420
  S     14.418000   -8.179890   -2.845000
  C     14.596980   -8.344070   -4.661010
  C     13.258020   -8.545020   -5.341050
  H      2.717310   -2.907530   -2.845850
  H     -1.914830    1.812250   -0.192690
  H     -0.307550    2.304950    1.290740
  H      2.057000   -4.191190   -0.909200
  H      2.016090    6.518880    0.344540
  H      2.747880    6.042510   -1.193940
  H      3.810880    5.344930    1.584090
  H      4.518900    6.496840    0.445450
  H      4.512300    4.768970    0.070460
  H     -0.790840   -7.845800   -2.381050
  H     -1.695560   -6.913200   -3.584800
  H     -2.436220   -7.150110   -0.627420
  H     -3.246230   -7.971690   -1.964910
  H     -3.321320   -6.210290   -1.832350
  H      4.830460   -0.813670   -4.451200
  H      5.205280   -2.227770   -3.458790
  H      5.731570   -0.607600   -2.953740
  H     -5.132950   -1.767790    0.065520
  H     -7.388980   -0.578900    0.538570
  H    -10.015800    7.039810    0.934570
  H     -9.014430    9.363890    0.395480
  H    -13.254570    4.140410    1.026680
  H    -11.453830   -0.421880    1.421150
  H    -12.681350   -2.138240    1.481910
  H    -14.167180   -2.758360    2.216970
  H    -12.164560   -0.927870    3.650140
  H    -12.335980   -2.664800    3.919230
  H    -13.657670   -1.568020    4.339850
  H    -17.051230    1.813470   -0.319530
  H    -15.643910    0.733330   -0.393090
  H    -15.690600    3.662130   -1.308020
  H    -15.711380    2.263110   -2.389850
  H    -14.287140    2.594030   -1.397340
  H     -7.263600   11.283640   -0.430540
  H     -0.505990   12.259270   -2.565940
  H     -0.041240   10.645980   -1.001660
  H     -6.730420   13.044660    1.031800
  H      0.894150    6.217260   -2.797340
  H     -0.340850    6.263200   -4.063900
  H     -0.828410    5.352600   -1.187270
  H     -0.634380    4.288370   -2.584080
  H     -2.029660    5.372090   -2.480230
  H     -8.885020   17.174690   -0.335660
  H     -8.546110   17.013590   -2.067160
  H     -6.677730   18.310150   -0.022220
  H     -7.663630   19.165530   -1.212170
  H     -6.337220   18.125530   -1.745480
  H     -1.089050   17.034420   -2.352620
  H      1.318790   17.915140   -2.750500
  H      8.637100   14.936720   -2.553270
  H      9.788740   12.632950   -2.269300
  H      8.655270   18.775890   -4.434250
  H      4.153110   20.757640   -4.307290
  H      6.620770   24.682750   -3.869310
  H      7.654910   23.284190   -3.513170
  H      4.757950   23.646450   -2.567890
  H      6.189070   23.838760   -1.546590
  H      5.775680   22.250320   -2.201790
  H     10.397860   19.913190   -4.785160
  H     11.034970   21.197260   -5.823180
  H      9.111160   19.005870   -6.777590
  H     10.845890   19.053200   -7.105290
  H      9.783480   20.299880   -7.771710
  H      6.271250    9.427210   -2.965210
  H     11.053310    4.342500   -1.463720
  H     11.552720    8.835410   -0.317260
  H      5.177710    4.759430   -2.357710
  H     16.039090    7.326780   -1.369510
  H     15.646410    6.630290   -2.950110
  H     15.480360    5.141640   -0.283530
  H     16.738990    4.938420   -1.505440
  H     15.075770    4.461420   -1.864170
  H      1.986150    6.503810   -5.544660
  H      3.169180    7.264550   -6.620180
  H      1.926360    8.624120   -4.179950
  H      1.447930    8.905030   -5.856210
  H      3.064510    9.362310   -5.306940
  H     11.561620    2.138440   -1.114520
  H     11.642970   -0.432050   -1.081640
  H      7.547490   -6.696970   -2.865090
  H      5.195730   -7.711510   -2.474940
  H      3.639050   -6.080160   -1.168370
  H     11.680570   -7.553250   -2.293020
  H     13.982350   -3.279920   -3.103180
  H     15.947490   -3.185910   -3.866890
  H     17.560600   -3.872620   -3.625140
  H     15.587400   -3.280390   -1.351700
  H     16.993150   -2.293130   -1.763140
  H     17.211730   -3.944500   -1.169870
  H     15.240030   -9.213950   -4.784770
  H     15.113990   -7.460140   -5.031040
  H     12.748900   -9.412200   -4.926940
  H     13.405860   -8.702550   -6.407720
  H     12.621280   -7.672530   -5.204610

----------------------------
CARTESIAN COORDINATES (A.U.)
----------------------------
  NO LB      ZA    FRAG     MASS         X           Y           Z
   0 C     6.0000    0    12.011    1.321126    1.506868   -1.777854
   1 C     6.0000    0    12.011    3.193108    0.040856   -2.913372
   2 C     6.0000    0    12.011    2.884535   -2.555703   -3.468706
   3 C     6.0000    0    12.011    0.612215   -3.793663   -2.861971
   4 C     6.0000    0    12.011   -1.334071   -2.287079   -1.944094
   5 C     6.0000    0    12.011   -1.048420    0.324334   -1.434302
   6 S    16.0000    0    32.060    6.173433    1.084533   -3.849542
   7 C     6.0000    0    12.011    6.909387   -1.877915   -5.093776
   8 C     6.0000    0    12.011    5.038426   -3.575872   -4.718986
   9 S    16.0000    0    32.060   -4.387755   -3.322705   -1.271540
  10 C     6.0000    0    12.011   -5.321922   -0.239466   -0.518276
  11 C     6.0000    0    12.011   -3.363920    1.434472   -0.681190
  12 C     6.0000    0    12.011    1.767952    4.058470   -0.913796
  13 C     6.0000    0    12.011    0.350676   -6.500223   -3.176157
  14 C     6.0000    0    12.011    0.727904    5.223222    1.154490
  15 C     6.0000    0    12.011    1.689963    7.671835    1.511176
  16 C     6.0000    0    12.011    3.434710    8.439007   -0.227636
  17 S    16.0000    0    32.060    3.933200    6.047823   -2.389974
  18 C     6.0000    0    12.011    2.085351   -8.312471   -2.567817
  19 C     6.0000    0    12.011    1.178244  -10.761953   -3.075869
  20 C     6.0000    0    12.011   -1.189942  -10.881629   -4.078331
  21 S    16.0000    0    32.060   -2.386441   -7.855138   -4.399301
  22 C     6.0000    0    12.011    4.893540   10.843645   -0.299937
  23 C     6.0000    0    12.011    7.458088   10.538266    1.002027
  24 C     6.0000    0    12.011   -2.683562  -13.162509   -4.777133
  25 C     6.0000    0    12.011   -5.080907  -13.383815   -3.180504
  26 C     6.0000    0    12.011    9.323795   -2.221316   -6.476658
  27 C     6.0000    0    12.011   -7.890797    0.307666    0.056824
  28 C     6.0000    0    12.011   -9.906114   -1.325813    0.299446
  29 C     6.0000    0    12.011  -12.202245   -0.118694    0.770706
  30 C     6.0000    0    12.011  -12.010929    2.478470    0.883636
  31 S    16.0000    0    32.060   -8.861568    3.409652    0.449906
  32 C     6.0000    0    12.011  -13.814200    4.464346    1.121061
  33 S    16.0000    0    32.060  -12.569457    7.468802    0.698518
  34 C     6.0000    0    12.011  -15.498891    8.931961    0.946375
  35 C     6.0000    0    12.011  -17.368454    7.146453    1.390725
  36 C     6.0000    0    12.011  -16.416315    4.608211    1.504222
  37 C     6.0000    0    12.011  -20.062126    7.728942    1.619930
  38 C     6.0000    0    12.011  -21.727920    5.529244    1.969454
  39 C     6.0000    0    12.011  -20.800650    3.064474    2.169406
  40 C     6.0000    0    12.011  -18.073019    2.465923    2.017850
  41 C     6.0000    0    12.011  -15.413419   11.604374    0.593676
  42 C     6.0000    0    12.011  -17.050810   13.581254    1.046549
  43 C     6.0000    0    12.011  -16.024122   15.951877    0.487512
  44 S    16.0000    0    32.060  -12.554074   12.744653   -0.585910
  45 O     8.0000    0    15.999  -20.925561    9.866827    1.513444
  46 O     8.0000    0    15.999  -17.340089    0.297670    2.329900
  47 F     9.0000    0    18.998    0.929348    9.155931    3.435276
  48 F     9.0000    0    18.998    2.568875  -12.846207   -2.598600
  49 C     6.0000    0    12.011  -24.330696    5.921154    2.103586
  50 C     6.0000    0    12.011  -25.975098    3.929383    2.429092
  51 C     6.0000    0    12.011  -25.048112    1.458717    2.706598
  52 C     6.0000    0    12.011  -22.463137    1.064180    2.538507
  53 S    16.0000    0    32.060  -27.272282   -0.945184    3.220566
  54 C     6.0000    0    12.011  -25.407784   -3.668677    4.219532
  55 C     6.0000    0    12.011  -24.308983   -3.327486    6.843946
  56 S    16.0000    0    32.060  -29.284651    4.514008    2.538582
  57 C     6.0000    0    12.011  -30.166152    3.348028   -0.600347
  58 C     6.0000    0    12.011  -29.054709    4.965407   -2.685433
  59 C     6.0000    0    12.011   -5.369090   20.423177   -3.256735
  60 C     6.0000    0    12.011   -7.794856   19.763493   -2.505645
  61 C     6.0000    0    12.011   -9.729482   21.535036   -1.965221
  62 C     6.0000    0    12.011   -9.223640   24.143311   -2.196882
  63 C     6.0000    0    12.011   -6.815808   24.813351   -3.012771
  64 C     6.0000    0    12.011   -4.895657   23.023025   -3.541214
  65 S    16.0000    0    32.060   -8.804234   16.691308   -1.986631
  66 C     6.0000    0    12.011  -11.814454   17.753618   -1.118737
  67 C     6.0000    0    12.011  -12.006829   20.324987   -1.222029
  68 S    16.0000    0    32.060   -5.693065   27.896080   -3.387372
  69 C     6.0000    0    12.011   -2.709773   26.768802   -4.266208
  70 C     6.0000    0    12.011   -2.618820   24.190365   -4.291341
  71 C     6.0000    0    12.011   -3.422710   18.536248   -3.653030
  72 C     6.0000    0    12.011  -11.115955   26.017617   -1.558495
  73 C     6.0000    0    12.011   -0.945052   18.602596   -2.927696
  74 C     6.0000    0    12.011    0.339489   16.362496   -3.571469
  75 C     6.0000    0    12.011   -1.070190   14.581694   -4.786846
  76 S    16.0000    0    32.060   -4.119679   15.693212   -5.162788
  77 C     6.0000    0    12.011  -12.712698   26.039765    0.469597
  78 C     6.0000    0    12.011  -14.286972   28.185776    0.473017
  79 C     6.0000    0    12.011  -13.959709   29.799961   -1.507661
  80 S    16.0000    0    32.060  -11.595794   28.662856   -3.458577
  81 C     6.0000    0    12.011   -0.322463   12.009040   -5.646388
  82 C     6.0000    0    12.011   -1.830597    9.961332   -4.275713
  83 C     6.0000    0    12.011  -15.287658   32.225689   -2.030189
  84 C     6.0000    0    12.011  -13.472802   34.470721   -1.906923
  85 C     6.0000    0    12.011  -13.580385   15.845316   -0.408729
  86 C     6.0000    0    12.011   -0.622381   28.392701   -4.749921
  87 C     6.0000    0    12.011   -0.447071   30.988580   -4.750450
  88 C     6.0000    0    12.011    2.003620   31.887012   -5.150184
  89 C     6.0000    0    12.011    3.769493   29.995850   -5.457227
  90 S    16.0000    0    32.060    2.311248   27.034309   -5.292726
  91 C     6.0000    0    12.011    6.452130   29.961929   -5.718708
  92 S    16.0000    0    32.060    7.818647   27.006038   -5.267857
  93 C     6.0000    0    12.011   10.858650   28.132523   -5.751684
  94 C     6.0000    0    12.011   10.805945   30.708314   -6.273229
  95 C     6.0000    0    12.011    8.303003   31.750045   -6.244203
  96 C     6.0000    0    12.011   13.016547   32.218035   -6.942400
  97 C     6.0000    0    12.011   12.488047   34.873989   -7.632207
  98 C     6.0000    0    12.011   10.054345   35.896520   -7.560492
  99 C     6.0000    0    12.011    7.825961   34.420643   -6.787575
 100 C     6.0000    0    12.011   12.804746   26.283861   -5.509742
 101 C     6.0000    0    12.011   15.351852   26.453974   -4.993469
 102 C     6.0000    0    12.011   16.522594   24.108899   -4.706854
 103 S    16.0000    0    32.060   11.866819   23.114525   -5.657557
 104 O     8.0000    0    15.999   15.175710   31.403015   -6.992327
 105 O     8.0000    0    15.999    5.751703   35.420063   -6.628517
 106 F     9.0000    0    18.998    2.807037   16.021098   -3.028229
 107 F     9.0000    0    18.998  -16.000708   28.597793    2.307280
 108 C     6.0000    0    12.011   14.519956   36.367364   -8.368274
 109 C     6.0000    0    12.011   14.184776   38.873896   -9.055133
 110 C     6.0000    0    12.011   11.745649   39.910657   -8.918865
 111 C     6.0000    0    12.011    9.725646   38.430642   -8.207175
 112 S    16.0000    0    32.060   11.235064   43.137686   -9.712871
 113 C     6.0000    0    12.011   12.521477   44.634556   -6.868172
 114 C     6.0000    0    12.011   10.928381   44.065636   -4.558038
 115 S    16.0000    0    32.060   16.626434   40.872263  -10.070294
 116 C     6.0000    0    12.011   19.275301   38.762667  -10.720190
 117 C     6.0000    0    12.011   18.835486   37.160217  -13.054701
 118 C     6.0000    0    12.011   19.032755   13.198962   -3.709702
 119 C     6.0000    0    12.011   17.496634   15.279286   -4.163652
 120 C     6.0000    0    12.011   14.922355   15.082963   -4.877553
 121 C     6.0000    0    12.011   13.795001   12.683728   -5.207953
 122 C     6.0000    0    12.011   15.300489   10.601496   -4.622761
 123 C     6.0000    0    12.011   17.866397   10.812541   -3.884332
 124 S    16.0000    0    32.060   18.486359   18.417290   -4.045318
 125 C     6.0000    0    12.011   15.449078   19.460022   -4.828553
 126 C     6.0000    0    12.011   13.811139   17.497447   -5.181629
 127 S    16.0000    0    32.060   14.391606    7.435638   -4.779798
 128 C     6.0000    0    12.011   17.388126    6.435651   -3.799653
 129 C     6.0000    0    12.011   18.976214    8.431769   -3.402660
 130 C     6.0000    0    12.011   21.697684   13.505287   -3.161398
 131 C     6.0000    0    12.011   11.272934   12.389555   -6.224947
 132 C     6.0000    0    12.011   22.824169   15.310958   -1.700130
 133 C     6.0000    0    12.011   25.476607   15.096909   -1.711676
 134 C     6.0000    0    12.011   26.429653   13.198792   -3.169127
 135 S    16.0000    0    32.060   23.965639   11.572173   -4.571682
 136 C     6.0000    0    12.011    9.559331   10.500962   -5.793863
 137 C     6.0000    0    12.011    7.361882   10.790695   -7.262879
 138 C     6.0000    0    12.011    7.333158   12.829596   -8.837852
 139 S    16.0000    0    32.060   10.123527   14.484373   -8.503994
 140 C     6.0000    0    12.011   29.119489   12.466939   -3.558487
 141 C     6.0000    0    12.011   29.657778    9.813839   -2.548806
 142 C     6.0000    0    12.011    5.281388   13.674682  -10.569238
 143 C     6.0000    0    12.011    4.297181   16.292482   -9.843924
 144 C     6.0000    0    12.011   14.906651   22.087346   -5.000140
 145 C     6.0000    0    12.011   18.007673    3.832535   -3.490060
 146 C     6.0000    0    12.011   20.288270    2.870022   -2.667594
 147 C     6.0000    0    12.011   20.377729    0.240808   -2.639929
 148 C     6.0000    0    12.011   18.172910   -0.878628   -3.448372
 149 S    16.0000    0    32.060   15.920225    1.410114   -4.202940
 150 C     6.0000    0    12.011   17.547052   -3.495370   -3.621055
 151 S    16.0000    0    32.060   14.419725   -4.375793   -3.178689
 152 C     6.0000    0    12.011   15.107718   -7.570715   -3.540081
 153 C     6.0000    0    12.011   17.676801   -7.926702   -3.928476
 154 C     6.0000    0    12.011   19.053258   -5.600373   -4.039630
 155 C     6.0000    0    12.011   18.968731  -10.376864   -4.003366
 156 C     6.0000    0    12.011   21.701313  -10.260192   -4.535286
 157 C     6.0000    0    12.011   22.976689   -7.989592   -4.974288
 158 C     6.0000    0    12.011   21.709023   -5.505075   -4.796484
 159 C     6.0000    0    12.011   13.027885   -9.290064   -3.470501
 160 C     6.0000    0    12.011   12.769125  -11.678413   -4.454387
 161 C     6.0000    0    12.011   10.361161  -12.716572   -4.055938
 162 S    16.0000    0    32.060   10.195413   -8.313000   -2.067020
 163 O     8.0000    0    15.999   17.928720  -12.396906   -3.615443
 164 O     8.0000    0    15.999   22.844219   -3.560150   -5.294578
 165 C     6.0000    0    12.011    8.781538  -11.133359   -2.787875
 166 F     9.0000    0    18.998   26.963028   16.669085   -0.377076
 167 F     9.0000    0    18.998    5.412780    9.160334   -7.132960
 168 C     6.0000    0    12.011   23.054829  -12.517395   -4.671686
 169 C     6.0000    0    12.011   25.597701  -12.530547   -5.232671
 170 C     6.0000    0    12.011   26.892749  -10.250801   -5.643327
 171 C     6.0000    0    12.011   25.542994   -8.007318   -5.533798
 172 S    16.0000    0    32.060   30.140414  -10.449902   -6.273399
 173 C     6.0000    0    12.011   31.281071   -7.202105   -6.070726
 174 C     6.0000    0    12.011   31.341713   -6.239592   -3.372065
 175 S    16.0000    0    32.060   27.246071  -15.457752   -5.376271
 176 C     6.0000    0    12.011   27.584295  -15.768007   -8.808032
 177 C     6.0000    0    12.011   25.054027  -16.147748  -10.093122
 178 H     1.0000    0     1.008    5.134972   -5.494435   -5.377877
 179 H     1.0000    0     1.008   -3.618504    3.424656   -0.364131
 180 H     1.0000    0     1.008   -0.581185    4.355724    2.439145
 181 H     1.0000    0     1.008    3.887167   -7.920201   -1.718139
 182 H     1.0000    0     1.008    3.809858   12.318898    0.651086
 183 H     1.0000    0     1.008    5.192741   11.418689   -2.256220
 184 H     1.0000    0     1.008    7.201520   10.100454    2.993496
 185 H     1.0000    0     1.008    8.539483   12.277248    0.841779
 186 H     1.0000    0     1.008    8.527011    9.012047    0.133150
 187 H     1.0000    0     1.008   -1.494471  -14.826413   -4.499532
 188 H     1.0000    0     1.008   -3.204144  -13.064055   -6.774290
 189 H     1.0000    0     1.008   -4.603789  -13.511750   -1.185652
 190 H     1.0000    0     1.008   -6.134486  -15.064311   -3.713142
 191 H     1.0000    0     1.008   -6.276385  -11.735747   -3.462640
 192 H     1.0000    0     1.008    9.128247   -1.537613   -8.411549
 193 H     1.0000    0     1.008    9.836554   -4.209875   -6.536166
 194 H     1.0000    0     1.008   10.831098   -1.148198   -5.581760
 195 H     1.0000    0     1.008   -9.699870   -3.340639    0.123815
 196 H     1.0000    0     1.008  -13.963149   -1.093962    1.017750
 197 H     1.0000    0     1.008  -18.927119   13.303313    1.766081
 198 H     1.0000    0     1.008  -17.034804   17.695188    0.747349
 199 H     1.0000    0     1.008  -25.047507    7.824241    1.940144
 200 H     1.0000    0     1.008  -21.644602   -0.797238    2.685584
 201 H     1.0000    0     1.008  -23.964279   -4.040688    2.800404
 202 H     1.0000    0     1.008  -26.772090   -5.212545    4.189466
 203 H     1.0000    0     1.008  -22.987687   -1.753420    6.897765
 204 H     1.0000    0     1.008  -23.311624   -5.035742    7.406271
 205 H     1.0000    0     1.008  -25.809256   -2.963128    8.201128
 206 H     1.0000    0     1.008  -32.222155    3.426962   -0.603824
 207 H     1.0000    0     1.008  -29.562706    1.385793   -0.742832
 208 H     1.0000    0     1.008  -29.650937    6.920423   -2.471800
 209 H     1.0000    0     1.008  -29.690205    4.276658   -4.516162
 210 H     1.0000    0     1.008  -26.998782    4.902006   -2.640590
 211 H     1.0000    0     1.008  -13.726215   21.322989   -0.813603
 212 H     1.0000    0     1.008   -0.956183   23.166663   -4.848924
 213 H     1.0000    0     1.008   -0.077932   20.117987   -1.892863
 214 H     1.0000    0     1.008  -12.718651   24.650835    1.949819
 215 H     1.0000    0     1.008    1.689699   11.748919   -5.286207
 216 H     1.0000    0     1.008   -0.644113   11.835733   -7.679658
 217 H     1.0000    0     1.008   -1.565468   10.114948   -2.243615
 218 H     1.0000    0     1.008   -1.198804    8.103845   -4.883204
 219 H     1.0000    0     1.008   -3.835502   10.151779   -4.686955
 220 H     1.0000    0     1.008  -16.790254   32.455461   -0.634305
 221 H     1.0000    0     1.008  -16.149807   32.151026   -3.906366
 222 H     1.0000    0     1.008  -12.619081   34.601169   -0.041990
 223 H     1.0000    0     1.008  -14.482162   36.217603   -2.290669
 224 H     1.0000    0     1.008  -11.975610   34.252288   -3.298479
 225 H     1.0000    0     1.008   -2.058006   32.190389   -4.445807
 226 H     1.0000    0     1.008    2.492152   33.854708   -5.197692
 227 H     1.0000    0     1.008   16.321754   28.226310   -4.824981
 228 H     1.0000    0     1.008   18.498038   23.872816   -4.288356
 229 H     1.0000    0     1.008   16.356090   35.481290   -8.379518
 230 H     1.0000    0     1.008    7.848241   39.226255   -8.139598
 231 H     1.0000    0     1.008   12.511442   46.643638   -7.311936
 232 H     1.0000    0     1.008   14.465683   44.000742   -6.638929
 233 H     1.0000    0     1.008    8.991222   44.685315   -4.852609
 234 H     1.0000    0     1.008   11.695647   45.048728   -2.922632
 235 H     1.0000    0     1.008   10.914453   42.047011   -4.160780
 236 H     1.0000    0     1.008   19.649108   37.630476   -9.042642
 237 H     1.0000    0     1.008   20.853071   40.057016  -11.004215
 238 H     1.0000    0     1.008   17.217597   35.915889  -12.807789
 239 H     1.0000    0     1.008   20.495762   36.005330  -13.427052
 240 H     1.0000    0     1.008   18.488098   38.361214  -14.686403
 241 H     1.0000    0     1.008   11.850945   17.814845   -5.603435
 242 H     1.0000    0     1.008   20.887729    8.206136   -2.766030
 243 H     1.0000    0     1.008   21.831477   16.696505   -0.599535
 244 H     1.0000    0     1.008    9.784454    8.994019   -4.455426
 245 H     1.0000    0     1.008   30.309488   13.845608   -2.587999
 246 H     1.0000    0     1.008   29.567430   12.529432   -5.574900
 247 H     1.0000    0     1.008   29.253641    9.716291   -0.535794
 248 H     1.0000    0     1.008   31.632107    9.332261   -2.844869
 249 H     1.0000    0     1.008   28.489077    8.430862   -3.522771
 250 H     1.0000    0     1.008    3.753280   12.290420  -10.477889
 251 H     1.0000    0     1.008    5.988882   13.728010  -12.510327
 252 H     1.0000    0     1.008    3.640293   16.297225   -7.898961
 253 H     1.0000    0     1.008    2.736191   16.828068  -11.066633
 254 H     1.0000    0     1.008    5.791085   17.692202  -10.028663
 255 H     1.0000    0     1.008   21.848295    4.041066   -2.106138
 256 H     1.0000    0     1.008   22.002025   -0.816456   -2.044003
 257 H     1.0000    0     1.008   14.262689  -12.655439   -5.414235
 258 H     1.0000    0     1.008    9.818507  -14.572642   -4.676959
 259 H     1.0000    0     1.008    6.876808  -11.489837   -2.207899
 260 H     1.0000    0     1.008   22.073078  -14.273574   -4.333180
 261 H     1.0000    0     1.008   26.422812   -6.198151   -5.864160
 262 H     1.0000    0     1.008   30.136389   -6.020497   -7.307363
 263 H     1.0000    0     1.008   33.184725   -7.318191   -6.850522
 264 H     1.0000    0     1.008   29.455917   -6.199039   -2.554343
 265 H     1.0000    0     1.008   32.112400   -4.333388   -3.331852
 266 H     1.0000    0     1.008   32.525456   -7.454025   -2.210734
 267 H     1.0000    0     1.008   28.799483  -17.411842   -9.041905
 268 H     1.0000    0     1.008   28.561302  -14.097622   -9.507288
 269 H     1.0000    0     1.008   24.091930  -17.786480   -9.310567
 270 H     1.0000    0     1.008   25.333404  -16.445436  -12.108836
 271 H     1.0000    0     1.008   23.850763  -14.498980   -9.835288

--------------------------------
INTERNAL COORDINATES (ANGSTROEM)
--------------------------------
 C      0   0   0     0.000000000000     0.00000000     0.00000000
 C      1   0   0     1.394349874529     0.00000000     0.00000000
 C      2   1   0     1.414570296097   123.22647969     0.00000000
 C      3   2   1     1.406467918760   120.24493541   359.59972982
 C      4   3   2     1.390067367360   116.49235562     6.05631347
 C      1   2   3     1.413127602519   116.06969947   353.54733189
 S      2   1   3     1.742915057741   126.08983330   179.76733796
 C      7   2   1     1.744346890530    91.40580281   182.85497923
 C      8   7   2     1.351632932493   112.24108605   357.53184720
 S      5   4   3     1.743061609496   125.30354816   175.21470448
 C     10   5   4     1.750804176400    90.87369984   183.57567619
 C     11  10   5     1.365890514317   112.07414190   357.58692699
 C      1   2   3     1.445043972549   122.68275495   171.51635692
 C      4   3   2     1.448494739411   121.06692899   186.36967697
 C     13   1   2     1.371391682416   127.35997998   214.48539176
 C     15  13   1     1.404911895814   112.10560534   176.77738896
 C     16  15  13     1.365252804026   115.38934486     0.29490122
 S     17  16  15     1.726282723455   109.39721069   359.68410709
 C     14   4   3     1.365996225800   127.07932993    42.37236758
 C     19  14   4     1.408140577854   111.84977773   178.64510106
 C     20  19  14     1.362316004237   115.51328302     0.61394903
 S     21  20  19     1.730521022871   109.37604682   359.55249699
 C     17  16  15     1.488832528661   128.47131009   183.51574365
 C     23  17  16     1.530527566201   110.97437626    93.30660433
 C     21  20  19     1.489391102532   128.50065816   181.13269620
 C     25  21  20     1.528714318144   111.42293778   116.43747099
 C      8   7   2     1.483552589226   119.24523610   174.80576525
 C     11  10   5     1.422809032126   120.53718366   174.82845182
 C     28  11  10     1.378770569638   129.14986035     4.95817495
 C     29  28  11     1.395206463718   113.77986856   182.67348553
 C     30  29  28     1.379378919949   113.57806807     0.45083100
 S     28  11  10     1.732538130663   120.11719272   187.26696987
 C     31  30  29     1.425035875513   133.58498014   174.46751272
 S     33  31  30     1.735401880891   114.20995312   189.07750213
 C     34  33  31     1.737753151227    93.43296261   175.85192799
 C     35  34  33     1.388094445994   110.20012714     1.11038249
 C     33  31  30     1.393908646540   135.61049106     5.40945253
 C     36  35  34     1.463411714659   124.39495564   181.95469539
 C     38  36  35     1.471807831376   115.29059589   177.17653213
 C     39  38  36     1.397558915467   122.50263051     2.42563013
 C     37  33  31     1.458637349926   125.33749624     5.96862401
 C     35  34  33     1.427159877134   113.78861797   182.47722152
 C     42  35  34     1.379336593367   135.14505855   194.27278315
 C     43  42  35     1.398717394365   113.54470975   176.68369565
 S     42  35  34     1.744480828843   114.64748409    11.54243989
 O     38  36  35     1.221403705988   123.75544414   357.81554715
 O     41  37  33     1.222374472696   124.33226316     4.81387099
 F     16  15  13     1.347401851194   122.06286712   180.06836871
 F     20  19  14     1.349739711685   122.04701639   180.60962676
 C     39  38  36     1.394663651710   118.70295955   182.48812744
 C     50  39  38     1.377606364278   121.09122601   179.99499302
 C     51  50  39     1.404115903514   120.31853187     1.85291741
 C     52  51  50     1.386606995150   118.56390645   357.31737941
 S     52  51  50     1.754271361249   117.19520480   177.86366859
 C     54  52  51     1.824832639860   104.76505471   192.98203161
 C     55  54  52     1.516378555144   112.24698401    70.54437537
 S     51  50  39     1.779398391620   119.52154438   181.00604784
 C     57  51  50     1.832316212748    99.35209943   105.19351783
 C     58  57  51     1.515222234954   111.78389490   293.67037532
 C     45  42  35     5.741439661139   155.13072089   190.28167812
 C     60  45  42     1.388388013237    30.60602604   349.40745434
 C     61  60  45     1.417286262404   124.00770596   177.01984218
 C     62  61  60     1.411291376045   119.49585024     0.28410378
 C     63  62  61     1.391271769389   116.73778029     1.36926001
 C     60  45  42     1.406484333685   146.77981610   351.46982298
 S     61  60  45     1.733129018567   124.48337317   359.76503796
 C     66  61  60     1.750542601310    91.19149629   178.76066474
 C     67  66  61     1.365607066363   112.16718393   359.82347370
 S     64  63  62     1.747414634796   125.76846854   181.49126587
 C     69  64  63     1.750540191084    91.06791129   177.76568095
 C     70  69  64     1.365363390970   112.01931431     0.69194290
 C     60  45  42     1.449785941062    91.06851198   169.04556429
 C     63  62  61     1.449348410459   121.19729216   182.66439869
 C     72  60  45     1.366599369018   128.55554852   222.89891470
 C     74  72  60     1.408301451927   111.93236029   177.71396608
 C     75  74  72     1.363141787563   115.58777103     0.46121394
 S     76  75  74     1.729056632415   109.25989019   359.95418113
 C     73  63  62     1.365978011682   128.05231871    42.51926283
 C     78  73  63     1.408418150053   111.95083534   179.59751713
 C     79  78  73     1.363161166334   115.41169912     0.57485869
 S     80  79  78     1.729946046037   109.43637441   359.43311248
 C     76  75  74     1.488903595603   129.11017219   182.08935083
 C     82  76  75     1.528793084037   111.37198510   116.45841571
 C     80  79  78     1.489296756224   128.52866789   180.90084629
 C     84  80  79     1.529044217052   111.43182075   114.87008278
 C     44  43  42     1.378550149215   113.60611561     0.08227257
 C     70  69  64     1.422712145798   122.83049301   183.92369404
 C     87  70  69     1.376809025864   130.91864091   357.37034427
 C     88  87  70     1.397354124158   113.70499157   175.74715954
 C     89  88  87     1.378816818725   113.57020889   359.78390982
 S     87  70  69     1.734704641892   118.31481838   173.58109145
 C     90  89  88     1.426430589794   134.03043680   185.36550406
 S     92  90  89     1.739691860474   114.31063238   164.70187572
 C     93  92  90     1.734593376847    93.22540792   180.75222437
 C     94  93  92     1.390990163409   110.33128919   359.34175016
 C     92  90  89     1.389957701838   135.40731903   345.15534253
 C     95  94  93     1.460165442750   124.62487414   184.34938802
 C     97  95  94     1.478786032765   115.36355531   174.96891218
 C     98  97  95     1.397430782579   122.38476649     2.24347748
 C     96  92  90     1.464102446416   125.09248089   357.96366867
 C     94  93  92     1.426167487604   114.87917509   178.72506372
 C    101  94  93     1.378221817162   132.78005783   202.66112923
 C    102 101  94     1.395278800599   113.43422482   174.52153222
 S    101  94  93     1.750788512899   116.63922340    17.31323379
 O     97  95  94     1.221555621697   124.15382077   356.15343951
 O    100  96  92     1.221320428184   124.01484200     6.47062204
 F     75  74  72     1.349189508335   121.89124326   180.08343871
 F     79  78  73     1.346146983171   122.00528515   180.31691796
 C     98  97  95     1.390097106428   117.59307548   182.14922821
 C    109  98  97     1.386689409277   121.21719626   179.72280795
 C    110 109  98     1.404342786466   118.54074825     1.94881764
 C    111 110 109     1.377626361464   120.33772171   357.61271443
 S    111 110 109     1.779236435637   120.15883501   178.58901395
 C    113 111 110     1.832190989553    99.46777496   284.46555689
 C    114 113 111     1.515179727095   111.73187638   292.97501303
 S    110 109  98     1.753942366499   124.24707154   181.40714192
 C    116 110 109     1.824645272101   104.75983944    13.44041862
 C    117 116 110     1.516369686092   112.19638730    70.63009902
 C    103 102 101     5.947583297054   166.44510167   354.38892663
 C    119 103 102     1.389378379852    23.77613993     7.68185485
 C    120 119 103     1.417475193081   123.38626428   178.05289083
 C    121 120 119     1.413647670001   120.28846282   358.87089586
 C    122 121 120     1.394523608513   116.17327502     4.31307857
 C    119 103 102     1.408635033570   140.04498937     6.53749044
 S    120 119 103     1.742321544836   124.96481694     0.45060589
 C    125 120 119     1.749154736609    90.91260676   179.91467209
 C    126 125 120     1.365565152492   112.07005446   359.30047132
 S    123 122 121     1.744952211838   126.19698157   178.46051457
 C    128 123 122     1.750272045683    91.51530351   179.25797986
 C    129 128 123     1.366068022025   111.66186122   359.53698202
 C    119 103 102     1.448856059414    97.27008017   185.51063679
 C    122 121 120     1.447435885350   122.11986168   187.57313544
 C    131 119 103     1.366130336169   128.04796985    38.74499348
 C    133 131 119     1.408186229552   112.09942488   183.29582013
 C    134 133 131     1.363112256933   115.49983425     0.88419887
 S    135 134 133     1.729722822564   109.30331470   359.37036955
 C    132 122 121     1.368621691484   128.86480629   208.19746685
 C    137 132 122     1.407127572362   112.07943307   183.96038012
 C    138 137 132     1.363438593117   115.66688331     0.68971900
 S    139 138 137     1.725791933519   109.23301431   359.80139445
 C    135 134 133     1.489464950914   128.56763529   180.67373470
 C    141 135 134     1.528960331107   111.62034519   115.95550929
 C    139 138 137     1.489389696016   128.44508846   181.49612926
 C    143 139 138     1.528912012903   111.46595909   117.78803293
 C    103 102 101     1.378297396065   113.73997022     0.11052460
 C    129 128 123     1.425433159254   122.31700147   179.75853792
 C    146 129 128     1.380331544992   126.43596130   181.75800798
 C    147 146 129     1.392202121676   113.69137988   182.24627751
 C    148 147 146     1.376669055401   113.44949675     0.21833020
 S    146 129 128     1.733712613613   122.88668445     3.36411733
 C    149 148 147     1.426704804401   129.36648154   181.58058351
 S    151 149 148     1.735104621111   118.25381475   148.67043352
 C    152 151 149     1.739976598952    92.66582144   181.68628170
 C    153 152 151     1.387793160129   110.67979934     1.35842318
 C    151 149 148     1.387504493290   131.00096695   330.52012756
 C    154 153 152     1.466306685997   125.50479668   172.22877254
 C    156 154 153     1.474454698660   115.17524885   177.92559171
 C    157 156 154     1.397562287914   122.77441308   359.12708890
 C    155 151 149     1.462195705745   124.62213175   350.09662448
 C    153 152 151     1.428455423876   117.05505727   183.19723498
 C    160 153 152     1.373742460216   130.76986151   156.32981431
 C    161 160 153     1.403550033665   113.18265886   182.34083895
 S    160 153 152     1.750874082309   118.84449344   339.80378786
 O    156 154 153     1.219713278808   124.05767888   356.56677113
 O    159 155 151     1.220496685329   124.14592603   355.22640408
 C    162 161 160     1.360484807302   113.00838727     0.30126613
 F    134 133 131     1.345228781881   122.05911491   180.69255237
 F    138 137 132     1.346436534486   122.34534860   180.49864916
 C    157 156 154     1.394617763583   118.53491984   180.87547332
 C    169 157 156     1.378003772890   121.13066081   178.16792944
 C    170 169 157     1.404368279441   120.36563814     0.97144714
 C    171 170 169     1.386712136386   118.53001400   358.39784397
 S    171 170 169     1.753801931262   117.12920428   178.55213463
 C    173 171 170     1.824730059543   104.85629167   190.97256764
 C    174 173 171     1.516522643616   112.25222256    72.05952162
 S    170 169 157     1.779347874532   119.49217762   179.81575061
 C    176 170 169     1.832179367011    99.68477594   105.30996760
 C    177 176 170     1.515139988813   111.74186393   293.21410397
 H      9   8   7     1.074678474987   123.06446918   179.01881199
 H     12  11  10     1.074916551366   122.03731482   177.17578947
 H     15  13   1     1.073669608073   124.89631895     0.41579649
 H     19  14   4     1.074421101664   124.01037351     1.49754508
 H     23  17  16     1.091591795544   109.08652893   332.58158866
 H     23  17  16     1.090572018392   109.76434039   214.04037389
 H     24  23  17     1.087514533650   110.36555875   296.91721591
 H     24  23  17     1.086961064344   110.01736515   176.88856164
 H     24  23  17     1.087956403630   110.43498730    56.80825998
 H     25  21  20     1.092155134402   108.31235177   355.31579976
 H     25  21  20     1.093405488783   109.57682110   237.39362267
 H     26  25  21     1.087512821672   110.40107276   300.36631247
 H     26  25  21     1.086785939778   110.18605327   180.34027892
 H     26  25  21     1.087700256872   110.20443834    60.27403425
 H     27   8   7     1.090861384595   109.91765752   279.21665535
 H     27   8   7     1.087176299273   110.35223598   159.57251401
 H     27   8   7     1.087634601969   110.66197653    38.12675990
 H     29  28  11     1.075793578341   122.33232029     2.27174180
 H     30  29  28     1.073194469749   123.90163876   180.21255773
 H     43  42  35     1.073527416511   122.59614124   356.89693168
 H     44  43  42     1.075170930271   123.31730142   180.63661595
 H     50  39  38     1.079608339816   118.79105796     0.22962093
 H     53  52  51     1.078860895482   121.93245085   181.68261286
 H     55  54  52     1.089131386656   108.79714458   305.26428357
 H     55  54  52     1.090383276697   103.26928977   190.02721149
 H     56  55  54     1.087894347811   111.19786725   296.60963760
 H     56  55  54     1.088237747094   109.72443293   176.58171550
 H     56  55  54     1.087780152558   110.23805778    56.89531228
 H     58  57  51     1.088793074280   104.06397599   173.31887294
 H     58  57  51     1.088976154835   108.01127214    57.30286822
 H     59  58  57     1.087483593026   110.42881049   302.71148504
 H     59  58  57     1.088330847399   109.82218486   182.78306004
 H     59  58  57     1.088725823107   110.76929595    62.91101461
 H     68  67  66     1.073996336539   123.02933194   177.99381823
 H     71  70  69     1.074533289805   122.36733497   177.81890969
 H     74  72  60     1.074005986855   124.90979077     1.12213399
 H     78  73  63     1.074141104604   124.67262724     2.65672458
 H     82  76  75     1.090437355651   108.75529313   355.43091959
 H     82  76  75     1.093193528064   109.63377397   237.22533325
 H     83  82  76     1.087496330890   110.41472448   302.05972753
 H     83  82  76     1.086871912141   109.88341687   182.18290254
 H     83  82  76     1.087717782929   110.40080806    61.99435192
 H     84  80  79     1.092092082473   108.29614676   353.75915252
 H     84  80  79     1.093351847257   109.53235089   235.81170183
 H     85  84  80     1.087563059413   110.42214820   300.08331847
 H     85  84  80     1.086768664390   110.13445334   180.09059311
 H     85  84  80     1.087807037530   110.24391677    60.05165758
 H     88  87  70     1.075709814913   122.44151354   356.47221020
 H     89  88  87     1.073166807910   123.86477000   180.41437658
 H    102 101  94     1.072843866786   122.78164854   354.74050020
 H    103 102 101     1.075839005660   123.85518686   180.35259240
 H    109  98  97     1.078877900506   116.81358623   359.79718290
 H    112 111 110     1.079601374768   120.09148986   181.17756759
 H    114 113 111     1.088798654757   104.07154784   172.62096879
 H    114 113 111     1.088898730369   108.02401932    56.60165816
 H    115 114 113     1.087501775079   110.42020279   302.42736188
 H    115 114 113     1.088321308116   109.81709404   182.50533903
 H    115 114 113     1.088723734195   110.76312224    62.63067079
 H    117 116 110     1.089097034887   108.81235862   305.35704259
 H    117 116 110     1.090332197085   103.29124155   190.10507330
 H    118 117 116     1.087955697168   111.18616856   297.10960928
 H    118 117 116     1.088218579882   109.73379189   177.08064697
 H    118 117 116     1.087781104864   110.23664942    57.37718561
 H    127 126 125     1.074245693405   121.49407316   177.62570209
 H    130 129 128     1.072820662087   122.83828229   178.99340475
 H    133 131 119     1.073654620537   124.83376101     5.66451958
 H    137 132 122     1.073195650103   125.38361043     6.14530153
 H    141 135 134     1.092038893813   108.19837013   354.81156709
 H    141 135 134     1.093551986922   109.52766320   236.97567743
 H    142 141 135     1.087721003567   110.43706039   300.31312464
 H    142 141 135     1.086753544922   110.12398349   180.36697423
 H    142 141 135     1.087983156166   110.25626008    60.43257909
 H    143 139 138     1.092163428979   108.12758606   356.58329831
 H    143 139 138     1.093646649014   109.63110455   238.82705631
 H    144 143 139     1.086348657246   110.42223349   303.12133893
 H    144 143 139     1.086883985943   110.22542096   183.03340175
 H    144 143 139     1.087725608414   110.29481587    62.94663363
 H    147 146 129     1.074146092997   123.11234909     2.10714242
 H    148 147 146     1.072973673722   123.46512678   180.34421639
 H    161 160 153     1.072367238823   123.34068804     2.87590386
 H    162 161 160     1.074781716722   123.66423890   180.60676245
 H    166 162 161     1.070383969097   127.69549711   181.80963274
 H    169 157 156     1.079649404298   118.78419709   358.32500804
 H    172 171 170     1.078834596080   122.05128103   181.08520571
 H    174 173 171     1.089098428059   108.75086877   306.75522132
 H    174 173 171     1.090343058079   103.31544286   191.52109702
 H    175 174 173     1.087911511291   111.20886813   297.50416104
 H    175 174 173     1.088252813321   109.73427929   177.42179418
 H    175 174 173     1.087685714304   110.23054433    57.72487655
 H    177 176 170     1.088816354809   104.00141300   172.92476616
 H    177 176 170     1.088831385431   108.08821339    56.90330980
 H    178 177 176     1.087516169489   110.39940391   303.52350811
 H    178 177 176     1.088327733452   109.81897517   183.62264031
 H    178 177 176     1.088711394861   110.75137525    63.73272041

---------------------------
INTERNAL COORDINATES (A.U.)
---------------------------
 C      0   0   0     0.000000000000     0.00000000     0.00000000
 C      1   0   0     2.634939397728     0.00000000     0.00000000
 C      2   1   0     2.673150456803   123.22647969     0.00000000
 C      3   2   1     2.657839182602   120.24493541   359.59972982
 C      4   3   2     2.626846632012   116.49235562     6.05631347
 C      1   2   3     2.670424161045   116.06969947   353.54733189
 S      2   1   3     3.293632133818   126.08983330   179.76733796
 C      7   2   1     3.296337905658    91.40580281   182.85497923
 C      8   7   2     2.554216076001   112.24108605   357.53184720
 S      5   4   3     3.293909076500   125.30354816   175.21470448
 C     10   5   4     3.308540407522    90.87369984   183.57567619
 C     11  10   5     2.581159000979   112.07414190   357.58692699
 C      1   2   3     2.730737359591   122.68275495   171.51635692
 C      4   3   2     2.737258363912   121.06692899   186.36967697
 C     13   1   2     2.591554702104   127.35997998   214.48539176
 C     15  13   1     2.654898725377   112.10560534   176.77738896
 C     16  15  13     2.579953903177   115.38934486     0.29490122
 S     17  16  15     3.262201577050   109.39721069   359.68410709
 C     14   4   3     2.581358766732   127.07932993    42.37236758
 C     19  14   4     2.661000050206   111.84977773   178.64510106
 C     20  19  14     2.574404155866   115.51328302     0.61394903
 S     21  20  19     3.270210802220   109.37604682   359.55249699
 C     17  16  15     2.813485738443   128.47131009   183.51574365
 C     23  17  16     2.892277940536   110.97437626    93.30660433
 C     21  20  19     2.814541290084   128.50065816   181.13269620
 C     25  21  20     2.888851398297   111.42293778   116.43747099
 C      8   7   2     2.803508098907   119.24523610   174.80576525
 C     11  10   5     2.688719411588   120.53718366   174.82845182
 C     28  11  10     2.605498778126   129.14986035     4.95817495
 C     29  28  11     2.636558116703   113.77986856   182.67348553
 C     30  29  28     2.606648393608   113.57806807     0.45083100
 S     28  11  10     3.274022583528   120.11719272   187.26696987
 C     31  30  29     2.692927535733   133.58498014   174.46751272
 S     33  31  30     3.279434287176   114.20995312   189.07750213
 C     34  33  31     3.283877544178    93.43296261   175.85192799
 C     35  34  33     2.623118350946   110.20012714     1.11038249
 C     33  31  30     2.634105597666   135.61049106     5.40945253
 C     36  35  34     2.765447361877   124.39495564   181.95469539
 C     38  36  35     2.781313723061   115.29059589   177.17653213
 C     39  38  36     2.641003606252   122.50263051     2.42563013
 C     37  33  31     2.756425120069   125.33749624     5.96862401
 C     35  34  33     2.696941317103   113.78861797   182.47722152
 C     42  35  34     2.606568407959   135.14505855   194.27278315
 C     43  42  35     2.643192814102   113.54470975   176.68369565
 S     42  35  34     3.296591012389   114.64748409    11.54243989
 O     38  36  35     2.308118503273   123.75544414   357.81554715
 O     41  37  33     2.309952986493   124.33226316     4.81387099
 F     16  15  13     2.546220491094   122.06286712   180.06836871
 F     20  19  14     2.550638407163   122.04701639   180.60962676
 C     39  38  36     2.635532350666   118.70295955   182.48812744
 C     50  39  38     2.603298748833   121.09122601   179.99499302
 C     51  50  39     2.653394517924   120.31853187     1.85291741
 C     52  51  50     2.620307476214   118.56390645   357.31737941
 S     52  51  50     3.315092437343   117.19520480   177.86366859
 C     54  52  51     3.448433929577   104.76505471   192.98203161
 C     55  54  52     2.865540184573   112.24698401    70.54437537
 S     51  50  39     3.362575643302   119.52154438   181.00604784
 C     57  51  50     3.462575832838    99.35209943   105.19351783
 C     58  57  51     2.863355056092   111.78389490   293.67037532
 C     45  42  35    10.849748573986   155.13072089   190.28167812
 C     60  45  42     2.623673112637    30.60602604   349.40745434
 C     61  60  45     2.678282889313   124.00770596   177.01984218
 C     62  61  60     2.666954195891   119.49585024     0.28410378
 C     63  62  61     2.629122622002   116.73778029     1.36926001
 C     60  45  42     2.657870202314   146.77981610   351.46982298
 S     61  60  45     3.275139199844   124.48337317   359.76503796
 C     66  61  60     3.308046102237    91.19149629   178.76066474
 C     67  66  61     2.580623361973   112.16718393   359.82347370
 S     64  63  62     3.302135102171   125.76846854   181.49126587
 C     69  64  63     3.308041547571    91.06791129   177.76568095
 C     70  69  64     2.580162882215   112.01931431     0.69194290
 C     60  45  42     2.739698381416    91.06851198   169.04556429
 C     63  62  61     2.738871568402   121.19729216   182.66439869
 C     72  60  45     2.582498542233   128.55554852   222.89891470
 C     74  72  60     2.661304058146   111.93236029   177.71396608
 C     75  74  72     2.575964660198   115.58777103     0.46121394
 S     76  75  74     3.267443505305   109.25989019   359.95418113
 C     73  63  62     2.581324347038   128.05231871    42.51926283
 C     78  73  63     2.661524585645   111.95083534   179.59751713
 C     79  78  73     2.576001280767   115.41169912     0.57485869
 S     80  79  78     3.269124253470   109.43637441   359.43311248
 C     76  75  74     2.813620035501   129.11017219   182.08935083
 C     82  76  75     2.889000244263   111.37198510   116.45841571
 C     80  79  78     2.814363001401   128.52866789   180.90084629
 C     84  80  79     2.889474816884   111.43182075   114.87008278
 C     44  43  42     2.605082243892   113.60611561     0.08227257
 C     70  69  64     2.688536322961   122.83049301   183.92369404
 C     87  70  69     2.601791997593   130.91864091   357.37034427
 C     88  87  70     2.640616606763   113.70499157   175.74715954
 C     89  88  87     2.605586176236   113.57020889   359.78390982
 S     87  70  69     3.278116696417   118.31481838   173.58109145
 C     90  89  88     2.695563163758   134.03043680   185.36550406
 S     92  90  89     3.287541173708   114.31063238   164.70187572
 C     93  92  90     3.277906435954    93.22540792   180.75222437
 C     94  93  92     2.628590463821   110.33128919   359.34175016
 C     92  90  89     2.626639394209   135.40731903   345.15534253
 C     95  94  93     2.759312797013   124.62487414   184.34938802
 C     97  95  94     2.794500612593   115.36355531   174.96891218
 C     98  97  95     2.640761470186   122.38476649     2.24347748
 C     96  92  90     2.766752655730   125.09248089   357.96366867
 C     94  93  92     2.695065972675   114.87917509   178.72506372
 C    101  94  93     2.604461786231   132.78005783   202.66112923
 C    102 101  94     2.636694813598   113.43422482   174.52153222
 S    101  94  93     3.308510807795   116.63922340    17.31323379
 O     97  95  94     2.308405582360   124.15382077   356.15343951
 O    100  96  92     2.307961131032   124.01484200     6.47062204
 F     75  74  72     2.549598673512   121.89124326   180.08343871
 F     79  78  73     2.543849134197   122.00528515   180.31691796
 C     98  97  95     2.626902830706   117.59307548   182.14922821
 C    109  98  97     2.620463216342   121.21719626   179.72280795
 C    110 109  98     2.653823264569   118.54074825     1.94881764
 C    111 110 109     2.603336538037   120.33772171   357.61271443
 S    111 110 109     3.362269590849   120.15883501   178.58901395
 C    113 111 110     3.462339195294    99.46777496   284.46555689
 C    114 113 111     2.863274727879   111.73187638   292.97501303
 S    110 109  98     3.314470727365   124.24707154   181.40714192
[...]
  59   33563.0    297.9   0.073560685   0.01687   0.06787   0.11059  -0.00612
  60   33621.0    297.4   0.044098233   0.01013   0.08604  -0.05048   0.01345
  61   33729.3    296.5   0.034432303   0.00794   0.00416   0.08273   0.03280
  62   33827.7    295.6   0.059566647   0.01377   0.08755  -0.05789  -0.05249
  63   33936.9    294.7   0.007741312   0.00180  -0.01220  -0.03594  -0.01883
  64   34062.4    293.6   0.096014838   0.02235   0.06159  -0.13606   0.00680
  65   34149.4    292.8   0.057932138   0.01352   0.00100   0.11458   0.01981
  66   34189.7    292.5   0.020003336   0.00467   0.04115   0.05400  -0.00801
  67   34232.1    292.1   0.023597625   0.00552  -0.05005   0.05476  -0.00422
  68   34309.9    291.5   0.002300201   0.00054  -0.00323  -0.02300  -0.00011
  69   34372.8    290.9   0.027912797   0.00656   0.04623   0.06636  -0.00398
  70   34431.2    290.4   0.020232120   0.00476  -0.06420  -0.00443   0.02489
  71   34551.4    289.4   0.017390686   0.00411  -0.06273   0.00678   0.01123
  72   34628.2    288.8   0.072172486   0.01708   0.10938  -0.05417   0.04671
  73   34694.7    288.2   0.007408718   0.00176  -0.02131   0.01600   0.03235
  74   34867.0    286.8   0.107432102   0.02560  -0.11286   0.11333  -0.00435
  75   34998.8    285.7   0.066924147   0.01601  -0.11624   0.00287   0.04988
  76   35051.6    285.3   0.016299506   0.00390   0.06146  -0.00692  -0.00891
  77   35347.0    282.9   0.028176398   0.00681   0.07880  -0.01857  -0.01587
  78   35374.4    282.7   0.010845737   0.00262   0.04286  -0.02317  -0.01576
  79   35655.3    280.5   0.016520387   0.00403   0.01778  -0.06010   0.00986
  80   35709.2    280.0   0.029095092   0.00710   0.01688   0.08087  -0.01662
  81   35804.9    279.3   0.000337636   0.00008   0.00258  -0.00771   0.00406
  82   35958.8    278.1   0.008241993   0.00203   0.02771   0.03542  -0.00177
  83   36060.8    277.3   0.008345916   0.00206  -0.02527   0.03172  -0.02030
  84   36117.5    276.9   0.007902935   0.00195  -0.03587   0.00424  -0.02542
  85   36281.7    275.6   0.048186460   0.01195  -0.10485   0.00607   0.03031
  86   36377.0    274.9   0.009659408   0.00240  -0.04715   0.01335   0.00003
  87   36553.3    273.6   0.039535025   0.00988   0.09813   0.01339  -0.00822
  88   36687.1    272.6   0.003625451   0.00091  -0.02862   0.00822  -0.00470
  89   36860.5    271.3   0.000961501   0.00024  -0.00795  -0.00954   0.00938
  90   37011.0    270.2   0.012006972   0.00304   0.04330  -0.03352   0.00623
  91   37071.7    269.7   0.048224979   0.01222  -0.07244  -0.07980   0.02458
  92   37161.3    269.1   0.019412406   0.00493   0.04987   0.04604  -0.01799
  93   37293.9    268.1   0.010355067   0.00264   0.04771  -0.00830  -0.01716
  94   37334.5    267.8   0.029971817   0.00765   0.05809   0.06266  -0.01863
  95   37454.6    267.0   0.026466571   0.00678  -0.07641   0.01041   0.02877
  96   37484.4    266.8   0.002040959   0.00052   0.00971   0.02005  -0.00517
  97   37550.9    266.3   0.007408549   0.00190  -0.03739   0.01631   0.01540
  98   37606.3    265.9   0.005968541   0.00153  -0.00648  -0.02139   0.03216
  99   37703.2    265.2   0.005147800   0.00133   0.01251   0.03284  -0.00958
 100   37739.7    265.0   0.014145765   0.00365  -0.02666  -0.05373  -0.00711
 101   37776.9    264.7   0.012124514   0.00313  -0.05319  -0.01674   0.00463
 102   37860.9    264.1   0.007124975   0.00184   0.01757   0.03414   0.01923
 103   37873.6    264.0   0.002966602   0.00077  -0.00733  -0.02639   0.00422
 104   37956.1    263.5   0.022892947   0.00594  -0.07010  -0.03165   0.00480
 105   37995.3    263.2   0.004530500   0.00118   0.00521   0.01535  -0.03023
 106   38022.1    263.0   0.003335838   0.00087  -0.00733  -0.01280   0.02548
 107   38149.8    262.1   0.011998114   0.00313   0.05300   0.01590  -0.00817
 108   38240.7    261.5   0.021519661   0.00562   0.06872  -0.01497   0.02603
 109   38359.3    260.7   0.006576091   0.00172  -0.02103   0.02980   0.01984
 110   38407.5    260.4   0.014193521   0.00373   0.01160   0.05803  -0.01496
 111   38465.9    260.0   0.001110050   0.00029  -0.00480  -0.01268  -0.01039
 112   38498.8    259.7   0.005559034   0.00146  -0.03133  -0.01204   0.01833
 113   38540.0    259.5   0.042274496   0.01114   0.03783  -0.09299  -0.03252
 114   38616.3    259.0   0.007757539   0.00205   0.03651  -0.00589  -0.02607
 115   38674.7    258.6   0.012605296   0.00333  -0.05249   0.02377  -0.00343
 116   38701.3    258.4   0.011654492   0.00308   0.05222   0.00126   0.01883
 117   38784.3    257.8   0.012158485   0.00322  -0.03119   0.03139   0.03557
 118   38825.8    257.6   0.032059749   0.00851  -0.08681   0.01945   0.02436
 119   38834.1    257.5   0.107913719   0.02864   0.16693  -0.01570  -0.02302
 120   38915.8    257.0   0.021791843   0.00580   0.04931  -0.04561  -0.03583
 121   38929.2    256.9   0.001090616   0.00029  -0.00926  -0.01036  -0.00986
 122   38948.7    256.7   0.021480065   0.00572   0.02469  -0.07126   0.00557
 123   38995.8    256.4   0.002584900   0.00069   0.00196   0.01939  -0.01758
 124   39030.8    256.2   0.006230980   0.00166  -0.01774  -0.01626   0.03291
 125   39084.1    255.9   0.030949369   0.00827   0.00351  -0.08588  -0.02966
 126   39123.2    255.6   0.008724897   0.00233  -0.02150   0.03913   0.01842
 127   39175.5    255.3   0.009162852   0.00245   0.01236  -0.00291  -0.04788
 128   39226.4    254.9   0.006085616   0.00163   0.01294  -0.03808  -0.00376
 129   39234.3    254.9   0.009366201   0.00251  -0.02902   0.04009   0.00788
 130   39344.5    254.2   0.001942097   0.00052   0.00035   0.01680   0.01549
 131   39442.5    253.5   0.011614086   0.00313  -0.02500  -0.04008   0.02999
 132   39490.6    253.2   0.045978818   0.01241   0.09973   0.04828   0.01151
 133   39537.7    252.9   0.011047303   0.00299  -0.04512  -0.02681   0.01518
 134   39582.2    252.6   0.024171084   0.00654  -0.07865   0.00839  -0.01683
 135   39679.0    252.0   0.006830715   0.00185   0.01995  -0.03311  -0.01893
 136   39714.9    251.8   0.031286148   0.00849   0.09029   0.00168  -0.01835
 137   39747.7    251.6   0.000860123   0.00023   0.01469  -0.00123   0.00404
 138   39819.2    251.1   0.002682042   0.00073   0.00047  -0.00570   0.02641
 139   39883.9    250.7   0.009209677   0.00251   0.00305  -0.04701  -0.01707
 140   39914.1    250.5   0.043275012   0.01181   0.07024  -0.07560  -0.03401
 141   39965.6    250.2   0.017425717   0.00476   0.02637  -0.05260  -0.03602
 142   39988.9    250.1   0.012384799   0.00338   0.05187  -0.00769   0.02520
 143   40044.7    249.7   0.011998394   0.00328  -0.04092  -0.00906   0.03908
 144   40070.8    249.6   0.015817636   0.00433   0.04373   0.04918   0.00067
 145   40131.4    249.2   0.006446836   0.00177   0.02328  -0.00682  -0.03435
 146   40164.5    249.0   0.008489445   0.00233  -0.03427  -0.02693   0.02076
 147   40245.6    248.5   0.008573893   0.00236  -0.04672   0.00961  -0.00912
 148   40294.0    248.2   0.039092180   0.01077  -0.01525   0.10260  -0.00265

-------------------------------------------------------------------
                             CD SPECTRUM
-------------------------------------------------------------------
State   Energy Wavelength       R         MX        MY        MZ   
        (cm-1)   (nm)       (1e40*cgs)   (au)      (au)      (au)  
-------------------------------------------------------------------
   0   19129.1    522.8    754.11257   2.15017   1.49358  15.65245
   1   20198.0    495.1    -548.39096   0.20178  -0.30359   0.48840
   2   20827.1    480.1    -106.24345   0.34238   1.23120   4.06306
   3   21962.6    455.3    -57.91743   0.56870  -0.51661   0.53208
   4   22285.6    448.7     43.32936   0.14406  -0.39893  -0.79286
   5   23663.4    422.6    128.44668   1.22316  -0.72968   0.93913
   6   24172.3    413.7    285.47293  -0.02141  -0.92117  -1.72963
   7   24549.7    407.3    -354.83519  -0.60153  -1.20021  -4.80860
   8   24776.1    403.6      9.67896  -0.01492   0.65441   1.58860
   9   25218.4    396.5    -327.89256   0.55401   0.05915   5.15747
  10   25652.0    389.8     21.28287  -0.00011  -0.79285  -2.94978
  11   25761.1    388.2     37.88891   0.11926  -0.64331  -1.71024
  12   26371.4    379.2    -93.97890  -0.72931  -0.63748  -4.03237
  13   26948.5    371.1    232.10497   0.48130   0.78615   3.22070
  14   27327.1    365.9    -128.34672   0.77236   0.11861   0.72792
  15   27372.0    365.3    -43.63453  -0.48826   0.32028   0.87145
  16   27533.8    363.2    -46.11929   0.57573  -0.22949  -0.85094
  17   27820.2    359.5     42.31708   0.60088  -0.07806   2.27142
  18   28086.1    356.0    -17.50636  -0.38093  -0.02297  -0.62341
  19   28209.6    354.5    -31.85634  -0.04994  -0.71918  -3.05417
  20   28358.7    352.6    -180.89573  -0.28528  -0.69739  -3.55311
  21   28593.1    349.7    -38.44013  -0.15974  -0.38762  -1.01558
  22   28777.8    347.5    -119.58133   0.22337  -0.44206  -0.52416
  23   28839.4    346.7     96.12236  -0.62299   0.03763  -1.84323
  24   28958.8    345.3      1.75505  -0.00750  -0.16233  -0.37844
  25   28976.8    345.1    -168.72751  -0.39953  -1.09808  -3.05340
  26   29240.6    342.0    155.98539  -0.10325   0.55806   1.01749
  27   29363.4    340.6     48.01005  -0.75548   0.18587  -0.81880
  28   29542.9    338.5    -86.34321  -0.16985   0.19496   1.27644
  29   29594.5    337.9     14.80074  -0.59431  -0.11240  -1.26421
  30   29714.2    336.5     82.05176  -0.83223  -0.95986  -3.36456
  31   29877.0    334.7    -85.46245   0.45186  -0.03516  -0.26677
  32   30221.4    330.9     12.60275  -0.44934  -0.10241  -0.54096
  33   30350.0    329.5    167.50586   0.58138  -0.23088   2.04277
  34   30443.1    328.5    103.57482   0.23191  -1.13902  -1.50942
  35   30682.6    325.9    -45.62400   0.07625   0.00166   1.21695
  36   31018.4    322.4     66.19022  -0.54018  -0.53810  -1.21238
  37   31043.2    322.1    -54.03974  -0.30516   0.13696  -0.33042
  38   31172.5    320.8     -7.64172   0.29334  -0.75114  -0.13477
  39   31305.9    319.4     -0.83351   0.31850  -0.11036   0.59250
  40   31414.3    318.3    -55.36643  -0.08026   0.80934   0.28874
  41   31545.2    317.0    154.79916   0.33839  -0.93355  -1.43366
  42   31733.8    315.1    129.62700  -0.60878  -0.38762  -2.00573
  43   31825.6    314.2     16.45479   0.91504   0.26805   3.11196
  44   31900.3    313.5    -81.90502  -0.62148   0.06828   0.38975
  45   32013.3    312.4    -11.96617  -0.35194  -0.61586  -1.77657
  46   32039.7    312.1     82.44183   0.30431   0.89528   0.71066
  47   32154.9    311.0     49.59212  -0.62916   0.33311  -0.60106
  48   32268.9    309.9     39.12041   0.33830   0.16821   0.60284
  49   32380.2    308.8     37.90894   0.71707   1.25687   4.92060
  50   32544.6    307.3    -34.48414  -0.36624  -0.04634  -0.39032
  51   32814.1    304.7    -53.13309   0.25884   0.08168   1.18291
  52   32970.7    303.3    -11.69489   0.24370  -0.20222  -0.20484
  53   33035.7    302.7    -16.03064   0.16033   0.19565  -0.02081
  54   33146.7    301.7    -24.91459  -0.08913  -0.39272  -1.74168
  55   33179.3    301.4     -5.84563  -0.04934   0.03631   0.02806
  56   33234.2    300.9    -151.90878   0.41081   0.58493   3.01170
  57   33258.8    300.7      7.74538   0.19176   0.28391   1.36793
  58   33388.4    299.5     -6.47946  -0.21418  -0.45748  -1.34419
  59   33563.0    297.9     27.11071  -0.61511   0.19154  -1.51135
  60   33621.0    297.4     24.62645   0.00368   0.54780   0.81102
  61   33729.3    296.5    151.66598  -0.54999  -0.10243  -2.52097
  62   33827.7    295.6    -57.18641   0.19128   0.04659  -0.39155
  63   33936.9    294.7    -127.31608  -0.46923  -0.34149  -3.14691
  64   34062.4    293.6     92.08408   0.27282   0.62117   1.85186
  65   34149.4    292.8    -122.43794  -0.00744   0.34583   1.70148
  66   34189.7    292.5     -4.88034  -0.11126   0.01453  -0.81902
  67   34232.1    292.1     36.64135   0.15177  -0.31627  -0.30644
  68   34309.9    291.5     -7.44942  -0.20315  -0.19878  -0.02447
  69   34372.8    290.9    -13.91958   0.13003   0.05685   0.61407
  70   34431.2    290.4     24.55517  -0.25929  -0.30255  -1.29587
  71   34551.4    289.4    -29.71923  -0.96084  -0.46609  -3.32561
  72   34628.2    288.8    -52.12131  -0.27804   1.07115   2.57676
  73   34694.7    288.2     19.08240  -0.42636   0.19334  -0.82358
  74   34867.0    286.8     28.55953  -0.31864  -0.54370  -2.47743
  75   34998.8    285.7     -9.50406  -0.48111  -0.00454  -1.04870
  76   35051.6    285.3     32.51136  -0.08873   0.38768   1.19536
  77   35347.0    282.9      2.39381  -0.13925  -0.01101  -0.48508
  78   35374.4    282.7     30.22185  -0.33147   0.07751   0.16825
  79   35655.3    280.5     -2.73466   0.14375   0.20168   0.90691
  80   35709.2    280.0    -10.75302  -0.03153   0.04852  -0.20112
  81   35804.9    279.3     -1.59148  -0.16283  -0.06607   0.08256
  82   35958.8    278.1     -6.66024   0.03086   0.05068  -0.49411
  83   36060.8    277.3     29.16932   0.36009  -0.17778   0.11573
  84   36117.5    276.9    -26.04998   0.02565  -0.21064  -0.77559
  85   36281.7    275.6     34.40409  -0.48792  -0.49862  -2.28895
  86   36377.0    274.9      5.00409  -0.05970  -0.40127  -1.02873
  87   36553.3    273.6      1.53894   0.05053   0.38505   1.44864
  88   36687.1    272.6      2.65197   0.05149  -0.12609  -0.56490
  89   36860.5    271.3      0.40103  -0.02660   0.03478  -0.00359
  90   37011.0    270.2     -1.17093   0.02235   0.22998   0.97200
  91   37071.7    269.7     31.44807  -0.06138  -0.03765  -0.97122
  92   37161.3    269.1     -6.09140  -0.05394  -0.10139  -0.64628
  93   37293.9    268.1     -3.08492   0.34717   0.01842   0.75994
  94   37334.5    267.8     -5.30864   0.22676   0.34535   1.70838
  95   37454.6    267.0     10.79809  -0.20586   0.14690  -0.79282
  96   37484.4    266.8      3.03303  -0.03639  -0.04574   0.16461
  97   37550.9    266.3      3.49480  -0.24926   0.07100  -0.85179
  98   37606.3    265.9    -13.19430   0.02053   0.24970   0.42572
  99   37703.2    265.2    -15.37178   0.28573   0.45270   1.13925
 100   37739.7    265.0    -26.31774   0.32562  -0.39172   0.05952
 101   37776.9    264.7      1.95234   0.18323  -0.31089   0.77199
 102   37860.9    264.1    -60.69559  -0.12904   0.41813   1.20641
 103   37873.6    264.0     21.21513   0.65652   0.28265   1.10507
 104   37956.1    263.5    -56.14686  -0.49927  -0.31368  -0.59203
 105   37995.3    263.2     13.76743   0.41838  -0.05542   0.37754
 106   38022.1    263.0     16.11444  -0.33610   0.31817  -0.31595
 107   38149.8    262.1    -11.54687   0.18440   0.18882   1.01203
 108   38240.7    261.5     38.99570  -0.34681   0.73876   0.51019
 109   38359.3    260.7      2.29161  -0.21906   0.19799  -0.53602
 110   38407.5    260.4     12.80023   0.02941   0.06350   0.73489
 111   38465.9    260.0     -2.05389   0.22880  -0.18506  -0.03955
 112   38498.8    259.7    -17.41840   0.23272  -0.14353   0.98871
 113   38540.0    259.5    -73.02913   0.60362  -0.14356  -0.26143
 114   38616.3    259.0    -30.68240   0.09672  -0.21302  -0.51399
 115   38674.7    258.6     19.98546   0.10955  -0.50358  -0.24384
 116   38701.3    258.4     64.29367  -0.53808   0.45692  -0.79981
 117   38784.3    257.8    -13.14778  -0.14349   0.29122  -0.12036
 118   38825.8    257.6    -16.00562  -0.13656   0.07525  -0.11207
 119   38834.1    257.5     74.00867  -0.19984   0.41267   0.47368
 120   38915.8    257.0     52.13274   0.19115   0.09297   1.23459
 121   38929.2    256.9    -24.41275  -0.03102  -0.35637  -0.91821
 122   38948.7    256.7      8.91280   0.06080   0.11490   0.11330
 123   38995.8    256.4     33.32766   0.12772  -0.32569   0.72624
 124   39030.8    256.2    -13.00698  -0.07856   0.04571   0.21023
 125   39084.1    255.9    -35.24863  -0.21587  -0.06599  -0.66774
 126   39123.2    255.6     31.09229  -0.70018  -0.51426  -1.01243
 127   39175.5    255.3     -2.41549   0.41378   0.46525   0.05230
 128   39226.4    254.9     -0.71582  -0.10317  -0.03992   0.16129
 129   39234.3    254.9     34.07890  -0.23616  -0.47776  -0.94909
 130   39344.5    254.2     -0.61239  -0.08971   0.00474  -0.01235
 131   39442.5    253.5    -12.33065   0.02756  -0.04621   0.17983
 132   39490.6    253.2    -16.20507  -0.28424   0.46062   1.27331
 133   39537.7    252.9     -3.59256  -0.60208   0.04386  -1.83645
 134   39582.2    252.6     51.10761   0.22180  -0.14530   0.78217
 135   39679.0    252.0     22.02493   0.69595  -0.03318   1.23895
 136   39714.9    251.8     -4.17417   0.12547   0.50168   0.49838
 137   39747.7    251.6    -11.86661   0.04902  -0.06894   1.12256
 138   39819.2    251.1      8.74326  -0.26436   0.10993  -0.20931
 139   39883.9    250.7    -44.88678  -0.20974  -0.37864  -0.66367
 140   39914.1    250.5     60.83885   0.19299   0.29119   0.98068
 141   39965.6    250.2    -27.64539  -0.01619  -0.20173  -0.22897
 142   39988.9    250.1    -31.11434   0.10349   0.45950   0.72164
 143   40044.7    249.7     34.81120  -0.13129  -0.01311  -0.76271
 144   40070.8    249.6    -26.14971   0.16507   0.18023   0.44546
 145   40131.4    249.2    -10.50586   0.18778   0.16568  -0.09588
 146   40164.5    249.0     -7.02927  -0.50796   0.16985  -0.27568
 147   40245.6    248.5     12.65626   0.21914  -0.00855  -0.29095
 148   40294.0    248.2     18.98090   0.20756  -0.09806  -0.17445

sTD-DFT done

Total run time:       59.010 sec

           *** ORCA-CIS/TD-DFT FINISHED WITHOUT ERROR ***

-------------------------   --------------------
FINAL SINGLE POINT ENERGY    -17143.844153452093
-------------------------   --------------------


                            ***************************************
                            *     ORCA property calculations      *
                            ***************************************

                                    ---------------------
                                    Active property flags
                                    ---------------------
   (+) Dipole Moment


------------------------------------------------------------------------------
                       ORCA ELECTRIC PROPERTIES CALCULATION
------------------------------------------------------------------------------

Dipole Moment Calculation                       ... on
Quadrupole Moment Calculation                   ... off
Polarizability Calculation                      ... off
GBWName                                         ... PBN-S.gbw
Electron density file                           ... PBN-S.scfp
The origin for moment calculation is the CENTER OF MASS  = ( 3.776085, 10.598668 -3.322102)

-------------
DIPOLE MOMENT
-------------
                                X             Y             Z
Electronic contribution:    -33.11859      29.59640      27.09656
Nuclear contribution   :     35.06550     -30.08350     -28.64562
                        -----------------------------------------
Total Dipole Moment    :      1.94691      -0.48710      -1.54906
                        -----------------------------------------
Magnitude (a.u.)       :      2.53521
Magnitude (Debye)      :      6.44399



--------------------
Rotational spectrum 
--------------------
 
Rotational constants in cm-1:     0.000095     0.000085     0.000046 
Rotational constants in MHz :     2.836651     2.555306     1.371344 

 Dipole components along the rotational axes: 
x,y,z [a.u.] :     1.785708     1.280645    -1.264315 
x,y,z [Debye]:     4.538909     3.255140    -3.213633 

 

Timings for individual modules:

Sum of individual times         ...    20664.694 sec (= 344.412 min)
GTO integral calculation        ...       20.611 sec (=   0.344 min)   0.1 %
SCF iterations                  ...    20584.869 sec (= 343.081 min)  99.6 %
CIS module                      ...       59.215 sec (=   0.987 min)   0.3 %
                             ****ORCA TERMINATED NORMALLY****
TOTAL RUN TIME: 0 days 5 hours 44 minutes 27 seconds 174 msec
