
                                 *****************
                                 * O   R   C   A *
                                 *****************

           --- An Ab Initio, DFT and Semiempirical electronic structure package ---

                  #######################################################
                  #                        -***-                        #
                  #          Department of theory and spectroscopy      #
                  #               Directorship: Frank Neese             #
                  #        Max Planck Institute fuer Kohlenforschung    #
                  #                Kaiser Wilhelm Platz 1               #
                  #                 D-45470 Muelheim/Ruhr               #
                  #                      Germany                        #
                  #                                                     #
                  #                  All rights reserved                #
                  #                        -***-                        #
                  #######################################################


                         Program Version 4.2.0 -  RELEASE  -


 With contributions from (in alphabetic order):
   Daniel Aravena         : Magnetic Suceptibility
   Michael Atanasov       : Ab Initio Ligand Field Theory (pilot matlab implementation)
   Alexander A. Auer      : GIAO ZORA, VPT2
   Ute Becker             : Parallelization
   Giovanni Bistoni       : ED, misc. LED, open-shell LED, HFLED
   Martin Brehm           : Molecular dynamics
   Dmytro Bykov           : SCF Hessian
   Vijay G. Chilkuri      : MRCI spin determinant printing, contributions to CSF-ICE
   Dipayan Datta          : RHF DLPNO-CCSD density
   Achintya Kumar Dutta   : EOM-CC, STEOM-CC
   Dmitry Ganyushin       : Spin-Orbit,Spin-Spin,Magnetic field MRCI
   Miquel Garcia          : C-PCM Hessian, Gaussian charge scheme
   Yang Guo               : DLPNO-NEVPT2, CIM, IAO-localization
   Andreas Hansen         : Spin unrestricted coupled pair/coupled cluster methods
   Benjamin Helmich-Paris : CASSCF linear response (MC-RPA)
   Lee Huntington         : MR-EOM, pCC
   Robert Izsak           : Overlap fitted RIJCOSX, COSX-SCS-MP3, EOM
   Christian Kollmar      : KDIIS, OOCD, Brueckner-CCSD(T), CCSD density
   Simone Kossmann        : Meta GGA functionals, TD-DFT gradient, OOMP2, MP2 Hessian
   Martin Krupicka        : AUTO-CI
   Lucas Lang             : DCDCAS
   Dagmar Lenk            : GEPOL surface, SMD
   Dimitrios Liakos       : Extrapolation schemes; Compound Job, initial MDCI parallelization
   Dimitrios Manganas     : Further ROCIS development; embedding schemes
   Dimitrios Pantazis     : SARC Basis sets
   Taras Petrenko         : DFT Hessian,TD-DFT gradient, ASA, ECA, R-Raman, ABS, FL, XAS/XES, NRVS
   Peter Pinski           : DLPNO-MP2, DLPNO-MP2 Gradient
   Christoph Reimann      : Effective Core Potentials
   Marius Retegan         : Local ZFS, SOC
   Christoph Riplinger    : Optimizer, TS searches, QM/MM, DLPNO-CCSD(T), (RO)-DLPNO pert. Triples
   Tobias Risthaus        : Range-separated hybrids, TD-DFT gradient, RPA, STAB
   Michael Roemelt        : Original ROCIS implementation
   Masaaki Saitow         : Open-shell DLPNO-CCSD energy and density
   Barbara Sandhoefer     : DKH picture change effects
   Avijit Sen             : IP-ROCIS
   Kantharuban Sivalingam : CASSCF convergence, NEVPT2, FIC-MRCI
   Bernardo de Souza      : ESD, SOC TD-DFT
   Georgi Stoychev        : AutoAux, RI-MP2 NMR
   Willem Van den Heuvel  : Paramagnetic NMR
   Boris Wezisla          : Elementary symmetry handling
   Frank Wennmohs         : Technical directorship


 We gratefully acknowledge several colleagues who have allowed us to
 interface, adapt or use parts of their codes:
   Stefan Grimme, W. Hujo, H. Kruse,             : VdW corrections, initial TS optimization,
                  C. Bannwarth                     DFT functionals, gCP, sTDA/sTD-DF
   Ed Valeev, F. Pavosevic, A. Kumar             : LibInt (2-el integral package), F12 methods
   Garnet Chan, S. Sharma, J. Yang, R. Olivares  : DMRG
   Ulf Ekstrom                                   : XCFun DFT Library
   Mihaly Kallay                                 : mrcc  (arbitrary order and MRCC methods)
   Andreas Klamt, Michael Diedenhofen            : otool_cosmo (COSMO solvation model)
   Jiri Pittner, Ondrej Demel                    : Mk-CCSD
   Frank Weinhold                                : gennbo (NPA and NBO analysis)
   Christopher J. Cramer and Donald G. Truhlar   : smd solvation model
   Lars Goerigk                                  : TD-DFT with DH, B97 family of functionals
   V. Asgeirsson, H. Jonsson                     : NEB implementation
   FAccTs GmbH                                   : IRC, NEB, NEB-TS, Multilevel, MM, QM/MM, CI optimization
   S Lehtola, MJT Oliveira, MAL Marques          : LibXC Library


 Your calculation uses the libint2 library for the computation of 2-el integrals
 For citations please refer to: http://libint.valeyev.net

 Your ORCA version has been built with support for libXC version: 4.2.3
 For citations please refer to: https://tddft.org/programs/libxc/

 This ORCA versions uses:
   CBLAS   interface :  Fast vector & matrix operations
   LAPACKE interface :  Fast linear algebra routines
   SCALAPACK package :  Parallel linear algebra routines


XCFun DFT library Copyright 2009-2010 Ulf Ekstrom and contributors.
See http://admol.org/xcfun for more information. This is free soft-
ware; see the source code for copying conditions. There is ABSOLUTELY
NO WARRANTY; not even for MERCHANTABILITY or FITNESS FOR A PARTICULAR
PURPOSE. For details see the documentation. Scientific users of this 
library should cite U. Ekstrom, L. Visscher, R. Bast, A. J. Thorvald-
sen and K. Ruud; J.Chem.Theor.Comp. 2010, DOI: 10.1021/ct100117s
XCFun Version 0.99 
----- Orbital basis set information -----
Your calculation utilizes the basis: def2-SVP
   F. Weigend and R. Ahlrichs, Phys. Chem. Chem. Phys. 7, 3297 (2005).

----- AuxJ basis set information -----
Your calculation utilizes the auxiliary basis: def2/J
   F. Weigend, Phys. Chem. Chem. Phys. 8, 1057 (2006).

================================================================================
                                        WARNINGS
                       Please study these warnings very carefully!
================================================================================

INFO   : Checking CIS options ...

WARNING: CIS/ROCIS methods need fully converged wavefunctions
  ===> : Setting SCFConvForced true
         You can overwrite this default with %scf ConvForced false 


INFO   : the flag for use of LIBINT has been found!

================================================================================
                                       INPUT FILE
================================================================================
NAME = PBQ-4F.inp
|  1> # ORCA input file
|  2> # SCF done       -563.611399092196          0.000817348316
|  3> ! CAM-B3LYP def2-SVP def2/J RIJCOSX Grid4 TightSCF
|  4> %maxcore 5000
|  5> %tddft
|  6>     Mode sTDDFT
|  7>     Ethresh 5.0
|  8>     maxcore 5000
|  9> end
| 10> * xyz 0 1
| 11>    C        0.70168        -2.00694         0.18635
| 12>    C        1.30009        -3.09755         0.84204
| 13>    C        0.49371        -4.11540         1.40217
| 14>    C       -0.89608        -4.10963         1.34995
| 15>    C       -1.49423        -3.03456         0.66592
| 16>    C       -0.68914        -2.00746         0.11785
| 17>    C        2.68295        -3.32454         1.10401
| 18>    C        2.93132        -4.44843         1.81110
| 19>    S        1.46721        -5.31598         2.20735
| 20>    C       -2.86755        -2.83507         0.38689
| 21>    C       -3.12729        -1.69756        -0.32011
| 22>    S       -1.66369        -0.80449        -0.68340
| 23>    C        1.46941        -0.92889        -0.40658
| 24>    C       -1.67655        -5.13536         2.01201
| 25>    C        1.17814         0.40535        -0.39798
| 26>    C        2.12339         1.15900        -1.12051
| 27>    C        3.12503         0.44096        -1.70173
| 28>    S        2.91209        -1.23657        -1.33543
| 29>    C       -1.43662        -6.47840         2.07407
| 30>    C       -2.38033        -7.14530         2.87894
| 31>    C       -3.32975        -6.35133         3.45247
| 32>    S       -3.06599        -4.70928         2.97665
| 33>    C        4.27839         0.93678        -2.50329
| 34>    C        5.60265         0.73046        -1.76654
| 35>    C       -4.42954        -6.75596         4.37487
| 36>    C       -5.66586        -5.87506         4.23188
| 37>    F        2.03799         2.49778        -1.22931
| 38>    F       -2.35254        -8.47933         3.06211
| 39>    C        4.24261        -4.98574         2.25357
| 40>    C       -4.40018        -1.21610        -0.73345
| 41>    S       -5.82653        -2.18439        -0.50308
| 42>    C       -6.82858        -0.93696        -1.18010
| 43>    C       -6.06712         0.14597        -1.57526
| 44>    C       -4.70381        -0.01448        -1.33369
| 45>    C       -8.24735        -1.12207        -1.24154
| 46>    C       -9.15305        -0.14578        -1.64001
| 47>    C      -10.53318        -0.35313        -1.68019
| 48>    C      -11.13169        -1.55081        -1.30703
| 49>    C      -10.23062        -2.57100        -0.88364
| 50>    C       -8.82629        -2.37545        -0.88194
| 51>    N      -10.73405        -3.72556        -0.43494
| 52>    C       -9.94084        -4.70467        -0.07047
| 53>    C       -8.52482        -4.56888        -0.25358
| 54>    N       -8.02240        -3.40581        -0.59558
| 55>    F       -8.72717         1.07614        -2.01035
| 56>    F      -11.27725         0.69020        -2.09203
| 57>    C      -12.54180        -1.79769        -1.30986
| 58>    C       -7.60096        -5.69952        -0.11666
| 59>    C      -10.55274        -5.89949         0.51707
| 60>    C       -6.34401        -5.51531         0.44707
| 61>    C       -5.48815        -6.59658         0.57681
| 62>    C       -5.88262        -7.85784         0.18285
| 63>    C       -7.14414        -8.05359        -0.38807
| 64>    C       -7.98667        -6.96431        -0.56234
| 65>    C       -9.92357        -6.55082         1.57950
| 66>    C      -10.45954        -7.72408         2.09063
| 67>    C      -11.65627        -8.21919         1.56206
| 68>    C      -12.29364        -7.54869         0.53965
| 69>    C      -11.74627        -6.39452         0.00489
| 70>    S      -13.15836        -3.32810        -0.76663
| 71>    C      -14.83276        -1.53719        -1.57589
| 72>    C      -13.57091        -0.96377        -1.70442
| 73>    O       -9.89561        -8.46270         3.07789
| 74>    C       -8.63272        -8.07718         3.58461
| 75>    C       -8.19252        -9.13597         4.58281
| 76>    O       -7.45530        -9.32770        -0.72761
| 77>    C       -8.76193        -9.61495        -1.19108
| 78>    C       -8.87984       -11.12410        -1.33078
| 79>    C      -19.49457        -4.47096        -0.66084
| 80>    C      -18.08658        -4.46128        -0.63964
| 81>    C      -17.37249        -5.61666        -0.23390
| 82>    C      -17.99063        -6.81019         0.13026
| 83>    C      -19.40149        -6.82653         0.09273
| 84>    C      -20.11100        -5.65544        -0.27493
| 85>    C      -17.22308        -3.38686        -0.95477
| 86>    C      -15.89642        -3.68748        -0.83333
| 87>    S      -15.65131        -5.33767        -0.29921
| 88>    C      -20.28286        -7.88862         0.41268
| 89>    C      -21.60359        -7.56579         0.29921
| 90>    S      -21.83274        -5.90795        -0.21661
| 91>    C      -20.27933        -3.32550        -1.07737
| 92>    C      -17.21334        -7.95329         0.56815
| 93>    C      -21.44304        -2.86399        -0.53092
| 94>    C      -21.95629        -1.75634        -1.23301
| 95>    C      -21.23073        -1.36158        -2.31698
| 96>    S      -19.84417        -2.38333        -2.47898
| 97>    C      -16.09445        -7.93632         1.35440
| 98>    C      -15.61704        -9.23284         1.62115
| 99>    C      -16.31716       -10.24855         1.04162
|100>    S      -17.63264        -9.59126         0.13354
|101>    C      -21.48897        -0.22444        -3.24362
|102>    C      -20.41172         0.85416        -3.12164
|103>    C      -16.10571       -11.71403         1.19537
|104>    C      -17.14729       -12.32205         2.13632
|105>    F      -23.08883        -1.13448        -0.85700
|106>    F      -14.54479        -9.45764         2.40383
|107>    C      -14.79175        -2.82449        -1.08050
|108>    C      -22.73201        -8.38994         0.56706
|109>    S      -22.57637       -10.11492         0.73284
|110>    C      -24.28044       -10.26838         1.04656
|111>    C      -24.90737        -9.03922         0.99845
|112>    C      -24.04073        -7.98656         0.71391
|113>    C      -24.85344       -11.55639         1.30102
|114>    C      -26.13781       -11.76254         1.79049
|115>    C      -26.67785       -13.03126         2.01155
|116>    C      -25.98296       -14.20624         1.74985
|117>    C      -24.66043       -14.02677         1.24929
|118>    C      -24.10153       -12.74044         1.04842
|119>    N      -23.95238       -15.11036         0.91781
|120>    C      -22.74187       -14.99505         0.42593
|121>    C      -22.13921       -13.69941         0.32251
|122>    N      -22.84084       -12.62897         0.61458
|123>    F      -26.93231       -10.71907         2.09188
|124>    F      -27.93401       -13.06549         2.49319
|125>    C      -26.50894       -15.52706         1.91693
|126>    C      -20.76357       -13.50292        -0.14569
|127>    C      -22.09020       -16.23356        -0.01408
|128>    C      -20.48470       -12.44574        -1.00538
|129>    C      -19.21694       -12.31834        -1.54637
|130>    C      -18.23483       -13.23994        -1.24848
|131>    C      -18.49155       -14.28076        -0.35015
|132>    C      -19.75322       -14.39347         0.21737
|133>    C      -21.40179       -16.27394        -1.22661
|134>    C      -20.74881       -17.43577        -1.61467
|135>    C      -20.82296       -18.57001        -0.79926
|136>    C      -21.53745       -18.53218         0.37943
|137>    C      -22.17053       -17.36893         0.78270
|138>    S      -25.53253       -16.91192         1.52932
|139>    C      -27.94642       -17.29310         2.36546
|140>    C      -27.76363       -15.91347         2.34903
|141>    O      -20.00914       -17.56278        -2.74426
|142>    C      -19.79558       -16.42510        -3.55796
|143>    C      -18.82637       -16.82323        -4.65948
|144>    O      -17.46046       -15.12886        -0.11203
|145>    C      -17.68684       -16.27803         0.68403
|146>    C      -16.41780       -17.11424         0.65835
|147>    C      -27.95900       -22.86375         1.94707
|148>    C      -27.21371       -21.67353         1.82626
|149>    C      -25.81964       -21.72698         1.57318
|150>    C      -25.11455       -22.91871         1.45229
|151>    C      -25.86283       -24.10918         1.54781
|152>    C      -27.25473       -24.05448         1.80494
|153>    C      -27.66557       -20.34361         1.99095
|154>    C      -26.68562       -19.40208         1.85098
|155>    S      -25.12846       -20.12770         1.50715
|156>    C      -25.41321       -25.43875         1.37030
|157>    C      -26.39459       -26.37774         1.50881
|158>    S      -27.94874       -25.65196         1.86416
|159>    C      -29.38776       -22.87118         2.18829
|160>    C      -23.67323       -22.93239         1.29571
|161>    C      -30.09884       -23.72856         2.97943
|162>    C      -31.48260       -23.47366         2.92768
|163>    C      -31.86093       -22.45525         2.10457
|164>    S      -30.45645       -21.76161         1.37045
|165>    C      -22.88621       -22.13084         0.51918
|166>    C      -21.51743       -22.41783         0.69071
|167>    C      -21.22839       -23.39901         1.59277
|168>    S      -22.70085       -24.01644         2.25657
|169>    C      -33.23015       -21.92813         1.84789
|170>    C      -33.38848       -20.49997         2.37146
|171>    C      -19.88483       -23.89311         2.01142
|172>    C      -19.88970       -25.37701         2.36031
|173>    F      -32.36855       -24.19111         3.64246
|174>    F      -20.55326       -21.77646         0.00072
|175>    C      -26.82810       -17.98946         1.95484
|176>    C      -26.25361       -27.78958         1.41919
|177>    S      -24.73891       -28.49743         0.93904
|178>    C      -25.38118       -30.09879         1.13772
|179>    C      -26.70522       -30.05405         1.52789
|180>    C      -27.19792       -28.75845         1.67633
|181>    C      -24.53384       -31.23432         0.92296
|182>    C      -24.89085       -32.54827         1.19320
|183>    C      -24.03029       -33.63075         0.99091
|184>    C      -22.73185       -33.49489         0.51647
|185>    C      -22.33247       -32.15629         0.22837
|186>    C      -23.21878       -31.06093         0.39883
|187>    N      -21.07681       -31.92452        -0.17195
|188>    C      -20.68762       -30.71144        -0.48059
|189>    C      -21.63708       -29.63795        -0.47812
|190>    N      -22.83907       -29.83974         0.00700
|191>    F      -26.10911       -32.84358         1.68224
|192>    F      -24.52872       -34.84098         1.30418
|193>    C      -21.81807       -34.58794         0.33515
|194>    C      -21.33853       -28.31501        -1.03722
|195>    C      -19.27656       -30.50943        -0.82474
|196>    C      -21.81198       -27.16769        -0.41201
|197>    C      -21.51310       -25.92522        -0.94612
|198>    C      -20.72588       -25.81453        -2.07277
|199>    C      -20.24854       -26.96281        -2.71252
|200>    C      -20.58184       -28.21113        -2.20487
|201>    C      -18.60952       -29.36510        -0.38664
|202>    C      -17.30214       -29.12636        -0.78655
|203>    C      -16.65166       -30.06368        -1.59542
|204>    C      -17.30341       -31.21321        -1.99053
|205>    C      -18.61673       -31.44233        -1.61566
|206>    S      -20.18375       -34.29371        -0.18998
|207>    C      -19.82946       -35.97140        -0.13365
|208>    C      -20.89599       -36.71849         0.26165
|209>    C      -22.02895       -35.93516         0.52896
|210>    O      -16.58620       -28.02082        -0.46457
|211>    C      -17.22052       -26.98255         0.25789
|212>    C      -16.23840       -25.82743         0.36736
|213>    O      -19.46969       -26.75790        -3.80189
|214>    C      -18.86708       -27.87098        -4.43601
|215>    C      -17.94933       -27.33903        -5.52488
|216>    H        3.46249        -2.65898         0.78248
|217>    H       -3.64700        -3.51422         0.67868
|218>    H        0.35062         0.84776         0.12384
|219>    H       -0.64780        -6.98405         1.54970
|220>    H        4.12483         1.99970        -2.70136
|221>    H        4.31303         0.40965        -3.46042
|222>    H        5.59493         1.26021        -0.81665
|223>    H        6.42719         1.10611        -2.36655
|224>    H        5.76545        -0.32770        -1.57321
|225>    H       -4.06567        -6.70184         5.40734
|226>    H       -4.67981        -7.80046         4.16928
|227>    H       -5.41409        -4.83603         4.43443
|228>    H       -6.43147        -6.18882         4.93671
|229>    H       -6.06790        -5.94333         3.22338
|230>    H        5.04491        -4.32790         1.92907
|231>    H        4.40791        -5.97854         1.83596
|232>    H        4.27250        -5.07421         3.33924
|233>    H       -6.47721         1.02928        -2.02715
|234>    H       -3.95975         0.72416        -1.57527
|235>    H       -6.05711        -4.53367         0.78632
|236>    H       -4.50493        -6.45749         0.99871
|237>    H       -5.23331        -8.71058         0.30122
|238>    H       -8.94237        -7.08070        -1.04695
|239>    H       -9.02409        -6.12537         1.99504
|240>    H      -12.06415        -9.12409         1.98137
|241>    H      -13.22274        -7.93057         0.14479
|242>    H      -12.22670        -5.88353        -0.81261
|243>    H      -15.74166        -1.02995        -1.84367
|244>    H      -13.42045         0.03064        -2.08012
|245>    H       -8.70940        -7.09804         4.07772
|246>    H       -7.90454        -8.00126         2.76408
|247>    H       -8.91940        -9.21321         5.38661
|248>    H       -7.22448        -8.87253         4.99887
|249>    H       -8.11767       -10.10123         4.09001
|250>    H       -8.93228        -9.12947        -2.16215
|251>    H       -9.50732        -9.23967        -0.47561
|252>    H       -8.13626       -11.49189        -2.03246
|253>    H       -9.87149       -11.38344        -1.68972
|254>    H       -8.71304       -11.59890        -0.36792
|255>    H      -17.57029        -2.41472        -1.24774
|256>    H      -19.97014        -8.86432         0.73516
|257>    H      -21.90477        -3.26198         0.35289
|258>    H      -15.64633        -7.05281         1.76835
|259>    H      -22.46694         0.19735        -3.00228
|260>    H      -21.51669        -0.59022        -4.27357
|261>    H      -20.37659         1.24249        -2.10629
|262>    H      -20.62585         1.67571        -3.80000
|263>    H      -19.43618         0.44190        -3.37038
|264>    H      -15.10428       -11.87761         1.59955
|265>    H      -16.17489       -12.20575         0.22377
|266>    H      -17.08161       -11.86580         3.12159
|267>    H      -16.97655       -13.39051         2.23524
|268>    H      -18.14938       -12.16368         1.74242
|269>    H      -25.96118        -8.90221         1.15144
|270>    H      -24.34949        -6.95941         0.63083
|271>    H      -21.26822       -11.75034        -1.25760
|272>    H      -18.99959       -11.50388        -2.21995
|273>    H      -17.25697       -13.18132        -1.70036
|274>    H      -19.96835       -15.16816         0.93512
|275>    H      -21.39214       -15.39660        -1.85353
|276>    H      -20.31386       -19.46581        -1.11562
|277>    H      -21.59831       -19.41407         0.99753
|278>    H      -22.71567       -17.32893         1.71129
|279>    H      -28.86131       -17.76376         2.67619
|280>    H      -28.53029       -15.22243         2.64461
|281>    H      -19.37471       -15.60518        -2.95841
|282>    H      -20.74679       -16.08796        -3.99301
|283>    H      -17.88730       -17.15374        -4.22436
|284>    H      -18.63944       -15.97439        -5.31068
|285>    H      -19.24335       -17.63875        -5.24375
|286>    H      -18.53048       -16.85611         0.28268
|287>    H      -17.92539       -15.98087         1.71503
|288>    H      -16.19192       -17.41206        -0.36171
|289>    H      -16.55182       -18.00346         1.26712
|290>    H      -15.58237       -16.53675         1.04479
|291>    H      -28.68358       -20.08673         2.21259
|292>    H      -24.40162       -25.70734         1.12854
|293>    H      -29.66628       -24.48767         3.60340
|294>    H      -23.25298       -21.39103        -0.16751
|295>    H      -33.94793       -22.58726         2.34085
|296>    H      -33.43234       -21.94139         0.77339
|297>    H      -33.20516       -20.46601         3.44309
|298>    H      -34.39624       -20.14092         2.18044
|299>    H      -32.68237       -19.83677         1.87627
|300>    H      -19.55057       -23.32021         2.88359
|301>    H      -19.18090       -23.69588         1.19856
|302>    H      -20.59474       -25.57217         3.16542
|303>    H      -18.90000       -25.68799         2.68480
|304>    H      -20.17903       -25.97033         1.49607
|305>    H      -27.30458       -30.92784         1.70108
|306>    H      -28.20607       -28.52977         1.97458
|307>    H      -22.39804       -27.26138         0.48730
|308>    H      -21.89170       -25.03132        -0.47543
|309>    H      -20.46854       -24.85167        -2.48434
|310>    H      -20.26756       -29.11120        -2.70789
|311>    H      -19.12417       -28.67663         0.26432
|312>    H      -15.63543       -29.86216        -1.89502
|313>    H      -16.78813       -31.93384        -2.60726
|314>    H      -19.14155       -32.32613        -1.93891
|315>    H      -18.84771       -36.31404        -0.39554
|316>    H      -20.87934       -37.78918         0.36068
|317>    H      -22.96207       -36.35753         0.84950
|318>    H      -17.50009       -27.34034         1.25854
|319>    H      -18.13050       -26.65975        -0.26778
|320>    H      -15.33397       -26.15527         0.87234
|321>    H      -16.68721       -25.01352         0.92927
|322>    H      -15.97232       -25.47168        -0.62402
|323>    H      -19.63932       -28.51870        -4.87370
|324>    H      -18.29168       -28.45606        -3.70439
|325>    H      -18.52126       -26.75303        -6.23898
|326>    H      -17.47218       -28.16681        -6.04109
|327>    H      -17.18530       -26.70268        -5.08719
|328> *
|329> 
|330>                          ****END OF INPUT****
================================================================================

                       ****************************
                       * Single Point Calculation *
                       ****************************

---------------------------------
CARTESIAN COORDINATES (ANGSTROEM)
---------------------------------
  C      0.701680   -2.006940    0.186350
  C      1.300090   -3.097550    0.842040
  C      0.493710   -4.115400    1.402170
  C     -0.896080   -4.109630    1.349950
  C     -1.494230   -3.034560    0.665920
  C     -0.689140   -2.007460    0.117850
  C      2.682950   -3.324540    1.104010
  C      2.931320   -4.448430    1.811100
  S      1.467210   -5.315980    2.207350
  C     -2.867550   -2.835070    0.386890
  C     -3.127290   -1.697560   -0.320110
  S     -1.663690   -0.804490   -0.683400
  C      1.469410   -0.928890   -0.406580
  C     -1.676550   -5.135360    2.012010
  C      1.178140    0.405350   -0.397980
  C      2.123390    1.159000   -1.120510
  C      3.125030    0.440960   -1.701730
  S      2.912090   -1.236570   -1.335430
  C     -1.436620   -6.478400    2.074070
  C     -2.380330   -7.145300    2.878940
  C     -3.329750   -6.351330    3.452470
  S     -3.065990   -4.709280    2.976650
  C      4.278390    0.936780   -2.503290
  C      5.602650    0.730460   -1.766540
  C     -4.429540   -6.755960    4.374870
  C     -5.665860   -5.875060    4.231880
  F      2.037990    2.497780   -1.229310
  F     -2.352540   -8.479330    3.062110
  C      4.242610   -4.985740    2.253570
  C     -4.400180   -1.216100   -0.733450
  S     -5.826530   -2.184390   -0.503080
  C     -6.828580   -0.936960   -1.180100
  C     -6.067120    0.145970   -1.575260
  C     -4.703810   -0.014480   -1.333690
  C     -8.247350   -1.122070   -1.241540
  C     -9.153050   -0.145780   -1.640010
  C    -10.533180   -0.353130   -1.680190
  C    -11.131690   -1.550810   -1.307030
  C    -10.230620   -2.571000   -0.883640
  C     -8.826290   -2.375450   -0.881940
  N    -10.734050   -3.725560   -0.434940
  C     -9.940840   -4.704670   -0.070470
  C     -8.524820   -4.568880   -0.253580
  N     -8.022400   -3.405810   -0.595580
  F     -8.727170    1.076140   -2.010350
  F    -11.277250    0.690200   -2.092030
  C    -12.541800   -1.797690   -1.309860
  C     -7.600960   -5.699520   -0.116660
  C    -10.552740   -5.899490    0.517070
  C     -6.344010   -5.515310    0.447070
  C     -5.488150   -6.596580    0.576810
  C     -5.882620   -7.857840    0.182850
  C     -7.144140   -8.053590   -0.388070
  C     -7.986670   -6.964310   -0.562340
  C     -9.923570   -6.550820    1.579500
  C    -10.459540   -7.724080    2.090630
  C    -11.656270   -8.219190    1.562060
  C    -12.293640   -7.548690    0.539650
  C    -11.746270   -6.394520    0.004890
  S    -13.158360   -3.328100   -0.766630
  C    -14.832760   -1.537190   -1.575890
  C    -13.570910   -0.963770   -1.704420
  O     -9.895610   -8.462700    3.077890
  C     -8.632720   -8.077180    3.584610
  C     -8.192520   -9.135970    4.582810
  O     -7.455300   -9.327700   -0.727610
  C     -8.761930   -9.614950   -1.191080
  C     -8.879840  -11.124100   -1.330780
  C    -19.494570   -4.470960   -0.660840
  C    -18.086580   -4.461280   -0.639640
  C    -17.372490   -5.616660   -0.233900
  C    -17.990630   -6.810190    0.130260
  C    -19.401490   -6.826530    0.092730
  C    -20.111000   -5.655440   -0.274930
  C    -17.223080   -3.386860   -0.954770
  C    -15.896420   -3.687480   -0.833330
  S    -15.651310   -5.337670   -0.299210
  C    -20.282860   -7.888620    0.412680
  C    -21.603590   -7.565790    0.299210
  S    -21.832740   -5.907950   -0.216610
  C    -20.279330   -3.325500   -1.077370
  C    -17.213340   -7.953290    0.568150
  C    -21.443040   -2.863990   -0.530920
  C    -21.956290   -1.756340   -1.233010
  C    -21.230730   -1.361580   -2.316980
  S    -19.844170   -2.383330   -2.478980
  C    -16.094450   -7.936320    1.354400
  C    -15.617040   -9.232840    1.621150
  C    -16.317160  -10.248550    1.041620
  S    -17.632640   -9.591260    0.133540
  C    -21.488970   -0.224440   -3.243620
  C    -20.411720    0.854160   -3.121640
  C    -16.105710  -11.714030    1.195370
  C    -17.147290  -12.322050    2.136320
  F    -23.088830   -1.134480   -0.857000
  F    -14.544790   -9.457640    2.403830
  C    -14.791750   -2.824490   -1.080500
  C    -22.732010   -8.389940    0.567060
  S    -22.576370  -10.114920    0.732840
  C    -24.280440  -10.268380    1.046560
  C    -24.907370   -9.039220    0.998450
  C    -24.040730   -7.986560    0.713910
  C    -24.853440  -11.556390    1.301020
  C    -26.137810  -11.762540    1.790490
  C    -26.677850  -13.031260    2.011550
  C    -25.982960  -14.206240    1.749850
  C    -24.660430  -14.026770    1.249290
  C    -24.101530  -12.740440    1.048420
  N    -23.952380  -15.110360    0.917810
  C    -22.741870  -14.995050    0.425930
  C    -22.139210  -13.699410    0.322510
  N    -22.840840  -12.628970    0.614580
  F    -26.932310  -10.719070    2.091880
  F    -27.934010  -13.065490    2.493190
  C    -26.508940  -15.527060    1.916930
  C    -20.763570  -13.502920   -0.145690
  C    -22.090200  -16.233560   -0.014080
  C    -20.484700  -12.445740   -1.005380
  C    -19.216940  -12.318340   -1.546370
  C    -18.234830  -13.239940   -1.248480
  C    -18.491550  -14.280760   -0.350150
  C    -19.753220  -14.393470    0.217370
  C    -21.401790  -16.273940   -1.226610
  C    -20.748810  -17.435770   -1.614670
  C    -20.822960  -18.570010   -0.799260
  C    -21.537450  -18.532180    0.379430
  C    -22.170530  -17.368930    0.782700
  S    -25.532530  -16.911920    1.529320
  C    -27.946420  -17.293100    2.365460
  C    -27.763630  -15.913470    2.349030
  O    -20.009140  -17.562780   -2.744260
  C    -19.795580  -16.425100   -3.557960
  C    -18.826370  -16.823230   -4.659480
  O    -17.460460  -15.128860   -0.112030
  C    -17.686840  -16.278030    0.684030
  C    -16.417800  -17.114240    0.658350
  C    -27.959000  -22.863750    1.947070
  C    -27.213710  -21.673530    1.826260
  C    -25.819640  -21.726980    1.573180
  C    -25.114550  -22.918710    1.452290
  C    -25.862830  -24.109180    1.547810
  C    -27.254730  -24.054480    1.804940
  C    -27.665570  -20.343610    1.990950
  C    -26.685620  -19.402080    1.850980
  S    -25.128460  -20.127700    1.507150
  C    -25.413210  -25.438750    1.370300
  C    -26.394590  -26.377740    1.508810
  S    -27.948740  -25.651960    1.864160
  C    -29.387760  -22.871180    2.188290
  C    -23.673230  -22.932390    1.295710
  C    -30.098840  -23.728560    2.979430
  C    -31.482600  -23.473660    2.927680
  C    -31.860930  -22.455250    2.104570
  S    -30.456450  -21.761610    1.370450
  C    -22.886210  -22.130840    0.519180
  C    -21.517430  -22.417830    0.690710
  C    -21.228390  -23.399010    1.592770
  S    -22.700850  -24.016440    2.256570
  C    -33.230150  -21.928130    1.847890
  C    -33.388480  -20.499970    2.371460
  C    -19.884830  -23.893110    2.011420
  C    -19.889700  -25.377010    2.360310
  F    -32.368550  -24.191110    3.642460
  F    -20.553260  -21.776460    0.000720
  C    -26.828100  -17.989460    1.954840
  C    -26.253610  -27.789580    1.419190
  S    -24.738910  -28.497430    0.939040
  C    -25.381180  -30.098790    1.137720
  C    -26.705220  -30.054050    1.527890
  C    -27.197920  -28.758450    1.676330
  C    -24.533840  -31.234320    0.922960
  C    -24.890850  -32.548270    1.193200
  C    -24.030290  -33.630750    0.990910
  C    -22.731850  -33.494890    0.516470
  C    -22.332470  -32.156290    0.228370
  C    -23.218780  -31.060930    0.398830
  N    -21.076810  -31.924520   -0.171950
  C    -20.687620  -30.711440   -0.480590
  C    -21.637080  -29.637950   -0.478120
  N    -22.839070  -29.839740    0.007000
  F    -26.109110  -32.843580    1.682240
  F    -24.528720  -34.840980    1.304180
  C    -21.818070  -34.587940    0.335150
  C    -21.338530  -28.315010   -1.037220
  C    -19.276560  -30.509430   -0.824740
  C    -21.811980  -27.167690   -0.412010
  C    -21.513100  -25.925220   -0.946120
  C    -20.725880  -25.814530   -2.072770
  C    -20.248540  -26.962810   -2.712520
  C    -20.581840  -28.211130   -2.204870
  C    -18.609520  -29.365100   -0.386640
  C    -17.302140  -29.126360   -0.786550
  C    -16.651660  -30.063680   -1.595420
  C    -17.303410  -31.213210   -1.990530
  C    -18.616730  -31.442330   -1.615660
  S    -20.183750  -34.293710   -0.189980
  C    -19.829460  -35.971400   -0.133650
  C    -20.895990  -36.718490    0.261650
  C    -22.028950  -35.935160    0.528960
  O    -16.586200  -28.020820   -0.464570
  C    -17.220520  -26.982550    0.257890
  C    -16.238400  -25.827430    0.367360
  O    -19.469690  -26.757900   -3.801890
  C    -18.867080  -27.870980   -4.436010
  C    -17.949330  -27.339030   -5.524880
  H      3.462490   -2.658980    0.782480
  H     -3.647000   -3.514220    0.678680
  H      0.350620    0.847760    0.123840
  H     -0.647800   -6.984050    1.549700
  H      4.124830    1.999700   -2.701360
  H      4.313030    0.409650   -3.460420
  H      5.594930    1.260210   -0.816650
  H      6.427190    1.106110   -2.366550
  H      5.765450   -0.327700   -1.573210
  H     -4.065670   -6.701840    5.407340
  H     -4.679810   -7.800460    4.169280
  H     -5.414090   -4.836030    4.434430
  H     -6.431470   -6.188820    4.936710
  H     -6.067900   -5.943330    3.223380
  H      5.044910   -4.327900    1.929070
  H      4.407910   -5.978540    1.835960
  H      4.272500   -5.074210    3.339240
  H     -6.477210    1.029280   -2.027150
  H     -3.959750    0.724160   -1.575270
  H     -6.057110   -4.533670    0.786320
  H     -4.504930   -6.457490    0.998710
  H     -5.233310   -8.710580    0.301220
  H     -8.942370   -7.080700   -1.046950
  H     -9.024090   -6.125370    1.995040
  H    -12.064150   -9.124090    1.981370
  H    -13.222740   -7.930570    0.144790
  H    -12.226700   -5.883530   -0.812610
  H    -15.741660   -1.029950   -1.843670
  H    -13.420450    0.030640   -2.080120
  H     -8.709400   -7.098040    4.077720
  H     -7.904540   -8.001260    2.764080
  H     -8.919400   -9.213210    5.386610
  H     -7.224480   -8.872530    4.998870
  H     -8.117670  -10.101230    4.090010
  H     -8.932280   -9.129470   -2.162150
  H     -9.507320   -9.239670   -0.475610
  H     -8.136260  -11.491890   -2.032460
  H     -9.871490  -11.383440   -1.689720
  H     -8.713040  -11.598900   -0.367920
  H    -17.570290   -2.414720   -1.247740
  H    -19.970140   -8.864320    0.735160
  H    -21.904770   -3.261980    0.352890
  H    -15.646330   -7.052810    1.768350
  H    -22.466940    0.197350   -3.002280
  H    -21.516690   -0.590220   -4.273570
  H    -20.376590    1.242490   -2.106290
  H    -20.625850    1.675710   -3.800000
  H    -19.436180    0.441900   -3.370380
  H    -15.104280  -11.877610    1.599550
  H    -16.174890  -12.205750    0.223770
  H    -17.081610  -11.865800    3.121590
  H    -16.976550  -13.390510    2.235240
  H    -18.149380  -12.163680    1.742420
  H    -25.961180   -8.902210    1.151440
  H    -24.349490   -6.959410    0.630830
  H    -21.268220  -11.750340   -1.257600
  H    -18.999590  -11.503880   -2.219950
  H    -17.256970  -13.181320   -1.700360
  H    -19.968350  -15.168160    0.935120
  H    -21.392140  -15.396600   -1.853530
  H    -20.313860  -19.465810   -1.115620
  H    -21.598310  -19.414070    0.997530
  H    -22.715670  -17.328930    1.711290
  H    -28.861310  -17.763760    2.676190
  H    -28.530290  -15.222430    2.644610
  H    -19.374710  -15.605180   -2.958410
  H    -20.746790  -16.087960   -3.993010
  H    -17.887300  -17.153740   -4.224360
  H    -18.639440  -15.974390   -5.310680
  H    -19.243350  -17.638750   -5.243750
  H    -18.530480  -16.856110    0.282680
  H    -17.925390  -15.980870    1.715030
  H    -16.191920  -17.412060   -0.361710
  H    -16.551820  -18.003460    1.267120
  H    -15.582370  -16.536750    1.044790
  H    -28.683580  -20.086730    2.212590
  H    -24.401620  -25.707340    1.128540
  H    -29.666280  -24.487670    3.603400
  H    -23.252980  -21.391030   -0.167510
  H    -33.947930  -22.587260    2.340850
  H    -33.432340  -21.941390    0.773390
  H    -33.205160  -20.466010    3.443090
  H    -34.396240  -20.140920    2.180440
  H    -32.682370  -19.836770    1.876270
  H    -19.550570  -23.320210    2.883590
  H    -19.180900  -23.695880    1.198560
  H    -20.594740  -25.572170    3.165420
  H    -18.900000  -25.687990    2.684800
  H    -20.179030  -25.970330    1.496070
  H    -27.304580  -30.927840    1.701080
  H    -28.206070  -28.529770    1.974580
  H    -22.398040  -27.261380    0.487300
  H    -21.891700  -25.031320   -0.475430
  H    -20.468540  -24.851670   -2.484340
  H    -20.267560  -29.111200   -2.707890
  H    -19.124170  -28.676630    0.264320
  H    -15.635430  -29.862160   -1.895020
  H    -16.788130  -31.933840   -2.607260
  H    -19.141550  -32.326130   -1.938910
  H    -18.847710  -36.314040   -0.395540
  H    -20.879340  -37.789180    0.360680
  H    -22.962070  -36.357530    0.849500
  H    -17.500090  -27.340340    1.258540
  H    -18.130500  -26.659750   -0.267780
  H    -15.333970  -26.155270    0.872340
  H    -16.687210  -25.013520    0.929270
  H    -15.972320  -25.471680   -0.624020
  H    -19.639320  -28.518700   -4.873700
  H    -18.291680  -28.456060   -3.704390
  H    -18.521260  -26.753030   -6.238980
  H    -17.472180  -28.166810   -6.041090
  H    -17.185300  -26.702680   -5.087190

----------------------------
CARTESIAN COORDINATES (A.U.)
----------------------------
  NO LB      ZA    FRAG     MASS         X           Y           Z
   0 C     6.0000    0    12.011    1.325983   -3.792567    0.352150
   1 C     6.0000    0    12.011    2.456814   -5.853521    1.591225
   2 C     6.0000    0    12.011    0.932977   -7.776979    2.649717
   3 C     6.0000    0    12.011   -1.693346   -7.766075    2.551036
   4 C     6.0000    0    12.011   -2.823685   -5.734487    1.258406
   5 C     6.0000    0    12.011   -1.302286   -3.793550    0.222704
   6 C     6.0000    0    12.011    5.070041   -6.282470    2.086277
   7 C     6.0000    0    12.011    5.539392   -8.406314    3.422483
   8 S    16.0000    0    32.060    2.772625  -10.045746    4.171287
   9 C     6.0000    0    12.011   -5.418884   -5.357506    0.731116
  10 C     6.0000    0    12.011   -5.909722   -3.207923   -0.604920
  11 S    16.0000    0    32.060   -3.143918   -1.520266   -1.291439
  12 C     6.0000    0    12.011    2.776782   -1.755348   -0.768325
  13 C     6.0000    0    12.011   -3.168220   -9.704424    3.802148
  14 C     6.0000    0    12.011    2.226362    0.766000   -0.752073
  15 C     6.0000    0    12.011    4.012626    2.190193   -2.117457
  16 C     6.0000    0    12.011    5.905451    0.833294   -3.215804
  17 S    16.0000    0    32.060    5.503053   -2.336779   -2.523597
  18 C     6.0000    0    12.011   -2.714818  -12.242402    3.919424
  19 C     6.0000    0    12.011   -4.498172  -13.502660    5.440408
  20 C     6.0000    0    12.011   -6.292316  -12.002274    6.524223
  21 S    16.0000    0    32.060   -5.793881   -8.899249    5.625053
  22 C     6.0000    0    12.011    8.084985    1.770258   -4.730533
  23 C     6.0000    0    12.011   10.587474    1.380369   -3.338277
  24 C     6.0000    0    12.011   -8.370617  -12.766914    8.267306
  25 C     6.0000    0    12.011  -10.706924  -11.102254    7.997094
  26 F     9.0000    0    18.998    3.851243    4.720120   -2.323059
  27 F     9.0000    0    18.998   -4.445656  -16.023611    5.786549
  28 C     6.0000    0    12.011    8.017371   -9.421683    4.258630
  29 C     6.0000    0    12.011   -8.315135   -2.298096   -1.386020
  30 S    16.0000    0    32.060  -11.010546   -4.127899   -0.950683
  31 C     6.0000    0    12.011  -12.904146   -1.770598   -2.230066
  32 C     6.0000    0    12.011  -11.465195    0.275843   -2.976810
  33 C     6.0000    0    12.011   -8.888913   -0.027363   -2.520309
  34 C     6.0000    0    12.011  -15.585233   -2.120405   -2.346171
  35 C     6.0000    0    12.011  -17.296758   -0.275484   -3.099170
  36 C     6.0000    0    12.011  -19.904826   -0.667319   -3.175099
  37 C     6.0000    0    12.011  -21.035846   -2.930606   -2.469929
  38 C     6.0000    0    12.011  -19.333070   -4.858486   -1.669838
  39 C     6.0000    0    12.011  -16.679271   -4.488950   -1.666625
  40 N     7.0000    0    14.007  -20.284415   -7.040288   -0.821917
  41 C     6.0000    0    12.011  -18.785465   -8.890538   -0.133169
  42 C     6.0000    0    12.011  -16.109575   -8.633932   -0.479197
  43 N     7.0000    0    14.007  -15.160139   -6.436048   -1.125483
  44 F     9.0000    0    18.998  -16.491961    2.033610   -3.799011
  45 F     9.0000    0    18.998  -21.310914    1.304289   -3.953364
  46 C     6.0000    0    12.011  -23.700567   -3.397142   -2.475277
  47 C     6.0000    0    12.011  -14.363733  -10.770532   -0.220455
  48 C     6.0000    0    12.011  -19.941789  -11.148420    0.977121
  49 C     6.0000    0    12.011  -11.988441  -10.422425    0.844840
  50 C     6.0000    0    12.011  -10.371100  -12.465730    1.090013
  51 C     6.0000    0    12.011  -11.116541  -14.849166    0.345536
  52 C     6.0000    0    12.011  -13.500468  -15.219079   -0.733346
  53 C     6.0000    0    12.011  -15.092619  -13.160639   -1.062669
  54 C     6.0000    0    12.011  -18.752830  -12.379256    2.984822
  55 C     6.0000    0    12.011  -19.765666  -14.596396    3.950718
  56 C     6.0000    0    12.011  -22.027158  -15.532018    2.951866
  57 C     6.0000    0    12.011  -23.231613  -14.264957    1.019791
  58 C     6.0000    0    12.011  -22.197233  -12.083892    0.009241
  59 S    16.0000    0    32.060  -24.865697   -6.289198   -1.448721
  60 C     6.0000    0    12.011  -28.029854   -2.904868   -2.978001
  61 C     6.0000    0    12.011  -25.645303   -1.821261   -3.220887
  62 O     8.0000    0    15.999  -18.699993  -15.992185    5.816369
  63 C     6.0000    0    12.011  -16.313477  -15.263658    6.773931
  64 C     6.0000    0    12.011  -15.481619  -17.264481    8.660256
  65 O     8.0000    0    15.999  -14.088475  -17.626798   -1.374984
  66 C     6.0000    0    12.011  -16.557648  -18.169622   -2.250815
  67 C     6.0000    0    12.011  -16.780466  -21.021502   -2.514810
  68 C     6.0000    0    12.011  -36.839398   -8.448890   -1.248807
  69 C     6.0000    0    12.011  -34.178683   -8.430597   -1.208744
  70 C     6.0000    0    12.011  -32.829248  -10.613949   -0.442007
  71 C     6.0000    0    12.011  -33.997364  -12.869394    0.246156
  72 C     6.0000    0    12.011  -36.663503  -12.900272    0.175234
  73 C     6.0000    0    12.011  -38.004282  -10.687233   -0.519542
  74 C     6.0000    0    12.011  -32.546904   -6.400238   -1.804254
  75 C     6.0000    0    12.011  -30.039880   -6.968327   -1.574765
  76 S    16.0000    0    32.060  -29.576690  -10.086734   -0.565425
  77 C     6.0000    0    12.011  -38.329051  -14.907331    0.779852
  78 C     6.0000    0    12.011  -40.824869  -14.297271    0.565425
  79 S    16.0000    0    32.060  -41.257899  -11.164408   -0.409334
  80 C     6.0000    0    12.011  -38.322380   -6.284284   -2.035934
  81 C     6.0000    0    12.011  -32.528498  -15.029540    1.073648
  82 C     6.0000    0    12.011  -40.521473   -5.412157   -1.003293
  83 C     6.0000    0    12.011  -41.491375   -3.319002   -2.330051
  84 C     6.0000    0    12.011  -40.120265   -2.573013   -4.378458
  85 S    16.0000    0    32.060  -37.500047   -4.503841   -4.684593
  86 C     6.0000    0    12.011  -30.414103  -14.997471    2.559445
  87 C     6.0000    0    12.011  -29.511929  -17.447539    3.063530
  88 C     6.0000    0    12.011  -30.834964  -19.366953    1.968377
  89 S    16.0000    0    32.060  -33.320861  -18.124855    0.252354
  90 C     6.0000    0    12.011  -40.608268   -0.424130   -6.129553
  91 C     6.0000    0    12.011  -38.572561    1.614128   -5.899045
  92 C     6.0000    0    12.011  -30.435381  -22.136309    2.258922
  93 C     6.0000    0    12.011  -32.403682  -23.285300    4.037060
  94 F     9.0000    0    18.998  -43.631565   -2.143857   -1.619495
  95 F     9.0000    0    18.998  -27.485670  -17.872349    4.542580
  96 C     6.0000    0    12.011  -27.952357   -5.337513   -2.041849
  97 C     6.0000    0    12.011  -42.957273  -15.854689    1.071588
  98 S    16.0000    0    32.060  -42.663156  -19.114429    1.384867
  99 C     6.0000    0    12.011  -45.883382  -19.404426    1.977712
 100 C     6.0000    0    12.011  -47.068108  -17.081650    1.886797
 101 C     6.0000    0    12.011  -45.430396  -15.092411    1.349094
 102 C     6.0000    0    12.011  -46.966195  -21.838412    2.458571
 103 C     6.0000    0    12.011  -49.393303  -22.227979    3.383536
 104 C     6.0000    0    12.011  -50.413830  -24.625513    3.801279
 105 C     6.0000    0    12.011  -49.100679  -26.845903    3.306737
 106 C     6.0000    0    12.011  -46.601459  -26.506754    2.360816
 107 C     6.0000    0    12.011  -45.545291  -24.075942    1.981227
 108 N     7.0000    0    14.007  -45.263438  -28.554442    1.734410
 109 C     6.0000    0    12.011  -42.975906  -28.336538    0.804891
 110 C     6.0000    0    12.011  -41.837044  -25.888133    0.609456
 111 N     7.0000    0    14.007  -43.162932  -23.865295    1.161388
 112 F     9.0000    0    18.998  -50.894690  -20.256107    3.953080
 113 F     9.0000    0    18.998  -52.787629  -24.690198    4.711446
 114 C     6.0000    0    12.011  -50.094637  -29.341891    3.622473
 115 C     6.0000    0    12.011  -39.237461  -25.516821   -0.275314
 116 C     6.0000    0    12.011  -41.744428  -30.676983   -0.026607
 117 C     6.0000    0    12.011  -38.710473  -23.519040   -1.899893
 118 C     6.0000    0    12.011  -36.314754  -23.278289   -2.922216
 119 C     6.0000    0    12.011  -34.458835  -25.019861   -2.359285
 120 C     6.0000    0    12.011  -34.943965  -26.986725   -0.661688
 121 C     6.0000    0    12.011  -37.328176  -27.199716    0.410770
 122 C     6.0000    0    12.011  -40.443522  -30.753290   -2.317957
 123 C     6.0000    0    12.011  -39.209569  -32.948830   -3.051284
 124 C     6.0000    0    12.011  -39.349692  -35.092233   -1.510383
 125 C     6.0000    0    12.011  -40.699882  -35.020745    0.717019
 126 C     6.0000    0    12.011  -41.896230  -32.822521    1.479089
 127 S    16.0000    0    32.060  -48.249489  -31.958897    2.889996
 128 C     6.0000    0    12.011  -52.811080  -32.679223    4.470072
 129 C     6.0000    0    12.011  -52.465657  -30.072100    4.439023
 130 O     8.0000    0    15.999  -37.811795  -33.188844   -5.185900
 131 C     6.0000    0    12.011  -37.408225  -31.038941   -6.723570
 132 C     6.0000    0    12.011  -35.576683  -31.791297   -8.805141
 133 O     8.0000    0    15.999  -32.995488  -28.589402   -0.211706
 134 C     6.0000    0    12.011  -33.423284  -30.761019    1.292629
 135 C     6.0000    0    12.011  -31.025146  -32.341227    1.244101
 136 C     6.0000    0    12.011  -52.834853  -43.206226    3.679429
 137 C     6.0000    0    12.011  -51.426459  -40.957036    3.451131
 138 C     6.0000    0    12.011  -48.792048  -41.058042    2.972879
 139 C     6.0000    0    12.011  -47.459621  -43.310085    2.744430
 140 C     6.0000    0    12.011  -48.873666  -45.559748    2.924937
 141 C     6.0000    0    12.011  -51.503976  -45.456379    3.410842
 142 C     6.0000    0    12.011  -52.280351  -38.443851    3.762350
 143 C     6.0000    0    12.011  -50.428514  -36.664618    3.497845
 144 S    16.0000    0    32.060  -47.485908  -38.035841    2.848101
 145 C     6.0000    0    12.011  -48.024007  -48.072271    2.589492
 146 C     6.0000    0    12.011  -49.878547  -49.846705    2.851238
 147 S    16.0000    0    32.060  -52.815464  -48.475179    3.522752
 148 C     6.0000    0    12.011  -55.534818  -43.220267    4.135269
 149 C     6.0000    0    12.011  -44.735921  -43.335937    2.448537
 150 C     6.0000    0    12.011  -56.878565  -44.840480    5.630307
 151 C     6.0000    0    12.011  -59.493492  -44.358789    5.532513
 152 C     6.0000    0    12.011  -60.208432  -42.434273    3.977061
 153 S    16.0000    0    32.060  -57.554350  -41.123483    2.589775
 154 C     6.0000    0    12.011  -43.248669  -41.821227    0.981108
 155 C     6.0000    0    12.011  -40.662050  -42.363559    1.305253
 156 C     6.0000    0    12.011  -40.115843  -44.217721    3.009899
 157 S    16.0000    0    32.060  -42.898390  -45.384494    4.264299
 158 C     6.0000    0    12.011  -62.795883  -41.438160    3.492006
 159 C     6.0000    0    12.011  -63.095083  -38.739329    4.481410
 160 C     6.0000    0    12.011  -37.576883  -45.151434    3.801033
 161 C     6.0000    0    12.011  -37.586086  -47.955599    4.460339
 162 F     9.0000    0    18.998  -61.167695  -45.714573    6.883252
 163 F     9.0000    0    18.998  -38.840033  -41.151546    0.001361
 164 C     6.0000    0    12.011  -50.697762  -33.995153    3.694112
 165 C     6.0000    0    12.011  -49.612133  -52.514696    2.681880
 166 S    16.0000    0    32.060  -46.749765  -53.852338    1.774528
 167 C     6.0000    0    12.011  -47.963479  -56.878470    2.149979
 168 C     6.0000    0    12.011  -50.465552  -56.793924    2.887294
 169 C     6.0000    0    12.011  -51.396620  -54.345595    3.167805
 170 C     6.0000    0    12.011  -46.362239  -59.024311    1.744142
 171 C     6.0000    0    12.011  -47.036890  -61.507316    2.254821
 172 C     6.0000    0    12.011  -45.410667  -63.552907    1.872549
 173 C     6.0000    0    12.011  -42.956971  -63.296169    0.975987
 174 C     6.0000    0    12.011  -42.202252  -60.766582    0.431557
 175 C     6.0000    0    12.011  -43.877135  -58.696651    0.753679
 176 N     7.0000    0    14.007  -39.829399  -60.328600   -0.324938
 177 C     6.0000    0    12.011  -39.093936  -58.036211   -0.908183
 178 C     6.0000    0    12.011  -40.888156  -56.007609   -0.903516
 179 N     7.0000    0    14.007  -43.159587  -56.388937    0.013228
 180 F     9.0000    0    18.998  -49.339068  -62.065371    3.178973
 181 F     9.0000    0    18.998  -46.352563  -65.839910    2.464543
 182 C     6.0000    0    12.011  -41.230177  -65.361734    0.633342
 183 C     6.0000    0    12.011  -40.323978  -53.507614   -1.960062
 184 C     6.0000    0    12.011  -36.427419  -57.654467   -1.558533
 185 C     6.0000    0    12.011  -41.218669  -51.339494   -0.778586
 186 C     6.0000    0    12.011  -40.653867  -48.991566   -1.787908
 187 C     6.0000    0    12.011  -39.166237  -48.782392   -3.916968
 188 C     6.0000    0    12.011  -38.264195  -50.952327   -5.125920
 189 C     6.0000    0    12.011  -38.894041  -53.311310   -4.166600
 190 C     6.0000    0    12.011  -35.166896  -55.491997   -0.730644
 191 C     6.0000    0    12.011  -32.696306  -55.040844   -1.486364
 192 C     6.0000    0    12.011  -31.467077  -56.812122   -3.014907
 193 C     6.0000    0    12.011  -32.698706  -58.984419   -3.761557
 194 C     6.0000    0    12.011  -35.180521  -59.417393   -3.053155
 195 S    16.0000    0    32.060  -38.141760  -64.805720   -0.359010
 196 C     6.0000    0    12.011  -37.472249  -67.976095   -0.252562
 197 C     6.0000    0    12.011  -39.487698  -69.387890    0.494447
 198 C     6.0000    0    12.011  -41.628683  -67.907611    0.999590
 199 O     8.0000    0    15.999  -31.343376  -52.951676   -0.877910
 200 C     6.0000    0    12.011  -32.542067  -50.989630    0.487341
 201 C     6.0000    0    12.011  -30.686129  -48.806769    0.694210
 202 O     8.0000    0    15.999  -36.792382  -50.565103   -7.184531
 203 C     6.0000    0    12.011  -35.653614  -52.668519   -8.382844
 204 C     6.0000    0    12.011  -33.919318  -51.663279  -10.440510
 205 H     1.0000    0     1.008    6.543158   -5.024744    1.478673
 206 H     1.0000    0     1.008   -6.891831   -6.640913    1.282519
 207 H     1.0000    0     1.008    0.662576    1.602034    0.234024
 208 H     1.0000    0     1.008   -1.224165  -13.197942    2.928509
 209 H     1.0000    0     1.008    7.794799    3.778885   -5.104831
 210 H     1.0000    0     1.008    8.150446    0.774126   -6.539246
 211 H     1.0000    0     1.008   10.572885    2.381452   -1.543245
 212 H     1.0000    0     1.008   12.145629    2.090245   -4.472131
 213 H     1.0000    0     1.008   10.895122   -0.619263   -2.972936
 214 H     1.0000    0     1.008   -7.683003  -12.664642   10.218392
 215 H     1.0000    0     1.008   -8.843559  -14.740733    7.878797
 216 H     1.0000    0     1.008  -10.231147   -9.138772    8.379858
 217 H     1.0000    0     1.008  -12.153717  -11.695175    9.329030
 218 H     1.0000    0     1.008  -11.466669  -11.231266    6.091305
 219 H     1.0000    0     1.008    9.533498   -8.178546    3.645414
 220 H     1.0000    0     1.008    8.329743  -11.297803    3.469462
 221 H     1.0000    0     1.008    8.073855   -9.588867    6.310249
 222 H     1.0000    0     1.008  -12.240153    1.945057   -3.830758
 223 H     1.0000    0     1.008   -7.482843    1.368464   -2.976829
 224 H     1.0000    0     1.008  -11.446279   -8.567395    1.485929
 225 H     1.0000    0     1.008   -8.513084  -12.202888    1.887288
 226 H     1.0000    0     1.008   -9.889523  -16.460611    0.569223
 227 H     1.0000    0     1.008  -16.898630  -13.380584   -1.978449
 228 H     1.0000    0     1.008  -17.053059  -11.575272    3.770079
 229 H     1.0000    0     1.008  -22.797940  -17.242031    3.744247
 230 H     1.0000    0     1.008  -24.987357  -14.986605    0.273613
 231 H     1.0000    0     1.008  -23.105115  -11.118260   -1.535610
 232 H     1.0000    0     1.008  -29.747426   -1.946323   -3.484031
 233 H     1.0000    0     1.008  -25.360975    0.057901   -3.930857
 234 H     1.0000    0     1.008  -16.458381  -13.413352    7.705774
 235 H     1.0000    0     1.008  -14.937416  -15.120190    5.223354
 236 H     1.0000    0     1.008  -16.855223  -17.410444   10.179218
 237 H     1.0000    0     1.008  -13.652289  -16.766652    9.446495
 238 H     1.0000    0     1.008  -15.340173  -19.088558    7.728999
 239 H     1.0000    0     1.008  -16.879563  -17.252198   -4.085871
 240 H     1.0000    0     1.008  -17.966231  -17.460446   -0.898773
 241 H     1.0000    0     1.008  -15.375303  -21.716525   -3.840793
 242 H     1.0000    0     1.008  -18.654413  -21.511584   -3.193108
 243 H     1.0000    0     1.008  -16.465259  -21.918744   -0.695268
 244 H     1.0000    0     1.008  -33.203036   -4.563159   -2.357887
 245 H     1.0000    0     1.008  -37.738095  -16.751137    1.389251
 246 H     1.0000    0     1.008  -41.394016   -6.164249    0.666865
 247 H     1.0000    0     1.008  -29.567279  -13.327879    3.341697
 248 H     1.0000    0     1.008  -42.456364    0.372937   -5.673487
 249 H     1.0000    0     1.008  -40.660651   -1.115354   -8.075877
 250 H     1.0000    0     1.008  -38.506175    2.347966   -3.980311
 251 H     1.0000    0     1.008  -38.977208    3.166633   -7.180959
 252 H     1.0000    0     1.008  -36.729057    0.835070   -6.369095
 253 H     1.0000    0     1.008  -28.542953  -22.445430    3.022711
 254 H     1.0000    0     1.008  -30.566112  -23.065525    0.422864
 255 H     1.0000    0     1.008  -32.279565  -22.423112    5.898950
 256 H     1.0000    0     1.008  -32.081030  -25.304397    4.223991
 257 H     1.0000    0     1.008  -34.297358  -22.986024    3.292697
 258 H     1.0000    0     1.008  -49.059520  -16.822739    2.175906
 259 H     1.0000    0     1.008  -46.013868  -13.151379    1.192096
 260 H     1.0000    0     1.008  -40.191111  -22.204925   -2.376520
 261 H     1.0000    0     1.008  -35.904022  -21.739183   -4.195098
 262 H     1.0000    0     1.008  -32.610947  -24.909085   -3.213215
 263 H     1.0000    0     1.008  -37.734713  -28.663668    1.767121
 264 H     1.0000    0     1.008  -40.425286  -29.095357   -3.502664
 265 H     1.0000    0     1.008  -38.387632  -36.785050   -2.108216
 266 H     1.0000    0     1.008  -40.814891  -36.687275    1.885059
 267 H     1.0000    0     1.008  -42.926395  -32.746932    3.233869
 268 H     1.0000    0     1.008  -54.539972  -33.568642    5.057266
 269 H     1.0000    0     1.008  -53.914435  -28.766224    4.997589
 270 H     1.0000    0     1.008  -36.612896  -29.489516   -5.590585
 271 H     1.0000    0     1.008  -39.205751  -30.401838   -7.545695
 272 H     1.0000    0     1.008  -33.802098  -32.415871   -7.982883
 273 H     1.0000    0     1.008  -35.223437  -30.187222  -10.035731
 274 H     1.0000    0     1.008  -36.364661  -33.332407   -9.909251
 275 H     1.0000    0     1.008  -35.017532  -31.853432    0.534188
 276 H     1.0000    0     1.008  -33.874078  -30.199468    3.240937
 277 H     1.0000    0     1.008  -30.598294  -32.904025   -0.683533
 278 H     1.0000    0     1.008  -31.278407  -34.021609    2.394510
 279 H     1.0000    0     1.008  -29.446412  -31.249929    1.974367
 280 H     1.0000    0     1.008  -54.204111  -37.958419    4.181189
 281 H     1.0000    0     1.008  -46.112379  -48.579832    2.132632
 282 H     1.0000    0     1.008  -56.061145  -46.274990    6.809439
 283 H     1.0000    0     1.008  -43.941764  -40.423188   -0.316548
 284 H     1.0000    0     1.008  -64.152291  -42.683736    4.423565
 285 H     1.0000    0     1.008  -63.177967  -41.463218    1.461495
 286 H     1.0000    0     1.008  -62.748659  -38.675154    6.506497
 287 H     1.0000    0     1.008  -64.999474  -38.060823    4.120434
 288 H     1.0000    0     1.008  -61.760729  -37.486063    3.545636
 289 H     1.0000    0     1.008  -36.945223  -44.068810    5.449195
 290 H     1.0000    0     1.008  -36.246648  -44.778724    2.264950
 291 H     1.0000    0     1.008  -38.918418  -48.324398    5.981777
 292 H     1.0000    0     1.008  -35.715824  -48.543266    5.073537
 293 H     1.0000    0     1.008  -38.132840  -49.076811    2.827163
 294 H     1.0000    0     1.008  -51.598178  -58.445148    3.214575
 295 H     1.0000    0     1.008  -53.301748  -53.913452    3.731415
 296 H     1.0000    0     1.008  -42.326162  -51.516542    0.920864
 297 H     1.0000    0     1.008  -41.369318  -47.302340   -0.898432
 298 H     1.0000    0     1.008  -38.679935  -46.962850   -4.694722
 299 H     1.0000    0     1.008  -38.300138  -55.012195   -5.117171
 300 H     1.0000    0     1.008  -36.139444  -54.190977    0.499492
 301 H     1.0000    0     1.008  -29.546681  -56.431304   -3.581069
 302 H     1.0000    0     1.008  -31.724968  -60.346212   -4.927007
 303 H     1.0000    0     1.008  -36.172287  -61.087533   -3.664009
 304 H     1.0000    0     1.008  -35.617010  -68.623590   -0.747462
 305 H     1.0000    0     1.008  -39.456234  -71.411201    0.681586
 306 H     1.0000    0     1.008  -43.392024  -68.705775    1.605322
 307 H     1.0000    0     1.008  -33.070377  -51.665755    2.378296
 308 H     1.0000    0     1.008  -34.261680  -50.379626   -0.506031
 309 H     1.0000    0     1.008  -28.977004  -49.426297    1.648484
 310 H     1.0000    0     1.008  -31.534257  -47.268702    1.756066
 311 H     1.0000    0     1.008  -30.183311  -48.134499   -1.179227
 312 H     1.0000    0     1.008  -37.112936  -53.892533   -9.209958
 313 H     1.0000    0     1.008  -34.566266  -53.774160   -7.000283
 314 H     1.0000    0     1.008  -35.000109  -50.555900  -11.789964
 315 H     1.0000    0     1.008  -33.017635  -53.227557  -11.416006
 316 H     1.0000    0     1.008  -32.475511  -50.460752   -9.613396

--------------------------------
INTERNAL COORDINATES (ANGSTROEM)
--------------------------------
 C      0   0   0     0.000000000000     0.00000000     0.00000000
 C      1   0   0     1.406219782360     0.00000000     0.00000000
 C      2   1   0     1.414218138690   120.01505180     0.00000000
 C      3   2   1     1.390782680867   123.49956427   359.83384894
 C      4   3   2     1.407641988682   116.48998949     1.62999963
 C      1   2   3     1.392505939951   116.59476762   359.36354025
 C      2   1   3     1.425641792527   128.45801360   183.45057624
 C      7   2   1     1.350848865381   114.01644244   177.23361687
 S      3   2   1     1.742816518972   111.11775635   182.17643268
 C      5   4   3     1.415507620396   128.00216244   175.27917732
 C     10   5   4     1.364273751012   113.85188701   181.11946122
 S      6   1   2     1.743240111373   125.50125898   182.18513407
 C      1   2   3     1.450230030133   122.81219005   179.85345473
 C      4   3   2     1.448992373134   121.20840263   183.86195066
 C     13   1   2     1.365689770958   127.64491662   219.35653510
 C     15  13   1     1.408380447855   112.11220016   182.38770274
 C     16  15  13     1.362600755761   115.48086601     0.88329807
 S     17  16  15     1.730209823836   109.27753964   359.41351078
 C     14   4   3     1.365713839023   128.48246309   318.80251076
 C     19  14   4     1.408247098701   111.95927829   176.47313002
 C     20  19  14     1.364083339903   115.53629929   359.17769159
 S     21  20  19     1.729827220418   109.31366696     0.45198148
 C     17  16  15     1.489488232783   128.56040078   181.16108015
 C     23  17  16     1.529389764743   111.48942664   112.10173724
 C     21  20  19     1.491336729582   127.98133820   181.72974898
 C     25  21  20     1.524768209434   112.53162849   210.79953759
 F     16  15  13     1.345905824491   122.08455981   180.75801514
 F     20  19  14     1.346833164835   122.20622693   178.72047034
 C      8   7   2     1.484575091095   128.28183609   179.90767994
 C     11  10   5     1.422287818727   127.10217260   180.93725366
 S     30  11  10     1.739290137815   120.46341774   353.12888137
 C     31  30  11     1.737395144404    91.24078219   178.58016877
 C     32  31  30     1.381560763086   110.87714179     1.04508619
 C     30  11  10     1.377087455066   128.27072300   173.21276380
 C     32  31  30     1.432113437756   119.68910107   182.01178068
 C     35  32  31     1.390040645089   124.54186266   173.47028695
 C     36  35  32     1.396197432959   123.23054523   180.49392961
 C     37  36  35     1.389928051411   123.08568811     0.93158374
 C     38  37  36     1.425473210236   115.10272855   359.57080518
 C     39  38  37     1.417880616060   121.85218504   358.42696234
 N     39  38  37     1.337079746500   118.66325899   176.15770036
 C     41  39  38     1.311745736452   120.66989898   178.09146835
 C     42  41  39     1.434252710160   119.39775536   355.17750740
 N     43  42  41     1.312296338980   119.68103903     9.96535952
 F     36  35  32     1.345962100655   120.68582392     0.27819434
 F     37  36  35     1.346027428918   116.11154629   180.16913053
 C     38  37  36     1.431561369764   124.90544143   178.81263558
 C     43  42  41     1.466496231021   122.48342804   192.04826106
 C     42  41  39     1.465339446681   117.87312592   174.95439534
 C     48  43  42     1.389837450747   120.35968825   216.88101664
 C     50  48  43     1.385089751641   119.56126577   179.55611419
 C     51  50  48     1.378980728691   120.69637174   358.40762919
 C     52  51  50     1.398463592411   120.17910412     1.73190904
 C     53  52  51     1.388076997936   119.27154161     0.51527937
 C     49  42  41     1.396009728727   119.82676765   218.55528487
 C     55  49  42     1.387464142023   120.05283186   183.58424686
 C     56  55  49     1.398814801859   119.37924739   357.82737829
 C     57  56  55     1.378815787188   120.23524574     0.21565320
 C     58  57  56     1.384807049159   120.59223322     1.31462084
 S     47  38  37     1.737066445073   120.06251763   182.05975636
 C     47  38  37     2.321019158150   162.38844738     2.68303043
 C     47  38  37     1.382088113001   129.04691751     2.27546201
 O     56  55  49     1.355824050864   124.62807313   176.93819864
 C     63  56  55     1.414313254163   118.93311921   355.95782991
 C     64  63  56     1.520268247416   107.69538680   184.76034377
 O     53  52  51     1.354793065121   116.17647966   180.91345459
 C     66  53  52     1.415838606727   118.99929082   174.03214890
 C     67  66  53     1.520181759067   107.64229965   186.85152007
 C     61  47  38     5.583618485489   138.27439560   181.25394074
 C     69  61  47     1.408182865433    33.28629414   355.15746766
 C     70  69  61     1.417551558181   120.15799622   179.95457743
 C     71  70  69     1.392560026031   123.35357409     1.46364852
 C     72  71  70     1.411453660628   116.53021193   359.38141608
 C     69  61  47     1.389929977877   149.71646243   354.72832929
 C     70  69  61     1.413972242762   127.76870442     1.68230720
 C     75  70  69     1.365703779595   113.96342075   179.72165498
 S     71  70  69     1.744867160732   110.84717777   179.99069992
 C     73  72  71     1.416762593909   128.64649363   180.29264514
 C     78  73  72     1.364339540840   113.95694714   178.60049156
 S     74  69  61     1.741135017769   124.85113070   180.12396244
 C     69  61  47     1.449628956009    89.41062214   175.67972855
 C     72  71  70     1.450036208582   121.10980141   181.47296901
 C     81  69  61     1.365950235807   127.82312363   219.93608911
 C     83  81  69     1.408277122267   112.13504191   182.51756938
 C     84  83  81     1.362814636002   115.48878600     0.86134546
 S     85  84  83     1.729961183408   109.27588540   359.42200611
 C     82  72  71     1.367622709485   127.04102704    38.51958913
 C     87  82  72     1.407138934505   112.03190320   178.07945160
 C     88  87  82     1.362970960586   115.57885699     1.31752425
 S     89  88  87     1.728330715141   109.32722628   359.57126282
 C     85  84  83     1.489441830620   128.58581650   181.16395374
 C     91  85  84     1.529288933753   111.51316465   113.25899832
 C     89  88  87     1.488617410687   128.07952648   183.66905969
 C     93  89  88     1.529694126059   110.98436785   102.85819281
 F     84  83  81     1.345637481382   122.06681390   180.72265405
 F     88  87  82     1.346418614288   122.29132561   181.72554829
 C     61  47  38     1.379939984999    79.91078952   179.36561365
 C     79  78  73     1.422778458299   127.95475860   181.17657295
 S     98  79  78     1.739903106038   121.41794048   344.91781614
 C     99  98  79     1.739489803046    90.97504524   179.04445474
 C    100  99  98     1.380648435555   111.10091324     0.86189878
 C     98  79  78     1.377326535466   127.15901285   165.63218871
 C    100  99  98     1.432497347886   120.21295469   180.48635515
 C    103 100  99     1.389850711515   124.44160327   168.07225518
 C    104 103 100     1.396481709010   123.22095752   179.06315711
 C    105 104 103     1.389941366569   123.01553630   359.38039661
 C    106 105 104     1.425431652307   115.05797175     0.70621841
 C    107 106 105     1.416814326509   122.01194532     0.53136953
 N    107 106 105     1.336181529958   118.46774651   182.95336850
 C    109 107 106     1.311707585783   120.71456774   178.52828814
 C    110 109 107     1.432682023898   119.65441046     4.01949778
 N    111 110 109     1.312795237423   119.76970959   354.31633582
 F    104 103 100     1.345695293519   120.62754768   358.42849948
 F    105 104 103     1.345766223421   116.15032025   179.77468420
 C    106 105 104     1.431480408249   125.05218458   182.22840352
 C    111 110 109     1.466357722283   122.60589105   176.45147524
 C    110 109 107     1.467034290363   116.62800171   185.08699154
 C    116 111 110     1.390850432433   119.16379345   138.83307127
 C    118 116 111     1.384238547975   119.68004682   185.61952659
 C    119 118 116     1.379356757405   120.41086952     0.65092797
 C    120 119 118     1.398645137160   120.34630382   357.18360843
 C    121 120 119     1.388017897363   119.33273360     1.33752876
 C    117 110 109     1.394907836884   120.29022204   135.73812929
 C    123 117 110     1.388100282004   119.96006741   177.78225375
 C    124 123 117     1.398889583992   119.39021784     1.89625177
 C    125 124 123     1.378853576381   120.23195919   359.93723111
 C    126 125 124     1.384401510329   120.59870507   358.90119342
 S    115 106 105     1.738233361721   120.17812616   179.15068912
 C    115 106 105     2.320867336342   162.22316348     2.58999212
 C    115 106 105     1.382125209306   128.90370561     0.26318018
 O    124 123 117     1.356177280852   124.59744409   182.75803492
 C    131 124 123     1.414931569370   119.07903953     4.50644813
 C    132 131 124     1.520270315240   107.59791577   174.20648747
 O    121 120 119     1.356142076812   116.01488394   180.58150652
 C    134 121 120     1.416174818622   118.98830930   186.07341393
 C    135 134 121     1.519989851315   107.66553911   173.92984145
 C    129 115 106     5.586353897758   138.22107854   173.41120868
 C    137 129 115     1.409494905489    33.19336406     6.24942645
 C    138 137 129     1.417863728925   120.22231530   173.45231841
 C    139 138 137     1.389959241525   123.13452886   358.98478578
 C    140 139 138     1.409349442012   116.67965328     2.13877375
 C    137 129 115     1.390695905905   149.35237680    17.76025249
 C    138 137 129     1.414209129549   127.96439900   356.84471720
 C    143 138 137     1.366152386925   114.01565676   177.91486037
 S    139 138 137     1.743498285545   111.22066449   181.39169253
 C    141 140 139     1.414717049236   128.06899369   175.27228261
 C    146 141 140     1.365281635634   113.90299017   181.04359982
 S    142 137 129     1.742727528588   125.42993062   174.86785377
 C    137 129 115     1.448998768426    89.70582429   192.43327497
 C    140 139 138     1.449864745830   121.45084251   184.80621256
 C    149 137 129     1.366249512498   127.79280126   222.05639311
 C    151 149 137     1.407992830273   112.12395941   182.71816861
 C    152 151 149     1.363012321698   115.48371840     0.85888638
 S    153 152 151     1.729922742321   109.29981033   359.32402923
 C    150 140 139     1.365606723695   128.96097738   317.55855306
 C    155 150 140     1.409022529770   111.78227017   177.14014001
 C    156 155 150     1.363807375548   115.65423806   358.88461636
 S    157 156 155     1.729158378085   109.28881884     0.58136418
 C    153 152 151     1.489464173856   128.58349827   181.07884839
 C    159 153 152     1.529324988157   111.50990713   113.59270504
 C    157 156 155     1.491494588022   127.94522557   181.79021443
 C    161 157 156     1.524371069983   112.57227448   212.37266002
 F    152 151 149     1.345567669573   122.07548864   180.74439603
 F    156 155 150     1.347985706860   122.38561676   178.24579109
 C    129 115 106     1.379915090286    79.89438561   177.14551550
 C    147 146 141     1.421688886642   127.25208875   181.51155525
 S    166 147 146     1.739514798730   120.52090079   353.63339544
 C    167 166 147     1.736760877294    91.23813820   178.15048181
 C    168 167 166     1.381056196576   110.91550243     1.18840053
 C    166 147 146     1.377153380201   128.23516240   173.38636524
 C    168 167 166     1.433016159748   119.65765799   182.44686887
 C    171 168 167     1.388146390047   124.66681578   172.54240706
 C    172 171 168     1.397586386632   123.13390890   181.04156879
 C    173 172 171     1.389063600704   123.31611382     0.81806615
 C    174 173 172     1.426308506039   114.99406458   359.24590666
 C    175 174 173     1.419301080567   121.68072292   358.97063322
 N    175 174 173     1.338153754581   119.06000105   176.80634760
 C    177 175 174     1.310835837205   120.61863973   178.08952889
 C    178 177 175     1.433129851967   119.74140264   355.69992252
 N    179 178 177     1.311808133303   119.50238354     9.29024388
 F    172 171 168     1.345557707904   120.75366335     0.60153023
 F    173 172 171     1.345818416689   115.77037728   179.91397794
 C    174 173 172     1.436185619375   124.29319007   178.23813397
 C    179 178 177     1.466933930380   122.68606501   191.20485524
 C    178 177 175     1.466402941282   117.93313117   175.95529171
 C    184 179 178     1.389743008257   120.24699596   218.01274077
 C    186 184 179     1.385039511133   119.57643377   179.50259568
 C    187 186 184     1.378879192315   120.68368579   358.49499632
 C    188 187 186     1.398456469290   120.18171833     1.75316472
 C    189 188 187     1.388200358342   119.28300342     0.33327828
 C    185 178 177     1.395121901663   119.95868003   219.20254626
 C    191 185 178     1.387864280144   120.06670680   184.40913066
 C    192 191 185     1.398557717686   119.30773701   358.00074828
 C    193 192 191     1.379242254102   120.29694634   359.97458987
 C    194 193 192     1.384858445365   120.56252572     1.32087401
 S    183 174 173     1.741647114716   120.43348677   183.14055822
 C    196 183 174     1.715615985324    91.07035001   179.53308403
 C    197 196 183     1.360842312320   112.61552680     0.07086446
 C    183 174 173     1.377328725795   128.99555679     2.67409303
 O    192 191 185     1.355898187771   124.69657488   177.07960787
 C    200 192 191     1.415031768866   118.86886813   355.72846463
 C    201 200 192     1.520146568493   107.74037093   185.16846243
 O    189 188 187     1.354740723349   116.09736311   180.77605402
 C    203 189 188     1.415695614495   119.07641200   175.10923227
 C    204 203 189     1.520155828164   107.61935979   185.67477589
 H      7   2   1     1.074259868980   123.38303475   358.01417461
 H     10   5   4     1.074210607423   124.14783941   359.95090442
 H     15  13   1     1.073690863750   124.74990246     4.54060177
 H     19  14   4     1.073723806107   124.74925868   354.44368998
 H     23  17  16     1.092067454373   108.22303819   351.11789752
 H     23  17  16     1.093235474818   109.58325063   233.14306038
 H     24  23  17     1.087651448305   110.41765595   300.39014680
 H     24  23  17     1.086734159857   110.14286986   180.43355639
 H     24  23  17     1.087925969218   110.26665228    60.45504298
 H     25  21  20     1.096049566489   108.92973749    89.54617430
 H     25  21  20     1.093564159526   108.15806232   333.02593012
 H     26  25  21     1.088116710790   110.27940890   301.08944173
 H     26  25  21     1.086917355920   110.09329772   181.34953509
 H     26  25  21     1.087827745785   110.50858098    61.10171189
 H     29   8   7     1.087078196635   110.11465070     0.30560363
 H     29   8   7     1.089666940904   110.45802935   239.90622284
 H     29   8   7     1.089678714989   110.52165817   120.84459349
 H     33  32  31     1.073599057516   123.69516553   179.54362389
 H     34  30  11     1.075906701160   122.98639154     0.70480543
 H     50  48  43     1.077506038081   119.29181978     0.25861597
 H     51  50  48     1.078919462472   119.93989675   179.00013543
 H     52  51  50     1.078322976014   121.31093752   181.48843129
 H     54  53  52     1.077847843715   120.65707832   176.76832551
 H     55  49  42     1.078306758070   119.02188194     3.91520799
 H     57  56  55     1.077511475809   118.29776991   180.84886261
 H     58  57  56     1.079339410936   119.81051596   180.71797933
 H     59  58  57     1.077139737917   120.80821969   178.24327441
 H     61  47  38     1.074754742255   156.38486454     0.32584213
 H     62  47  38     1.073610706774   123.67043438     0.07887544
 H     64  63  56     1.098977904282   109.95712019    64.60484963
 H     64  63  56     1.099672423815   110.04561743   304.98010129
 H     65  64  63     1.086469047879   109.97189231   300.58074933
 H     65  64  63     1.086097600955   109.91821932   180.22956316
 H     65  64  63     1.086361463832   109.93269638    60.07262857
 H     67  66  53     1.098948086945   110.04043211    66.73612223
 H     67  66  53     1.099244582156   110.08804810   307.05401993
 H     68  67  66     1.086524515554   110.01771061   300.55930828
 H     68  67  66     1.086031713027   109.77077782   180.23666229
 H     68  67  66     1.086442202604   109.90731109    60.12410274
 H     75  70  69     1.073052834021   123.48001936     0.70585467
 H     78  73  72     1.074140418567   124.58586469   359.65856284
 H     83  81  69     1.073643678834   124.78215844     4.85166999
 H     87  82  72     1.073664778690   124.98270391     0.89475987
 H     91  85  84     1.092051793918   108.21936955   352.23568757
 H     91  85  84     1.093325390403   109.57549846   234.28686899
 H     92  91  85     1.087644210346   110.42798077   300.44731098
 H     92  91  85     1.086723676470   110.15775482   180.47709752
 H     92  91  85     1.087891624566   110.25221570    60.52354026
 H     93  89  88     1.092237123385   108.41475074   342.30885496
 H     93  89  88     1.091137475665   110.03963042   223.58347657
 H     94  93  89     1.087766012431   110.44642512   299.88377564
 H     94  93  89     1.086528455955   109.86900581   179.98678509
 H     94  93  89     1.088311828016   110.27253857    60.18181643
 H    101 100  99     1.073635504396   123.66556850   179.27784894
 H    102  98  79     1.075765841854   122.96453315     0.33748932
 H    118 116 111     1.077543353559   119.30243214     4.22012292
 H    119 118 116     1.079025546732   119.86258316   179.50426060
 H    120 119 118     1.078815099264   121.23919026   176.95092705
 H    122 121 120     1.077771114616   120.80344890   181.87657229
 H    123 117 110     1.078353969947   119.09248718   357.37693236
 H    125 124 123     1.077833057389   118.53866067   179.77238304
 H    126 125 124     1.078648006395   119.77878386   179.36423416
 H    127 126 125     1.077523553200   120.90256384   181.08373308
 H    129 115 106     1.074754707177   156.39832566   356.41686285
 H    130 115 106     1.073625341355   123.66709415   358.77057681
 H    132 131 124     1.099481953376   110.10804800    54.00320015
 H    132 131 124     1.098968764888   110.10149923   294.32896904
 H    133 132 131     1.086470772455   109.90862299   299.94749472
 H    133 132 131     1.086063354736   109.84581577   179.75798631
 H    133 132 131     1.086423777216   109.97145303    59.44168357
 H    135 134 121     1.098629491002   110.14366393    53.73007578
[...]
  15   27726.4    360.7   0.116657340   0.02211  -0.14859   0.00506  -0.00058
  16   28028.6    356.8   0.253143043   0.04849   0.07554   0.17478  -0.11062
  17   28072.9    356.2   0.061376244   0.01178   0.10448  -0.02483   0.01557
  18   28213.1    354.4   0.143637413   0.02770  -0.16421   0.02095   0.01716
  19   28713.5    348.3   0.130440442   0.02560   0.14804   0.01680  -0.05830
  20   28753.7    347.8   0.020129273   0.00396   0.06138  -0.00302   0.01338
  21   28843.7    346.7   0.032713240   0.00645   0.01305  -0.06373   0.04709
  22   29244.9    341.9   0.021966248   0.00439   0.04746   0.03633  -0.02860
  23   29327.1    341.0   0.010234419   0.00205  -0.04331  -0.01053   0.00805
  24   29424.2    339.9   0.010337488   0.00208  -0.04488   0.00453   0.00663
  25   29532.4    338.6   0.055562606   0.01121  -0.00446   0.10410  -0.01892
  26   29829.6    335.2   0.378432832   0.07715  -0.02009   0.27328  -0.04548
  27   29852.5    335.0   0.262899796   0.05364  -0.07883   0.21749  -0.01101
  28   29945.4    333.9   0.196958176   0.04031  -0.19675  -0.03412   0.02084
  29   30252.1    330.6   0.448225229   0.09267   0.16945   0.22552  -0.11447
  30   30382.7    329.1   0.169128728   0.03512  -0.12092  -0.13494   0.04786
  31   30595.1    326.8   0.156821783   0.03279  -0.14942  -0.04420   0.09225
  32   30673.7    326.0   0.224537819   0.04707   0.05048   0.20647  -0.04350
  33   30990.8    322.7   0.042227312   0.00894  -0.08566  -0.01030   0.03873
  34   31106.7    321.5   0.044450302   0.00945   0.04872   0.08006   0.02583
  35   31246.0    320.0   0.473323108   0.10108  -0.24473   0.19770   0.04583
  36   31354.6    318.9   0.052169842   0.01118   0.09740  -0.02587  -0.03198
  37   31543.6    317.0   0.058857869   0.01269   0.05725  -0.09214   0.03034
  38   31762.0    314.8   0.259303002   0.05629  -0.10873   0.21086   0.00184
  39   31854.0    313.9   0.030685781   0.00668   0.07611   0.01080  -0.02777
  40   31950.5    313.0   0.294140703   0.06423   0.11274   0.22298  -0.04241
  41   32213.5    310.4   0.243934978   0.05371   0.21597  -0.04775  -0.06916
  42   32285.4    309.7   0.408102289   0.09005  -0.19469   0.21760  -0.06926
  43   32333.4    309.3   0.134893743   0.02981  -0.04246  -0.13155   0.10344
  44   32530.4    307.4   0.026224760   0.00583   0.02606  -0.04661   0.05458
  45   32850.0    304.4   0.020138592   0.00452  -0.00706  -0.06339   0.02130
  46   33211.0    301.1   0.052390471   0.01189   0.03059   0.10432  -0.00856
  47   33575.2    297.8   0.120686904   0.02769  -0.12070   0.11427  -0.00818
  48   33741.8    296.4   0.055061228   0.01270   0.07834   0.06018  -0.05421
  49   33987.3    294.2   0.026592384   0.00618   0.07756   0.01102   0.00638
  50   34083.5    293.4   0.002617024   0.00061   0.00670   0.02359  -0.00288
  51   34328.0    291.3   0.028868633   0.00677  -0.00407  -0.07252   0.03870
  52   34407.4    290.6   0.051310027   0.01207   0.03853  -0.10100   0.01951
  53   34471.6    290.1   0.153169851   0.03609   0.16981  -0.08383   0.01488
  54   34605.2    289.0   0.009104428   0.00215   0.02514   0.02538   0.02961
  55   34652.2    288.6   0.043740197   0.01036  -0.03788   0.09191  -0.02181
  56   34716.9    288.0   0.045579925   0.01081  -0.04895   0.09044   0.01546
  57   34768.3    287.6   0.058770538   0.01397  -0.10506  -0.03799   0.03852
  58   34836.8    287.1   0.025953421   0.00618   0.07515   0.02142  -0.00850
  59   34943.8    286.2   0.054439650   0.01300   0.07502   0.07124  -0.04795
  60   35041.3    285.4   0.007596619   0.00182   0.04217  -0.00523   0.00366
  61   35188.3    284.2   0.002212615   0.00053  -0.02128  -0.00868  -0.00199
  62   35214.4    284.0   0.059754647   0.01438  -0.09267  -0.07545   0.01010
  63   35269.3    283.5   0.001248812   0.00030  -0.01525  -0.00804   0.00194
  64   35336.5    283.0   0.050436970   0.01218   0.01684   0.10751  -0.01842
  65   35459.5    282.0   0.015751305   0.00382  -0.02074   0.05777  -0.00708
  66   35556.0    281.2   0.045001285   0.01094  -0.02045  -0.10231   0.00713
  67   35704.0    280.1   0.008286925   0.00202  -0.04487  -0.00057  -0.00299
  68   35913.2    278.4   0.057892611   0.01421  -0.11778  -0.01586  -0.00925
  69   36057.7    277.3   0.035185084   0.00867  -0.02824   0.05880  -0.06645
  70   36133.7    276.8   0.196551056   0.04854  -0.21575  -0.02308   0.03821
  71   36213.3    276.1   0.009092043   0.00225  -0.04176   0.01395   0.01766
  72   36466.3    274.2   0.010846401   0.00270  -0.02871  -0.04130   0.01316
  73   36479.2    274.1   0.045095986   0.01124  -0.03549  -0.09937   0.01050
  74   36598.1    273.2   0.045960618   0.01150  -0.09285   0.04968  -0.02016
  75   36663.8    272.7   0.036362272   0.00911   0.08697  -0.03102  -0.02419
  76   36684.7    272.6   0.031532816   0.00791  -0.07258   0.05135  -0.00098
  77   36794.2    271.8   0.004599046   0.00116  -0.01528   0.03032   0.00194
  78   36919.4    270.9   0.021747857   0.00549   0.02557   0.06925  -0.00616
  79   36950.0    270.6   0.029052014   0.00734  -0.01629  -0.06715   0.05062
  80   37108.5    269.5   0.029606943   0.00751  -0.06163  -0.05029   0.03438
  81   37176.6    269.0   0.000968381   0.00025  -0.01212   0.00500  -0.00861
  82   37283.9    268.2   0.000915631   0.00023  -0.00353  -0.01414  -0.00457
  83   37517.5    266.5   0.017242681   0.00442  -0.00497  -0.06143   0.02497
  84   37709.8    265.2   0.039939673   0.01029   0.00924   0.09940  -0.01811
  85   37785.7    264.7   0.006538012   0.00169  -0.02441   0.03305   0.00012
  86   37879.2    264.0   0.004148388   0.00107  -0.01430   0.02756  -0.01048
  87   37904.4    263.8   0.004419921   0.00115   0.03259  -0.00892  -0.00177
  88   38008.0    263.1   0.009157673   0.00238   0.04081  -0.01402  -0.02274
  89   38026.3    263.0   0.216969242   0.05639   0.14509  -0.18272  -0.04415
  90   38230.7    261.6   0.019246993   0.00503  -0.05429   0.04497   0.00767
  91   38309.5    261.0   0.010578678   0.00277  -0.02345  -0.00195   0.04708
  92   38358.3    260.7   0.037187810   0.00975  -0.07042   0.06878  -0.00773
  93   38406.5    260.4   0.007633359   0.00200   0.03704  -0.00373  -0.02486
  94   38434.9    260.2   0.022254405   0.00585  -0.02909   0.06754  -0.02094
  95   38495.9    259.8   0.039581739   0.01041  -0.00955  -0.08968   0.04774
  96   38585.4    259.2   0.018418655   0.00486  -0.06684  -0.01593   0.01165
  97   38631.4    258.9   0.053465687   0.01412  -0.10630   0.05118   0.01403
  98   38692.7    258.4   0.007621223   0.00202  -0.01666   0.03721  -0.01881
  99   38749.1    258.1   0.029204156   0.00773  -0.04601   0.06767  -0.03223
 100   38795.1    257.8   0.023450877   0.00622  -0.04793   0.06253  -0.00335
 101   38823.3    257.6   0.013768369   0.00365   0.04467   0.01622  -0.03735
 102   38897.3    257.1   0.017834287   0.00474   0.03916   0.05066  -0.02533
 103   38929.5    256.9   0.021903868   0.00583  -0.07079   0.01858   0.02172
 104   39031.1    256.2   0.000676846   0.00018   0.00178   0.01261   0.00429
 105   39049.2    256.1   0.013150434   0.00351  -0.05531   0.00930   0.01907
 106   39205.5    255.1   0.001075427   0.00029   0.00508   0.01209   0.01078
 107   39258.4    254.7   0.000936501   0.00025   0.00608   0.00587  -0.01341
 108   39303.5    254.4   0.027756718   0.00746  -0.05425   0.05827  -0.03344
 109   39354.6    254.1   0.009206736   0.00248  -0.00813   0.04349  -0.02278
 110   39415.4    253.7   0.013211408   0.00356   0.02607   0.04827  -0.02343
 111   39535.2    252.9   0.010751035   0.00290   0.05341  -0.00365  -0.00627
 112   39644.6    252.2   0.081204399   0.02200  -0.13167  -0.04115   0.05451
 113   39653.0    252.2   0.016845008   0.00457  -0.04822  -0.00459   0.04711
 114   39807.0    251.2   0.011730225   0.00319  -0.05390   0.00322  -0.01659
 115   39858.7    250.9   0.028581547   0.00779  -0.07705  -0.01981  -0.03816
 116   39922.5    250.5   0.172259713   0.04700   0.00735   0.20892  -0.05745
 117   39960.7    250.2   0.019904033   0.00544   0.05043  -0.05219   0.01298
 118   40018.1    249.9   0.005764824   0.00158   0.00997  -0.03442   0.01712
 119   40082.8    249.5   0.008714079   0.00239  -0.03586  -0.03188   0.00921
 120   40121.2    249.2   0.015827892   0.00434  -0.03524   0.05419   0.01271
 121   40160.1    249.0   0.014208280   0.00390  -0.04124   0.04295  -0.01883
 122   40219.4    248.6   0.046221189   0.01271   0.01131   0.10988  -0.02243
 123   40235.8    248.5   0.009703093   0.00267  -0.03288   0.03825   0.01114
 124   40269.1    248.3   0.045874051   0.01263   0.10967   0.00403  -0.02410

-------------------------------------------------------------------
                             CD SPECTRUM
-------------------------------------------------------------------
State   Energy Wavelength       R         MX        MY        MZ   
        (cm-1)   (nm)       (1e40*cgs)   (au)      (au)      (au)  
-------------------------------------------------------------------
   0   17220.2    580.7    -1957.65682   0.85065   1.47451  17.03131
   1   18390.9    543.7    2555.63692  -1.24903   0.59760 -12.98261
   2   19841.0    504.0    -613.76503  -3.13899   2.17198 -17.58560
   3   21907.7    456.5    -33.13338   0.55036  -0.73652   0.48029
   4   22725.1    440.0    -120.52230   0.25881  -0.21900   1.25084
   5   24539.1    407.5    342.11157   0.20613   0.56137   7.81889
   6   25015.8    399.7    -243.84432  -0.72108   1.21135  -0.08905
   7   25432.5    393.2    -26.24685  -0.16117  -0.14716  -0.78247
   8   25665.6    389.6    -625.49294   0.90816   0.30685   9.64512
   9   25743.3    388.5    485.33547   1.50681  -0.99456   9.70399
  10   26717.3    374.3      5.04097   0.36012  -0.06229   3.10078
  11   27095.4    369.1    -139.16807  -0.31133   0.04690  -6.70183
  12   27257.0    366.9    -99.43516   0.46555  -0.22128  -0.57162
  13   27468.4    364.1    314.58552  -0.44149   1.34067   0.04504
  14   27584.2    362.5     28.24551  -0.07836   0.79900  -0.66097
  15   27726.4    360.7      6.15376   0.03578   0.35370   3.91768
  16   28028.6    356.8    -580.08254  -2.85020   2.49654  -0.68441
  17   28072.9    356.2    474.63936  -1.69277   1.16686  -2.04851
  18   28213.1    354.4    371.95317   1.29819  -1.59455   3.72637
  19   28713.5    348.3    -133.10684  -1.47536   1.90176  -4.58420
  20   28753.7    347.8     47.32751  -0.16403  -0.11086  -1.59234
  21   28843.7    346.7    -111.86275   0.34256  -0.06110   1.03596
  22   29244.9    341.9      7.15829  -2.19567   1.17985  -2.01250
  23   29327.1    341.0     33.09339   1.08730  -0.37248   3.42533
  24   29424.2    339.9     -2.10845   0.20378  -0.10501   1.58680
  25   29532.4    338.6    -66.62781  -1.35710   0.98877   3.59921
  26   29829.6    335.2    195.91530  -0.44522   1.78556  13.09652
  27   29852.5    335.0    176.26585   1.39480   0.91921  16.22962
  28   29945.4    333.9     43.75056   0.16073  -0.59022  -0.52076
  29   30252.1    330.6    270.01727  -0.95194   1.67872   3.20606
  30   30382.7    329.1    -16.82895   0.27816  -0.34143  -0.05743
  31   30595.1    326.8    -696.40126   3.41751  -3.03116   8.16989
  32   30673.7    326.0    475.88009   0.56591  -0.22580   6.09074
  33   30990.8    322.7    -157.08550   0.34172  -2.00167   2.66818
  34   31106.7    321.5    -157.22779   0.51945  -0.66514   3.99309
  35   31246.0    320.0    -103.84846   1.72180  -1.17134  16.16650
  36   31354.6    318.9    349.69138  -2.24083   2.76729  -2.88632
  37   31543.6    317.0     17.51660   0.71431  -1.04523  -4.97140
  38   31762.0    314.8     -4.33126   0.49296   0.17091  15.74269
  39   31854.0    313.9     43.93744  -0.98892   1.31942  -1.31119
  40   31950.5    313.0     82.31902  -2.06756   1.59975   3.78110
  41   32213.5    310.4    142.64540  -3.27243   2.68530 -10.60132
  42   32285.4    309.7    -119.60275  -0.99240   1.66847   6.89153
  43   32333.4    309.3    -724.26151   1.66800  -3.12492   0.76192
  44   32530.4    307.4     11.59339  -0.03036  -1.55760  -1.56932
  45   32850.0    304.4    -30.01281   0.52604  -0.47073  -0.34699
  46   33211.0    301.1     49.40621   0.11706   0.08883   4.28653
  47   33575.2    297.8    141.61316   0.19484  -0.02510   5.92198
  48   33741.8    296.4    -26.87634  -1.02577   2.03607   0.50276
  49   33987.3    294.2      4.45978   0.01119  -0.06378  -0.58113
  50   34083.5    293.4    -10.28007  -0.00373   0.30871   1.01009
  51   34328.0    291.3    -104.95259   0.85439  -1.16145  -0.22492
  52   34407.4    290.6    -100.83868   0.95893  -0.72171  -2.48883
  53   34471.6    290.1    396.68681  -0.89751   0.10093  -5.32807
  54   34605.2    289.0    -135.86123   0.82995  -0.98688   2.96663
  55   34652.2    288.6    136.18393   0.15888   0.18009   3.85727
  56   34716.9    288.0    -10.46131   0.37132  -0.60102   5.22624
  57   34768.3    287.6    -92.90473   0.84123  -0.59477   2.71865
  58   34836.8    287.1     15.69386  -0.16282   0.33048   0.43154
  59   34943.8    286.2    -42.66449  -1.73102   1.96664  -0.67452
  60   35041.3    285.4     48.92607  -0.53509   0.10925  -1.33813
  61   35188.3    284.2     18.44074   0.20057   0.45356   1.32429
  62   35214.4    284.0      3.31045   0.61263  -0.84615  -0.78780
  63   35269.3    283.5     13.79674   0.73395  -0.61955  -0.54405
  64   35336.5    283.0    -29.41639  -1.33343   0.42105   1.05346
  65   35459.5    282.0     17.74460  -0.15096   0.19644   2.39689
  66   35556.0    281.2     40.80987  -0.24065  -0.03001  -5.32300
  67   35704.0    280.1    -32.80391  -0.78171   0.45048   0.78899
  68   35913.2    278.4    -27.70918  -0.22066  -0.01141   0.79235
  69   36057.7    277.3    -478.57181  -1.92817   2.16897  -1.68737
  70   36133.7    276.8    446.61567   1.95064  -2.02912   2.71973
  71   36213.3    276.1    -23.30648   0.46509  -0.44990   2.53517
  72   36466.3    274.2     -0.45195  -0.37110  -0.12610  -1.29780
  73   36479.2    274.1    -54.46474   0.23514  -0.60292  -1.87232
  74   36598.1    273.2    -117.20586  -0.76602   0.92029   1.87591
  75   36663.8    272.7     54.96496  -1.51443   0.93534  -5.23816
  76   36684.7    272.6     33.58441   0.20989  -0.11259   4.71069
  77   36794.2    271.8    -18.29640  -0.34375   0.11053   1.10113
  78   36919.4    270.9     46.95383   0.24627  -0.13657   4.05374
  79   36950.0    270.6    -58.82171   1.29371  -1.91657  -1.24122
  80   37108.5    269.5     -6.34793   1.06020  -1.43025  -0.42041
  81   37176.6    269.0      5.62090   0.04009  -0.10167   0.61851
  82   37283.9    268.2      2.16681  -0.07878   0.16975  -0.72799
  83   37517.5    266.5     51.65943   0.19612  -0.87492  -3.27332
  84   37709.8    265.2     50.54133  -0.40721   0.68458   4.42655
  85   37785.7    264.7     -9.79525  -0.10343   0.13404   1.64911
  86   37879.2    264.0     -5.63795  -0.35387   0.27770   0.93713
  87   37904.4    263.8    -12.90491   0.13231  -0.34232  -2.95287
  88   38008.0    263.1    -42.40567  -0.50500   0.90989  -2.72155
  89   38026.3    263.0    -136.06929  -2.43041   1.71840 -16.16276
  90   38230.7    261.6     35.04713   0.54276  -0.57529   4.07207
  91   38309.5    261.0    -53.12784   0.27314  -0.70507   0.87415
  92   38358.3    260.7     92.42105   0.26014   0.21844   6.46398
  93   38406.5    260.4     11.25392  -0.28537   0.61884  -0.29049
  94   38434.9    260.2     21.40628  -0.62155   0.90615   3.99518
  95   38495.9    259.8    -60.68976   1.55552  -1.61437  -2.07215
  96   38585.4    259.2     -2.04401   0.19197  -0.80837  -0.37376
  97   38631.4    258.9    -55.53567   0.42629   0.06497   6.36753
  98   38692.7    258.4     -5.86343  -0.39340   0.77791   1.41816
  99   38749.1    258.1     74.75365   0.14393   0.70461   2.82058
 100   38795.1    257.8     27.14455   0.11335  -0.13078   1.35018
 101   38823.3    257.6     52.80491  -0.25179   0.57708   0.89239
 102   38897.3    257.1    136.00465  -0.44281   1.19430   4.75763
 103   38929.5    256.9      3.53074   0.22415  -0.49624   0.87311
 104   39031.1    256.2    -13.44804   0.57129  -0.62047   1.55900
 105   39049.2    256.1      0.26006   0.88865  -0.83534   2.91066
 106   39205.5    255.1     22.44797   0.21073  -0.56747  -0.80421
 107   39258.4    254.7     -3.50235  -0.26747   0.37725   0.00119
 108   39303.5    254.4     37.12281  -0.26932   0.54794   2.06969
 109   39354.6    254.1    -54.77641  -0.40324   0.86199  -0.03580
 110   39415.4    253.7     51.12195  -0.27418   0.40623   1.79608
 111   39535.2    252.9     30.11032  -0.73583   0.35623  -3.09686
 112   39644.6    252.2    -38.84210   0.62975  -1.18424   1.14564
 113   39653.0    252.2     84.26315   0.64841  -1.67203  -0.60896
 114   39807.0    251.2    -66.00997  -0.48650   0.62073  -0.79673
 115   39858.7    250.9    -86.75168  -0.92837   1.01018  -0.16598
 116   39922.5    250.5    149.09115  -0.22417   0.56254   4.02236
 117   39960.7    250.2    -11.33150   0.05764  -0.40464  -1.03660
 118   40018.1    249.9    -30.17419   0.41892  -0.57803  -0.09930
 119   40082.8    249.5     25.70533  -0.33488  -0.00898  -2.38137
 120   40121.2    249.2    -19.30265   0.57414  -0.34485   3.27959
 121   40160.1    249.0     62.61114   0.14207  -0.07584   1.72570
 122   40219.4    248.6    -31.60051  -0.31705   0.98172   3.32096
 123   40235.8    248.5      9.35836   0.48465  -0.68384   2.76958
 124   40269.1    248.3    -90.52699  -0.24247   0.48524  -3.74810

sTD-DFT done

Total run time:       82.896 sec

           *** ORCA-CIS/TD-DFT FINISHED WITHOUT ERROR ***

-------------------------   --------------------
FINAL SINGLE POINT ENERGY    -15411.918742263255
-------------------------   --------------------


                            ***************************************
                            *     ORCA property calculations      *
                            ***************************************

                                    ---------------------
                                    Active property flags
                                    ---------------------
   (+) Dipole Moment


------------------------------------------------------------------------------
                       ORCA ELECTRIC PROPERTIES CALCULATION
------------------------------------------------------------------------------

Dipole Moment Calculation                       ... on
Quadrupole Moment Calculation                   ... off
Polarizability Calculation                      ... off
GBWName                                         ... PBQ-4F.gbw
Electron density file                           ... PBQ-4F.scfp
The origin for moment calculation is the CENTER OF MASS  = (-31.259207, -25.960389  0.565524)

-------------
DIPOLE MOMENT
-------------
                                X             Y             Z
Electronic contribution:   -139.06456      82.21732      27.88943
Nuclear contribution   :    141.24561     -83.99062     -28.78563
                        -----------------------------------------
Total Dipole Moment    :      2.18104      -1.77330      -0.89619
                        -----------------------------------------
Magnitude (a.u.)       :      2.95037
Magnitude (Debye)      :      7.49925



--------------------
Rotational spectrum 
--------------------
 
Rotational constants in cm-1:     0.000147     0.000032     0.000027 
Rotational constants in MHz :     4.418973     0.963502     0.813031 

 Dipole components along the rotational axes: 
x,y,z [a.u.] :     0.007106     2.813066    -0.889560 
x,y,z [Debye]:     0.018062     7.150245    -2.261083 

 

Timings for individual modules:

Sum of individual times         ...    27071.401 sec (= 451.190 min)
GTO integral calculation        ...       27.979 sec (=   0.466 min)   0.1 %
SCF iterations                  ...    26960.048 sec (= 449.334 min)  99.6 %
CIS module                      ...       83.374 sec (=   1.390 min)   0.3 %
                             ****ORCA TERMINATED NORMALLY****
TOTAL RUN TIME: 0 days 7 hours 31 minutes 14 seconds 501 msec
