
                                 *****************
                                 * O   R   C   A *
                                 *****************

           --- An Ab Initio, DFT and Semiempirical electronic structure package ---

                  #######################################################
                  #                        -***-                        #
                  #          Department of theory and spectroscopy      #
                  #               Directorship: Frank Neese             #
                  #        Max Planck Institute fuer Kohlenforschung    #
                  #                Kaiser Wilhelm Platz 1               #
                  #                 D-45470 Muelheim/Ruhr               #
                  #                      Germany                        #
                  #                                                     #
                  #                  All rights reserved                #
                  #                        -***-                        #
                  #######################################################


                         Program Version 4.2.0 -  RELEASE  -


 With contributions from (in alphabetic order):
   Daniel Aravena         : Magnetic Suceptibility
   Michael Atanasov       : Ab Initio Ligand Field Theory (pilot matlab implementation)
   Alexander A. Auer      : GIAO ZORA, VPT2
   Ute Becker             : Parallelization
   Giovanni Bistoni       : ED, misc. LED, open-shell LED, HFLED
   Martin Brehm           : Molecular dynamics
   Dmytro Bykov           : SCF Hessian
   Vijay G. Chilkuri      : MRCI spin determinant printing, contributions to CSF-ICE
   Dipayan Datta          : RHF DLPNO-CCSD density
   Achintya Kumar Dutta   : EOM-CC, STEOM-CC
   Dmitry Ganyushin       : Spin-Orbit,Spin-Spin,Magnetic field MRCI
   Miquel Garcia          : C-PCM Hessian, Gaussian charge scheme
   Yang Guo               : DLPNO-NEVPT2, CIM, IAO-localization
   Andreas Hansen         : Spin unrestricted coupled pair/coupled cluster methods
   Benjamin Helmich-Paris : CASSCF linear response (MC-RPA)
   Lee Huntington         : MR-EOM, pCC
   Robert Izsak           : Overlap fitted RIJCOSX, COSX-SCS-MP3, EOM
   Christian Kollmar      : KDIIS, OOCD, Brueckner-CCSD(T), CCSD density
   Simone Kossmann        : Meta GGA functionals, TD-DFT gradient, OOMP2, MP2 Hessian
   Martin Krupicka        : AUTO-CI
   Lucas Lang             : DCDCAS
   Dagmar Lenk            : GEPOL surface, SMD
   Dimitrios Liakos       : Extrapolation schemes; Compound Job, initial MDCI parallelization
   Dimitrios Manganas     : Further ROCIS development; embedding schemes
   Dimitrios Pantazis     : SARC Basis sets
   Taras Petrenko         : DFT Hessian,TD-DFT gradient, ASA, ECA, R-Raman, ABS, FL, XAS/XES, NRVS
   Peter Pinski           : DLPNO-MP2, DLPNO-MP2 Gradient
   Christoph Reimann      : Effective Core Potentials
   Marius Retegan         : Local ZFS, SOC
   Christoph Riplinger    : Optimizer, TS searches, QM/MM, DLPNO-CCSD(T), (RO)-DLPNO pert. Triples
   Tobias Risthaus        : Range-separated hybrids, TD-DFT gradient, RPA, STAB
   Michael Roemelt        : Original ROCIS implementation
   Masaaki Saitow         : Open-shell DLPNO-CCSD energy and density
   Barbara Sandhoefer     : DKH picture change effects
   Avijit Sen             : IP-ROCIS
   Kantharuban Sivalingam : CASSCF convergence, NEVPT2, FIC-MRCI
   Bernardo de Souza      : ESD, SOC TD-DFT
   Georgi Stoychev        : AutoAux, RI-MP2 NMR
   Willem Van den Heuvel  : Paramagnetic NMR
   Boris Wezisla          : Elementary symmetry handling
   Frank Wennmohs         : Technical directorship


 We gratefully acknowledge several colleagues who have allowed us to
 interface, adapt or use parts of their codes:
   Stefan Grimme, W. Hujo, H. Kruse,             : VdW corrections, initial TS optimization,
                  C. Bannwarth                     DFT functionals, gCP, sTDA/sTD-DF
   Ed Valeev, F. Pavosevic, A. Kumar             : LibInt (2-el integral package), F12 methods
   Garnet Chan, S. Sharma, J. Yang, R. Olivares  : DMRG
   Ulf Ekstrom                                   : XCFun DFT Library
   Mihaly Kallay                                 : mrcc  (arbitrary order and MRCC methods)
   Andreas Klamt, Michael Diedenhofen            : otool_cosmo (COSMO solvation model)
   Jiri Pittner, Ondrej Demel                    : Mk-CCSD
   Frank Weinhold                                : gennbo (NPA and NBO analysis)
   Christopher J. Cramer and Donald G. Truhlar   : smd solvation model
   Lars Goerigk                                  : TD-DFT with DH, B97 family of functionals
   V. Asgeirsson, H. Jonsson                     : NEB implementation
   FAccTs GmbH                                   : IRC, NEB, NEB-TS, Multilevel, MM, QM/MM, CI optimization
   S Lehtola, MJT Oliveira, MAL Marques          : LibXC Library


 Your calculation uses the libint2 library for the computation of 2-el integrals
 For citations please refer to: http://libint.valeyev.net

 Your ORCA version has been built with support for libXC version: 4.2.3
 For citations please refer to: https://tddft.org/programs/libxc/

 This ORCA versions uses:
   CBLAS   interface :  Fast vector & matrix operations
   LAPACKE interface :  Fast linear algebra routines
   SCALAPACK package :  Parallel linear algebra routines


XCFun DFT library Copyright 2009-2010 Ulf Ekstrom and contributors.
See http://admol.org/xcfun for more information. This is free soft-
ware; see the source code for copying conditions. There is ABSOLUTELY
NO WARRANTY; not even for MERCHANTABILITY or FITNESS FOR A PARTICULAR
PURPOSE. For details see the documentation. Scientific users of this 
library should cite U. Ekstrom, L. Visscher, R. Bast, A. J. Thorvald-
sen and K. Ruud; J.Chem.Theor.Comp. 2010, DOI: 10.1021/ct100117s
XCFun Version 0.99 
----- Orbital basis set information -----
Your calculation utilizes the basis: def2-SVP
   F. Weigend and R. Ahlrichs, Phys. Chem. Chem. Phys. 7, 3297 (2005).

----- AuxJ basis set information -----
Your calculation utilizes the auxiliary basis: def2/J
   F. Weigend, Phys. Chem. Chem. Phys. 8, 1057 (2006).

================================================================================
                                        WARNINGS
                       Please study these warnings very carefully!
================================================================================

INFO   : Checking CIS options ...

WARNING: CIS/ROCIS methods need fully converged wavefunctions
  ===> : Setting SCFConvForced true
         You can overwrite this default with %scf ConvForced false 


INFO   : the flag for use of LIBINT has been found!

================================================================================
                                       INPUT FILE
================================================================================
NAME = PCl3BDB-T.inp
|  1> # ORCA input file
|  2> # SCF done       -459.578824495900          0.000957479390
|  3> ! CAM-B3LYP def2-SVP def2/J RIJCOSX Grid4 TightSCF
|  4> %maxcore 5000
|  5> %tddft
|  6>     Mode sTDDFT
|  7>     Ethresh 5.0
|  8>     maxcore 5000
|  9> end
| 10> * xyz 0 1
| 11>    C        0.99078         0.66731         0.41210
| 12>    C        1.86729        -0.41073         0.62552
| 13>    C        1.35918        -1.68918         0.95246
| 14>    C       -0.00056        -1.98278         1.03617
| 15>    C       -0.88053        -0.89802         0.84225
| 16>    C       -0.36785         0.39063         0.55242
| 17>    C        3.29174        -0.40633         0.58574
| 18>    C        3.85220        -1.58703         0.92601
| 19>    S        2.65708        -2.80216         1.29870
| 20>    C       -2.29426        -0.88912         0.95184
| 21>    C       -2.84725         0.34954         0.82171
| 22>    S       -1.64423         1.57705         0.48728
| 23>    C        1.45090         2.00890         0.11334
| 24>    C       -0.45160        -3.32067         1.35760
| 25>    C        0.86624         2.92542        -0.71613
| 26>    C        1.54186         4.15901        -0.74719
| 27>    C        2.63096         4.20984         0.06871
| 28>    S        2.85715         2.69807         0.87945
| 29>    C        0.11707        -4.50774         0.98066
| 30>    C       -0.51102        -5.63272         1.54291
| 31>    C       -1.55923        -5.32322         2.35714
| 32>    S       -1.79991        -3.61271         2.42266
| 33>    C        3.52781         5.37682         0.31862
| 34>    C        4.83462         4.99285         0.99910
| 35>    C       -2.42803        -6.27434         3.11241
| 36>    C       -3.37475        -5.58297         4.08454
| 37>    C        5.29798        -1.91963         0.98690
| 38>    C       -4.22920         0.70057         0.88279
| 39>    C       -5.32632        -0.11062         0.72490
| 40>    C       -6.53583         0.60288         0.71796
| 41>    C       -6.39091         1.96380         0.91060
| 42>    S       -4.70091         2.35595         1.09019
| 43>    C       -7.30324         3.05527         0.83071
| 44>    S       -6.64488         4.54817         0.22660
| 45>    C       -8.19227         5.34677         0.31224
| 46>    C       -9.17192         4.46983         0.73554
| 47>    C       -8.65413         3.18757         1.09842
| 48>    C      -10.61338         4.73386         0.65790
| 49>    C      -11.42970         3.70351         1.29256
| 50>    C      -10.88137         2.51564         1.87703
| 51>    C       -9.44698         2.21884         1.86507
| 52>    C      -12.79494         3.78421         1.41747
| 53>    S      -13.41781         2.40401         2.25313
| 54>    C      -11.83934         1.71475         2.44279
| 55>    C       -8.17015         6.74553         0.03156
| 56>    C       -8.83778         7.83304         0.56009
| 57>    C       -8.28600         9.07833         0.19743
| 58>    S       -6.84878         7.29535        -0.96025
| 59>    O      -11.07866         5.69431         0.06409
| 60>    O       -8.93748         1.29779         2.48112
| 61>    C      -13.68436         4.87020         0.93087
| 62>    C      -15.11185         4.75961         1.44576
| 63>    C      -11.68356         0.38326         3.08416
| 64>    C      -11.70525        -0.72871         2.03095
| 65>    C       -2.63333        10.54009        -1.73231
| 66>    C       -4.01055        10.62287        -1.46886
| 67>    C       -4.63149        11.87113        -1.22520
| 68>    C       -3.94368        13.08320        -1.28013
| 69>    C       -2.55397        13.00705        -1.52688
| 70>    C       -1.94508        11.74379        -1.73265
| 71>    C       -4.90221         9.54225        -1.31499
| 72>    C       -6.16590         9.90952        -0.95820
| 73>    S       -6.32513        11.64781        -0.83290
| 74>    C       -1.59107        14.05408        -1.53036
| 75>    C       -0.31411        13.62159        -1.73921
| 76>    S       -0.23437        11.88851        -1.97541
| 77>    C       -1.95788         9.26919        -1.91317
| 78>    C       -4.62920        14.34398        -1.08773
| 79>    C       -0.79412         8.85491        -1.32684
| 80>    C       -0.42660         7.54173        -1.68159
| 81>    C       -1.28682         6.95184        -2.55573
| 82>    S       -2.59216         8.02127        -2.94997
| 83>    C       -5.65312        14.62963        -0.22791
| 84>    C       -6.12044        15.95369        -0.33408
| 85>    C       -5.47503        16.68404        -1.28396
| 86>    S       -4.24827        15.74008        -2.06060
| 87>    C       -1.26964         5.56746        -3.10524
| 88>    C       -2.13581         4.63238        -2.25508
| 89>    C       -5.67426        18.11340        -1.65251
| 90>    C       -4.51685        18.98156        -1.15431
| 91>    C       -7.16633         8.96374        -0.58446
| 92>    C        0.94440        14.30089        -1.71643
| 93>    C        1.29836        15.62695        -1.73846
| 94>    C        2.69332        15.82903        -1.67481
| 95>    C        3.42447        14.66470        -1.58043
| 96>    S        2.35128        13.29416        -1.61714
| 97>    C        4.80378        14.30229        -1.45903
| 98>    S        5.22310        12.81357        -2.25429
| 99>    C        6.75916        12.71897        -1.43944
|100>    C        6.96693        13.84742        -0.67119
|101>    C        5.85667        14.75048        -0.68671
|102>    C        8.10528        14.03488         0.23701
|103>    C        8.21441        15.40637         0.74369
|104>    C        7.10590        16.31683         0.71881
|105>    C        5.79658        15.93177         0.18379
|106>    C        9.33340        15.94378         1.32181
|107>    S        9.05280        17.58550         1.80346
|108>    C        7.40166        17.53197         1.27770
|109>    C        7.40979        11.45201        -1.57535
|110>    C        8.70201        10.97175        -1.60884
|111>    C        8.79143         9.56953        -1.76306
|112>    S        6.29207        10.13216        -1.78028
|113>    O        8.85587        13.12716         0.55003
|114>    O        4.75430        16.50956         0.43990
|115>    C       10.68251        15.34059         1.48264
|116>    C       11.63314        15.83312         0.38810
|117>    C        6.54407        18.74051         1.39499
|118>    C        6.93089        19.78969         0.34942
|119>    C        4.34689         5.47619        -3.25445
|120>    C        5.55506         6.01645        -2.77433
|121>    C        6.54613         5.19207        -2.19014
|122>    C        6.38715         3.81605        -2.03112
|123>    C        5.18401         3.26476        -2.52619
|124>    C        4.21114         4.09978        -3.13076
|125>    C        5.92416         7.37740        -2.74802
|126>    C        7.11943         7.62659        -2.14148
|127>    S        7.89822         6.15106        -1.61922
|128>    C        4.74612         1.91765        -2.47211
|129>    C        3.48799         1.73227        -2.96834
|130>    S        2.79631         3.20650        -3.59626
|131>    C        3.28806         6.29554        -3.80891
|132>    C        7.38078         3.02613        -1.33457
|133>    C        2.47888         6.01192        -4.87472
|134>    C        1.56657         7.04234        -5.17431
|135>    C        1.65170         8.10992        -4.33392
|136>    S        2.86631         7.84865        -3.13002
|137>    C        8.74003         3.17793        -1.35233
|138>    C        9.41731         2.28369        -0.50190
|139>    C        8.58716         1.45477         0.18856
|140>    S        6.93361         1.75684        -0.22355
|141>    C        0.91414         9.40081        -4.38721
|142>    C        1.86305        10.57987        -4.60686
|143>    C        8.94438         0.35806         1.13196
|144>    C        9.17309        -0.95799         0.38340
|145>    C        7.57085         8.96371        -1.89707
|146>    C        2.67391         0.56478        -2.93012
|147>    C        2.97445        -0.71505        -2.53917
|148>    C        1.84512        -1.54799        -2.45412
|149>    C        0.65328        -0.92370        -2.78507
|150>    S        0.98235         0.71978        -3.26531
|151>    C       -0.72585        -1.25413        -2.65777
|152>    S       -1.82701         0.09914        -2.73068
|153>    C       -3.19014        -0.88485        -2.29975
|154>    C       -2.78853        -2.18388        -2.03722
|155>    C       -1.41266        -2.41612        -2.35330
|156>    C       -3.55426        -3.16614        -1.26416
|157>    C       -2.94689        -4.49032        -1.22133
|158>    C       -1.71930        -4.80263        -1.88896
|159>    C       -0.93460        -3.78423        -2.58308
|160>    C       -3.51728        -5.58092        -0.61306
|161>    S       -2.54725        -6.99384        -0.84885
|162>    C       -1.37403        -6.12436        -1.78617
|163>    C       -4.48018        -0.28056        -2.36145
|164>    C       -5.72059        -0.81586        -2.64176
|165>    C       -6.75271         0.14641        -2.70039
|166>    C       -6.29796         1.40788        -2.49338
|167>    S       -4.60529         1.45530        -2.23614
|168>    O       -4.56428        -2.87162        -0.63937
|169>    O       -0.02702        -4.03344        -3.35983
|170>    C       -4.78735        -5.62814         0.15555
|171>    C       -5.35242        -7.03318         0.30873
|172>    C       -0.20860        -6.81959        -2.39143
|173>    C        0.36647        -7.92395        -1.51217
|174>   Cl       -8.01101        -0.15799         0.33885
|175>   Cl      -10.11077         7.72148         1.69044
|176>   Cl        3.39529        17.37849        -1.80152
|177>   Cl       10.08845        11.96463        -1.58888
|178>   Cl        2.01906        -3.14530        -1.90017
|179>   Cl       -6.00972        -2.45558        -3.00338
|180>    H        3.87586         0.45288         0.31157
|181>    H       -2.89217        -1.75988         1.14111
|182>    H        0.00133         2.71301        -1.31705
|183>    H        1.23320         4.98347        -1.36356
|184>    H        0.94404        -4.57519         0.29765
|185>    H       -0.19391        -6.64496         1.36467
|186>    H        2.99582         6.10024         0.94668
|187>    H        3.73335         5.87294        -0.63446
|188>    H        4.64276         4.58741         1.99024
|189>    H        5.47895         5.86305         1.09861
|190>    H        5.35830         4.23751         0.41874
|191>    H       -1.78413        -6.97060         3.65867
|192>    H       -3.00507        -6.87034         2.39750
|193>    H       -2.81341        -5.01005         4.81917
|194>    H       -3.98188        -6.31768         4.60773
|195>    H       -4.03750        -4.89955         3.55741
|196>    H        5.88618        -1.03726         0.74516
|197>    H        5.53638        -2.71637         0.28223
|198>    H        5.57047        -2.26715         1.98269
|199>    H       -5.26773        -1.16863         0.54321
|200>    H       -8.66891        10.01602         0.55672
|201>    H      -13.67659         4.85638        -0.16421
|202>    H      -13.24381         5.82938         1.21937
|203>    H      -15.56466         3.82436         1.12224
|204>    H      -15.71170         5.58266         1.06622
|205>    H      -15.12997         4.79139         2.53318
|206>    H      -12.49344         0.22528         3.79932
|207>    H      -10.72711         0.35554         3.60844
|208>    H      -12.63351        -0.70220         1.46332
|209>    H      -11.61772        -1.69820         2.51381
|210>    H      -10.87067        -0.60768         1.34520
|211>    H       -4.61100         8.51278        -1.41128
|212>    H       -1.82914        15.08460        -1.34356
|213>    H       -0.23610         9.45775        -0.63289
|214>    H        0.45373         7.06069        -1.29488
|215>    H       -6.03666        13.92549         0.48771
|216>    H       -6.91467        16.34989         0.27345
|217>    H       -0.24191         5.19904        -3.13009
|218>    H       -1.64994         5.57609        -4.12882
|219>    H       -1.77092         4.60001        -1.23141
|220>    H       -2.11773         3.62492        -2.66309
|221>    H       -3.16673         4.97877        -2.24047
|222>    H       -6.61128        18.46069        -1.21247
|223>    H       -5.74987        18.20755        -2.73870
|224>    H       -4.42650        18.90750        -0.07289
|225>    H       -4.68475        20.02226        -1.41927
|226>    H       -3.58144        18.65485        -1.60305
|227>    H        0.59570        16.43596        -1.81380
|228>    H        9.72940         9.04652        -1.80519
|229>    H       10.58685        14.25580         1.42711
|230>    H       11.08784        15.61032         2.46042
|231>    H       11.25875        15.54753        -0.59254
|232>    H       12.61679        15.39173         0.52423
|233>    H       11.72839        16.91674         0.42297
|234>    H        6.65571        19.16957         2.39366
|235>    H        5.50451        18.44273         1.25473
|236>    H        7.97067        20.08725         0.47198
|237>    H        6.30152        20.66924         0.45546
|238>    H        6.79901        19.38917        -0.65344
|239>    H        5.32926         8.16427        -3.17176
|240>    H        5.32635         1.11140        -2.06545
|241>    H        2.56953         5.11644        -5.46256
|242>    H        0.87568         6.99708        -5.99730
|243>    H        9.24477         3.88589        -1.98427
|244>    H       10.48775         2.26103        -0.40008
|245>    H        0.37521         9.56059        -3.45066
|246>    H        0.18399         9.35082        -5.19763
|247>    H        2.56021        10.66266        -3.77577
|248>    H        1.29761        11.50544        -4.67243
|249>    H        2.42884        10.44982        -5.52675
|250>    H        8.14339         0.22562         1.86221
|251>    H        9.85581         0.63231         1.66754
|252>    H        8.27916        -1.24357        -0.16627
|253>    H        9.41736        -1.75194         1.08440
|254>    H        9.99245        -0.85242        -0.32368
|255>    H        3.96207        -1.05339        -2.28790
|256>    H       -7.77792        -0.10858        -2.89253
|257>    H       -6.85826         2.32135        -2.48200
|258>    H       -5.51068        -4.97591        -0.34248
|259>    H       -4.61127        -5.18490         1.14160
|260>    H       -5.55929        -7.46922        -0.66614
|261>    H       -6.27804        -7.00352         0.87751
|262>    H       -4.64883        -7.68115         0.82854
|263>    H        0.55385        -6.07196        -2.62100
|264>    H       -0.52738        -7.24940        -3.34784
|265>    H        0.75346        -7.50938        -0.58456
|266>    H        1.18155        -8.42363        -2.02941
|267>    H       -0.39643        -8.66294        -1.27343
|268> *
|269> 
|270>                          ****END OF INPUT****
================================================================================

                       ****************************
                       * Single Point Calculation *
                       ****************************

---------------------------------
CARTESIAN COORDINATES (ANGSTROEM)
---------------------------------
  C      0.990780    0.667310    0.412100
  C      1.867290   -0.410730    0.625520
  C      1.359180   -1.689180    0.952460
  C     -0.000560   -1.982780    1.036170
  C     -0.880530   -0.898020    0.842250
  C     -0.367850    0.390630    0.552420
  C      3.291740   -0.406330    0.585740
  C      3.852200   -1.587030    0.926010
  S      2.657080   -2.802160    1.298700
  C     -2.294260   -0.889120    0.951840
  C     -2.847250    0.349540    0.821710
  S     -1.644230    1.577050    0.487280
  C      1.450900    2.008900    0.113340
  C     -0.451600   -3.320670    1.357600
  C      0.866240    2.925420   -0.716130
  C      1.541860    4.159010   -0.747190
  C      2.630960    4.209840    0.068710
  S      2.857150    2.698070    0.879450
  C      0.117070   -4.507740    0.980660
  C     -0.511020   -5.632720    1.542910
  C     -1.559230   -5.323220    2.357140
  S     -1.799910   -3.612710    2.422660
  C      3.527810    5.376820    0.318620
  C      4.834620    4.992850    0.999100
  C     -2.428030   -6.274340    3.112410
  C     -3.374750   -5.582970    4.084540
  C      5.297980   -1.919630    0.986900
  C     -4.229200    0.700570    0.882790
  C     -5.326320   -0.110620    0.724900
  C     -6.535830    0.602880    0.717960
  C     -6.390910    1.963800    0.910600
  S     -4.700910    2.355950    1.090190
  C     -7.303240    3.055270    0.830710
  S     -6.644880    4.548170    0.226600
  C     -8.192270    5.346770    0.312240
  C     -9.171920    4.469830    0.735540
  C     -8.654130    3.187570    1.098420
  C    -10.613380    4.733860    0.657900
  C    -11.429700    3.703510    1.292560
  C    -10.881370    2.515640    1.877030
  C     -9.446980    2.218840    1.865070
  C    -12.794940    3.784210    1.417470
  S    -13.417810    2.404010    2.253130
  C    -11.839340    1.714750    2.442790
  C     -8.170150    6.745530    0.031560
  C     -8.837780    7.833040    0.560090
  C     -8.286000    9.078330    0.197430
  S     -6.848780    7.295350   -0.960250
  O    -11.078660    5.694310    0.064090
  O     -8.937480    1.297790    2.481120
  C    -13.684360    4.870200    0.930870
  C    -15.111850    4.759610    1.445760
  C    -11.683560    0.383260    3.084160
  C    -11.705250   -0.728710    2.030950
  C     -2.633330   10.540090   -1.732310
  C     -4.010550   10.622870   -1.468860
  C     -4.631490   11.871130   -1.225200
  C     -3.943680   13.083200   -1.280130
  C     -2.553970   13.007050   -1.526880
  C     -1.945080   11.743790   -1.732650
  C     -4.902210    9.542250   -1.314990
  C     -6.165900    9.909520   -0.958200
  S     -6.325130   11.647810   -0.832900
  C     -1.591070   14.054080   -1.530360
  C     -0.314110   13.621590   -1.739210
  S     -0.234370   11.888510   -1.975410
  C     -1.957880    9.269190   -1.913170
  C     -4.629200   14.343980   -1.087730
  C     -0.794120    8.854910   -1.326840
  C     -0.426600    7.541730   -1.681590
  C     -1.286820    6.951840   -2.555730
  S     -2.592160    8.021270   -2.949970
  C     -5.653120   14.629630   -0.227910
  C     -6.120440   15.953690   -0.334080
  C     -5.475030   16.684040   -1.283960
  S     -4.248270   15.740080   -2.060600
  C     -1.269640    5.567460   -3.105240
  C     -2.135810    4.632380   -2.255080
  C     -5.674260   18.113400   -1.652510
  C     -4.516850   18.981560   -1.154310
  C     -7.166330    8.963740   -0.584460
  C      0.944400   14.300890   -1.716430
  C      1.298360   15.626950   -1.738460
  C      2.693320   15.829030   -1.674810
  C      3.424470   14.664700   -1.580430
  S      2.351280   13.294160   -1.617140
  C      4.803780   14.302290   -1.459030
  S      5.223100   12.813570   -2.254290
  C      6.759160   12.718970   -1.439440
  C      6.966930   13.847420   -0.671190
  C      5.856670   14.750480   -0.686710
  C      8.105280   14.034880    0.237010
  C      8.214410   15.406370    0.743690
  C      7.105900   16.316830    0.718810
  C      5.796580   15.931770    0.183790
  C      9.333400   15.943780    1.321810
  S      9.052800   17.585500    1.803460
  C      7.401660   17.531970    1.277700
  C      7.409790   11.452010   -1.575350
  C      8.702010   10.971750   -1.608840
  C      8.791430    9.569530   -1.763060
  S      6.292070   10.132160   -1.780280
  O      8.855870   13.127160    0.550030
  O      4.754300   16.509560    0.439900
  C     10.682510   15.340590    1.482640
  C     11.633140   15.833120    0.388100
  C      6.544070   18.740510    1.394990
  C      6.930890   19.789690    0.349420
  C      4.346890    5.476190   -3.254450
  C      5.555060    6.016450   -2.774330
  C      6.546130    5.192070   -2.190140
  C      6.387150    3.816050   -2.031120
  C      5.184010    3.264760   -2.526190
  C      4.211140    4.099780   -3.130760
  C      5.924160    7.377400   -2.748020
  C      7.119430    7.626590   -2.141480
  S      7.898220    6.151060   -1.619220
  C      4.746120    1.917650   -2.472110
  C      3.487990    1.732270   -2.968340
  S      2.796310    3.206500   -3.596260
  C      3.288060    6.295540   -3.808910
  C      7.380780    3.026130   -1.334570
  C      2.478880    6.011920   -4.874720
  C      1.566570    7.042340   -5.174310
  C      1.651700    8.109920   -4.333920
  S      2.866310    7.848650   -3.130020
  C      8.740030    3.177930   -1.352330
  C      9.417310    2.283690   -0.501900
  C      8.587160    1.454770    0.188560
  S      6.933610    1.756840   -0.223550
  C      0.914140    9.400810   -4.387210
  C      1.863050   10.579870   -4.606860
  C      8.944380    0.358060    1.131960
  C      9.173090   -0.957990    0.383400
  C      7.570850    8.963710   -1.897070
  C      2.673910    0.564780   -2.930120
  C      2.974450   -0.715050   -2.539170
  C      1.845120   -1.547990   -2.454120
  C      0.653280   -0.923700   -2.785070
  S      0.982350    0.719780   -3.265310
  C     -0.725850   -1.254130   -2.657770
  S     -1.827010    0.099140   -2.730680
  C     -3.190140   -0.884850   -2.299750
  C     -2.788530   -2.183880   -2.037220
  C     -1.412660   -2.416120   -2.353300
  C     -3.554260   -3.166140   -1.264160
  C     -2.946890   -4.490320   -1.221330
  C     -1.719300   -4.802630   -1.888960
  C     -0.934600   -3.784230   -2.583080
  C     -3.517280   -5.580920   -0.613060
  S     -2.547250   -6.993840   -0.848850
  C     -1.374030   -6.124360   -1.786170
  C     -4.480180   -0.280560   -2.361450
  C     -5.720590   -0.815860   -2.641760
  C     -6.752710    0.146410   -2.700390
  C     -6.297960    1.407880   -2.493380
  S     -4.605290    1.455300   -2.236140
  O     -4.564280   -2.871620   -0.639370
  O     -0.027020   -4.033440   -3.359830
  C     -4.787350   -5.628140    0.155550
  C     -5.352420   -7.033180    0.308730
  C     -0.208600   -6.819590   -2.391430
  C      0.366470   -7.923950   -1.512170
  Cl    -8.011010   -0.157990    0.338850
  Cl   -10.110770    7.721480    1.690440
  Cl     3.395290   17.378490   -1.801520
  Cl    10.088450   11.964630   -1.588880
  Cl     2.019060   -3.145300   -1.900170
  Cl    -6.009720   -2.455580   -3.003380
  H      3.875860    0.452880    0.311570
  H     -2.892170   -1.759880    1.141110
  H      0.001330    2.713010   -1.317050
  H      1.233200    4.983470   -1.363560
  H      0.944040   -4.575190    0.297650
  H     -0.193910   -6.644960    1.364670
  H      2.995820    6.100240    0.946680
  H      3.733350    5.872940   -0.634460
  H      4.642760    4.587410    1.990240
  H      5.478950    5.863050    1.098610
  H      5.358300    4.237510    0.418740
  H     -1.784130   -6.970600    3.658670
  H     -3.005070   -6.870340    2.397500
  H     -2.813410   -5.010050    4.819170
  H     -3.981880   -6.317680    4.607730
  H     -4.037500   -4.899550    3.557410
  H      5.886180   -1.037260    0.745160
  H      5.536380   -2.716370    0.282230
  H      5.570470   -2.267150    1.982690
  H     -5.267730   -1.168630    0.543210
  H     -8.668910   10.016020    0.556720
  H    -13.676590    4.856380   -0.164210
  H    -13.243810    5.829380    1.219370
  H    -15.564660    3.824360    1.122240
  H    -15.711700    5.582660    1.066220
  H    -15.129970    4.791390    2.533180
  H    -12.493440    0.225280    3.799320
  H    -10.727110    0.355540    3.608440
  H    -12.633510   -0.702200    1.463320
  H    -11.617720   -1.698200    2.513810
  H    -10.870670   -0.607680    1.345200
  H     -4.611000    8.512780   -1.411280
  H     -1.829140   15.084600   -1.343560
  H     -0.236100    9.457750   -0.632890
  H      0.453730    7.060690   -1.294880
  H     -6.036660   13.925490    0.487710
  H     -6.914670   16.349890    0.273450
  H     -0.241910    5.199040   -3.130090
  H     -1.649940    5.576090   -4.128820
  H     -1.770920    4.600010   -1.231410
  H     -2.117730    3.624920   -2.663090
  H     -3.166730    4.978770   -2.240470
  H     -6.611280   18.460690   -1.212470
  H     -5.749870   18.207550   -2.738700
  H     -4.426500   18.907500   -0.072890
  H     -4.684750   20.022260   -1.419270
  H     -3.581440   18.654850   -1.603050
  H      0.595700   16.435960   -1.813800
  H      9.729400    9.046520   -1.805190
  H     10.586850   14.255800    1.427110
  H     11.087840   15.610320    2.460420
  H     11.258750   15.547530   -0.592540
  H     12.616790   15.391730    0.524230
  H     11.728390   16.916740    0.422970
  H      6.655710   19.169570    2.393660
  H      5.504510   18.442730    1.254730
  H      7.970670   20.087250    0.471980
  H      6.301520   20.669240    0.455460
  H      6.799010   19.389170   -0.653440
  H      5.329260    8.164270   -3.171760
  H      5.326350    1.111400   -2.065450
  H      2.569530    5.116440   -5.462560
  H      0.875680    6.997080   -5.997300
  H      9.244770    3.885890   -1.984270
  H     10.487750    2.261030   -0.400080
  H      0.375210    9.560590   -3.450660
  H      0.183990    9.350820   -5.197630
  H      2.560210   10.662660   -3.775770
  H      1.297610   11.505440   -4.672430
  H      2.428840   10.449820   -5.526750
  H      8.143390    0.225620    1.862210
  H      9.855810    0.632310    1.667540
  H      8.279160   -1.243570   -0.166270
  H      9.417360   -1.751940    1.084400
  H      9.992450   -0.852420   -0.323680
  H      3.962070   -1.053390   -2.287900
  H     -7.777920   -0.108580   -2.892530
  H     -6.858260    2.321350   -2.482000
  H     -5.510680   -4.975910   -0.342480
  H     -4.611270   -5.184900    1.141600
  H     -5.559290   -7.469220   -0.666140
  H     -6.278040   -7.003520    0.877510
  H     -4.648830   -7.681150    0.828540
  H      0.553850   -6.071960   -2.621000
  H     -0.527380   -7.249400   -3.347840
  H      0.753460   -7.509380   -0.584560
  H      1.181550   -8.423630   -2.029410
  H     -0.396430   -8.662940   -1.273430

----------------------------
CARTESIAN COORDINATES (A.U.)
----------------------------
  NO LB      ZA    FRAG     MASS         X           Y           Z
   0 C     6.0000    0    12.011    1.872303    1.261033    0.778756
   1 C     6.0000    0    12.011    3.528667   -0.776167    1.182061
   2 C     6.0000    0    12.011    2.568478   -3.192088    1.799889
   3 C     6.0000    0    12.011   -0.001058   -3.746911    1.958078
   4 C     6.0000    0    12.011   -1.663961   -1.697012    1.591622
   5 C     6.0000    0    12.011   -0.695136    0.738184    1.043923
   6 C     6.0000    0    12.011    6.220487   -0.767852    1.106888
   7 C     6.0000    0    12.011    7.279603   -2.999052    1.749905
   8 S    16.0000    0    32.060    5.021154   -5.295315    2.454187
   9 C     6.0000    0    12.011   -4.335523   -1.680193    1.798717
  10 C     6.0000    0    12.011   -5.380523    0.660535    1.552807
  11 S    16.0000    0    32.060   -3.107144    2.980193    0.920826
  12 C     6.0000    0    12.011    2.741804    3.796271    0.214182
  13 C     6.0000    0    12.011   -0.853400   -6.275157    2.565492
  14 C     6.0000    0    12.011    1.636956    5.528243   -1.353290
  15 C     6.0000    0    12.011    2.913693    7.859390   -1.411984
  16 C     6.0000    0    12.011    4.971794    7.955445    0.129843
  17 S    16.0000    0    32.060    5.399231    5.098613    1.661920
  18 C     6.0000    0    12.011    0.221230   -8.518394    1.853179
  19 C     6.0000    0    12.011   -0.965688  -10.644298    2.915677
  20 C     6.0000    0    12.011   -2.946518  -10.059428    4.454349
  21 S    16.0000    0    32.060   -3.401337   -6.827033    4.578164
  22 C     6.0000    0    12.011    6.666595   10.160717    0.602105
  23 C     6.0000    0    12.011    9.136108    9.435119    1.888025
  24 C     6.0000    0    12.011   -4.588312  -11.856784    5.881603
  25 C     6.0000    0    12.011   -6.377353  -10.550284    7.718662
  26 C     6.0000    0    12.011   10.011731   -3.627575    1.864971
  27 C     6.0000    0    12.011   -7.992030    1.323885    1.668231
  28 C     6.0000    0    12.011  -10.065286   -0.209042    1.369862
  29 C     6.0000    0    12.011  -12.350929    1.139278    1.356748
  30 C     6.0000    0    12.011  -12.077070    3.711044    1.720785
  31 S    16.0000    0    32.060   -8.883432    4.452100    2.060161
  32 C     6.0000    0    12.011  -13.801123    5.773624    1.569814
  33 S    16.0000    0    32.060  -12.557003    8.594796    0.428212
  34 C     6.0000    0    12.011  -15.481147   10.103931    0.590048
  35 C     6.0000    0    12.011  -17.332417    8.446755    1.389969
  36 C     6.0000    0    12.011  -16.353936    6.023634    2.075713
  37 C     6.0000    0    12.011  -20.056382    8.945699    1.243251
  38 C     6.0000    0    12.011  -21.599003    6.998620    2.442584
  39 C     6.0000    0    12.011  -20.562809    4.753871    3.547073
  40 C     6.0000    0    12.011  -17.852205    4.193000    3.524472
  41 C     6.0000    0    12.011  -24.178932    7.151121    2.678630
  42 S    16.0000    0    32.060  -25.355986    4.542921    4.257799
  43 C     6.0000    0    12.011  -22.373110    3.240408    4.616204
  44 C     6.0000    0    12.011  -15.439346   12.747204    0.059640
  45 C     6.0000    0    12.011  -16.700984   14.802300    1.058417
  46 C     6.0000    0    12.011  -15.658271   17.155557    0.373089
  47 S    16.0000    0    32.060  -12.942319   13.786214   -1.814610
  48 O     8.0000    0    15.999  -20.935633   10.760686    0.121113
  49 O     8.0000    0    15.999  -16.889390    2.452468    4.688637
  50 C     6.0000    0    12.011  -25.859693    9.203344    1.759089
  51 C     6.0000    0    12.011  -28.557258    8.994359    2.732090
  52 C     6.0000    0    12.011  -22.078729    0.724256    5.828218
  53 C     6.0000    0    12.011  -22.119717   -1.377062    3.837939
  54 C     6.0000    0    12.011   -4.976273   19.917884   -3.273591
  55 C     6.0000    0    12.011   -7.578841   20.074315   -2.775743
  56 C     6.0000    0    12.011   -8.752248   22.433185   -2.315292
  57 C     6.0000    0    12.011   -7.452475   24.723665   -2.419095
  58 C     6.0000    0    12.011   -4.826304   24.579762   -2.885385
  59 C     6.0000    0    12.011   -3.675669   22.192547   -3.274234
  60 C     6.0000    0    12.011   -9.263834   18.032239   -2.484971
  61 C     6.0000    0    12.011  -11.651862   18.726279   -1.810736
  62 S    16.0000    0    32.060  -11.952763   22.011171   -1.573953
  63 C     6.0000    0    12.011   -3.006687   26.558362   -2.891961
  64 C     6.0000    0    12.011   -0.593582   25.741075   -3.286631
  65 S    16.0000    0    32.060   -0.442895   22.466028   -3.732984
  66 C     6.0000    0    12.011   -3.699857   17.516231   -3.615367
  67 C     6.0000    0    12.011   -8.747920   27.106194   -2.055512
  68 C     6.0000    0    12.011   -1.500669   16.733355   -2.507364
  69 C     6.0000    0    12.011   -0.806157   14.251804   -3.177745
  70 C     6.0000    0    12.011   -2.431737   13.137074   -4.829630
  71 S    16.0000    0    32.060   -4.898472   15.158004   -5.574635
  72 C     6.0000    0    12.011  -10.682849   27.645994   -0.430687
  73 C     6.0000    0    12.011  -11.565955   30.148105   -0.631320
  74 C     6.0000    0    12.011  -10.346307   31.528266   -2.426333
  75 S    16.0000    0    32.060   -8.028067   29.744441   -3.893970
  76 C     6.0000    0    12.011   -2.399272   10.520975   -5.868053
  77 C     6.0000    0    12.011   -4.036096    8.753930   -4.261484
  78 C     6.0000    0    12.011  -10.722797   34.229365   -3.122791
  79 C     6.0000    0    12.011   -8.535609   35.869950   -2.181330
  80 C     6.0000    0    12.011  -13.542401   16.939014   -1.104469
  81 C     6.0000    0    12.011    1.784657   27.024766   -3.243583
  82 C     6.0000    0    12.011    2.453545   29.530656   -3.285213
  83 C     6.0000    0    12.011    5.089637   29.912532   -3.164932
  84 C     6.0000    0    12.011    6.471310   27.712267   -2.986580
  85 S    16.0000    0    32.060    4.443275   25.122322   -3.055952
  86 C     6.0000    0    12.011    9.077829   27.027411   -2.757167
  87 S    16.0000    0    32.060    9.870229   24.214138   -4.259991
  88 C     6.0000    0    12.011   12.772961   24.035370   -2.720147
  89 C     6.0000    0    12.011   13.165590   26.167831   -1.268365
  90 C     6.0000    0    12.011   11.067502   27.874368   -1.297694
  91 C     6.0000    0    12.011   15.316759   26.522080    0.447884
  92 C     6.0000    0    12.011   15.522985   29.113820    1.405370
  93 C     6.0000    0    12.011   13.428205   30.834340    1.358354
  94 C     6.0000    0    12.011   10.953949   30.106682    0.347313
  95 C     6.0000    0    12.011   17.637570   30.129378    2.497859
  96 S    16.0000    0    32.060   17.107313   33.231779    3.408045
  97 C     6.0000    0    12.011   13.987110   33.130622    2.414503
  98 C     6.0000    0    12.011   14.002474   21.641163   -2.976980
  99 C     6.0000    0    12.011   16.444416   20.733603   -3.040267
 100 C     6.0000    0    12.011   16.613395   18.083791   -3.331701
 101 S    16.0000    0    32.060   11.890289   19.147008   -3.364242
 102 O     8.0000    0    15.999   16.735169   24.806737    1.039406
 103 O     8.0000    0    15.999    8.984325   31.198547    0.831291
 104 C     6.0000    0    12.011   20.187018   28.989514    2.801784
 105 C     6.0000    0    12.011   21.983449   29.920261    0.733403
 106 C     6.0000    0    12.011   12.366500   35.414432    2.636149
 107 C     6.0000    0    12.011   13.097484   37.397094    0.660308
 108 C     6.0000    0    12.011    8.214432   10.348499   -6.150019
 109 C     6.0000    0    12.011   10.497542   11.369443   -5.242724
 110 C     6.0000    0    12.011   12.370393    9.811590   -4.138765
 111 C     6.0000    0    12.011   12.069964    7.211289   -3.838261
 112 C     6.0000    0    12.011    9.796359    6.169502   -4.773807
 113 C     6.0000    0    12.011    7.957901    7.747461   -5.916279
 114 C     6.0000    0    12.011   11.195040   13.941266   -5.193005
 115 C     6.0000    0    12.011   13.453773   14.412166   -4.046811
 116 S    16.0000    0    32.060   14.925473   11.623819   -3.059882
 117 C     6.0000    0    12.011    8.968867    3.623833   -4.671611
 118 C     6.0000    0    12.011    6.591346    3.273516   -5.609350
 119 S    16.0000    0    32.060    5.284260    6.059407   -6.795947
 120 C     6.0000    0    12.011    6.213533   11.896846   -7.197797
 121 C     6.0000    0    12.011   13.947653    5.718557   -2.521972
 122 C     6.0000    0    12.011    4.684404   11.360882   -9.211886
 123 C     6.0000    0    12.011    2.960388   13.308094   -9.778029
 124 C     6.0000    0    12.011    3.121261   15.325528   -8.189922
 125 S    16.0000    0    32.060    5.416541   14.831799   -5.914881
 126 C     6.0000    0    12.011   16.516263    6.005417   -2.555533
 127 C     6.0000    0    12.011   17.796137    4.315549   -0.948454
 128 C     6.0000    0    12.011   16.227381    2.749117    0.356327
 129 S    16.0000    0    32.060   13.102624    3.319946   -0.422448
 130 C     6.0000    0    12.011    1.727474   17.764956   -8.290625
 131 C     6.0000    0    12.011    3.520654   19.993057   -8.705704
 132 C     6.0000    0    12.011   16.902429    0.676635    2.139094
 133 C     6.0000    0    12.011   17.334628   -1.810339    0.724521
 134 C     6.0000    0    12.011   14.306833   16.938957   -3.584943
 135 C     6.0000    0    12.011    5.052958    1.067280   -5.537124
 136 C     6.0000    0    12.011    5.620896   -1.351249   -4.798336
 137 C     6.0000    0    12.011    3.486771   -2.925277   -4.637615
 138 C     6.0000    0    12.011    1.234520   -1.745540   -5.263020
 139 S    16.0000    0    32.060    1.856372    1.360187   -6.170542
 140 C     6.0000    0    12.011   -1.371658   -2.369962   -5.022457
 141 S    16.0000    0    32.060   -3.452549    0.187347   -5.160237
 142 C     6.0000    0    12.011   -6.028491   -1.672124   -4.345898
 143 C     6.0000    0    12.011   -5.269558   -4.126935   -3.849788
 144 C     6.0000    0    12.011   -2.669541   -4.565805   -4.447093
 145 C     6.0000    0    12.011   -6.716578   -5.983138   -2.388916
 146 C     6.0000    0    12.011   -5.568815   -8.485475   -2.307979
 147 C     6.0000    0    12.011   -3.249006   -9.075655   -3.569617
 148 C     6.0000    0    12.011   -1.766138   -7.151158   -4.881314
 149 C     6.0000    0    12.011   -6.646696  -10.546410   -1.158516
 150 S    16.0000    0    32.060   -4.813605  -13.216442   -1.604094
 151 C     6.0000    0    12.011   -2.596540  -11.573363   -3.375372
 152 C     6.0000    0    12.011   -8.466313   -0.530182   -4.462494
 153 C     6.0000    0    12.011  -10.810348   -1.541752   -4.992203
 154 C     6.0000    0    12.011  -12.760773    0.276675   -5.102998
 155 C     6.0000    0    12.011  -11.901420    2.660508   -4.711805
 156 S    16.0000    0    32.060   -8.702737    2.750118   -4.225692
 157 O     8.0000    0    15.999   -8.625239   -5.426575   -1.208234
 158 O     8.0000    0    15.999   -0.051060   -7.622097   -6.349159
 159 C     6.0000    0    12.011   -9.046780  -10.635643    0.293947
 160 C     6.0000    0    12.011  -10.114608  -13.290784    0.583415
 161 C     6.0000    0    12.011   -0.394197  -12.887157   -4.519148
 162 C     6.0000    0    12.011    0.692528  -14.974095   -2.857587
 163 Cl   17.0000    0    35.453  -15.138615   -0.298558    0.640334
 164 Cl   17.0000    0    35.453  -19.106586   14.591483    3.194469
 165 Cl   17.0000    0    35.453    6.416168   32.840587   -3.404379
 166 Cl   17.0000    0    35.453   19.064408   22.609874   -3.002548
 167 Cl   17.0000    0    35.453    3.815470   -5.943756   -3.590801
 168 Cl   17.0000    0    35.453  -11.356725   -4.640374   -5.675566
 169 H     1.0000    0     1.008    7.324314    0.855819    0.588782
 170 H     1.0000    0     1.008   -5.465409   -3.325691    2.156385
 171 H     1.0000    0     1.008    0.002513    5.126846   -2.488864
 172 H     1.0000    0     1.008    2.330410    9.417393   -2.576755
 173 H     1.0000    0     1.008    1.783977   -8.645856    0.562477
 174 H     1.0000    0     1.008   -0.366437  -12.557155    2.578853
 175 H     1.0000    0     1.008    5.661279   11.527783    1.788966
 176 H     1.0000    0     1.008    7.055009   11.098248   -1.198956
 177 H     1.0000    0     1.008    8.773545    8.668949    3.761009
 178 H     1.0000    0     1.008   10.353715   11.079559    2.076072
 179 H     1.0000    0     1.008   10.125720    8.007733    0.791304
 180 H     1.0000    0     1.008   -3.371517  -13.172525    6.913884
 181 H     1.0000    0     1.008   -5.678759  -12.983061    4.530618
 182 H     1.0000    0     1.008   -5.316574   -9.467622    9.106911
 183 H     1.0000    0     1.008   -7.524663  -11.938685    8.707348
 184 H     1.0000    0     1.008   -7.629769   -9.258808    6.722531
 185 H     1.0000    0     1.008   11.123268   -1.960137    1.408148
 186 H     1.0000    0     1.008   10.462242   -5.133195    0.533337
 187 H     1.0000    0     1.008   10.526663   -4.284293    3.746741
 188 H     1.0000    0     1.008   -9.954567   -2.208391    1.026518
 189 H     1.0000    0     1.008  -16.381866   18.927535    1.052048
 190 H     1.0000    0     1.008  -25.845010    9.177228   -0.310312
 191 H     1.0000    0     1.008  -25.027174   11.015932    2.304275
 192 H     1.0000    0     1.008  -29.412945    7.226993    2.120726
 193 H     1.0000    0     1.008  -29.690810   10.549698    2.014864
 194 H     1.0000    0     1.008  -28.591500    9.054415    4.787016
 195 H     1.0000    0     1.008  -23.609180    0.425718    7.179674
 196 H     1.0000    0     1.008  -20.271300    0.671873    6.818963
 197 H     1.0000    0     1.008  -23.873874   -1.326966    2.765274
 198 H     1.0000    0     1.008  -21.954309   -3.209133    4.750412
 199 H     1.0000    0     1.008  -20.542589   -1.148349    2.542060
 200 H     1.0000    0     1.008   -8.713527   16.086823   -2.666933
 201 H     1.0000    0     1.008   -3.456574   28.505763   -2.538960
 202 H     1.0000    0     1.008   -0.446164   17.872557   -1.195989
 203 H     1.0000    0     1.008    0.857425   13.342770   -2.446969
 204 H     1.0000    0     1.008  -11.407634   26.315362    0.921638
 205 H     1.0000    0     1.008  -13.066833   30.896814    0.516746
 206 H     1.0000    0     1.008   -0.457144    9.824762   -5.915013
 207 H     1.0000    0     1.008   -3.117935   10.537283   -7.802339
 208 H     1.0000    0     1.008   -3.346554    8.692759   -2.327028
 209 H     1.0000    0     1.008   -4.001930    6.850106   -5.032511
 210 H     1.0000    0     1.008   -5.984252    9.408512   -4.233875
 211 H     1.0000    0     1.008  -12.493509   34.885648   -2.291236
 212 H     1.0000    0     1.008  -10.865680   34.407283   -5.175393
 213 H     1.0000    0     1.008   -8.364873   35.729997   -0.137742
 214 H     1.0000    0     1.008   -8.852895   37.836588   -2.682032
 215 H     1.0000    0     1.008   -6.767941   35.252558   -3.029325
 216 H     1.0000    0     1.008    1.125710   31.059463   -3.427585
 217 H     1.0000    0     1.008   18.385901   17.095445   -3.411315
 218 H     1.0000    0     1.008   20.006247   26.939558    2.696847
 219 H     1.0000    0     1.008   20.952981   29.499230    4.649520
 220 H     1.0000    0     1.008   21.275954   29.380574   -1.119738
 221 H     1.0000    0     1.008   23.842278   29.086154    0.990651
 222 H     1.0000    0     1.008   22.163445   31.968006    0.799297
 223 H     1.0000    0     1.008   12.577469   36.225237    4.523362
 224 H     1.0000    0     1.008   10.402016   34.851709    2.371096
 225 H     1.0000    0     1.008   15.062383   37.959401    0.891913
 226 H     1.0000    0     1.008   11.908147   39.059203    0.860695
 227 H     1.0000    0     1.008   12.848267   36.640221   -1.234823
 228 H     1.0000    0     1.008   10.070842   15.428234   -5.993758
 229 H     1.0000    0     1.008   10.065343    2.100242   -3.903135
 230 H     1.0000    0     1.008    4.855708    9.668670  -10.322742
 231 H     1.0000    0     1.008    1.654795   13.222565  -11.333255
 232 H     1.0000    0     1.008   17.470083    7.343268   -3.749727
 233 H     1.0000    0     1.008   19.818975    4.272727   -0.756042
 234 H     1.0000    0     1.008    0.709044   18.066897   -6.520802
 235 H     1.0000    0     1.008    0.347691   17.670489   -9.822097
 236 H     1.0000    0     1.008    4.838096   20.149507   -7.135171
 237 H     1.0000    0     1.008    2.452128   21.742131   -8.829613
 238 H     1.0000    0     1.008    4.589842   19.747298  -10.444044
 239 H     1.0000    0     1.008   15.388777    0.426360    3.519067
 240 H     1.0000    0     1.008   18.624782    1.194893    3.151194
 241 H     1.0000    0     1.008   15.645345   -2.350007   -0.314205
 242 H     1.0000    0     1.008   17.796231   -3.310687    2.049219
 243 H     1.0000    0     1.008   18.882994   -1.610840   -0.611667
 244 H     1.0000    0     1.008    7.487227   -1.990619   -4.323504
 245 H     1.0000    0     1.008  -14.698139   -0.205186   -5.466090
 246 H     1.0000    0     1.008  -12.960233    4.386716   -4.690300
 247 H     1.0000    0     1.008  -10.413676   -9.403107   -0.647193
 248 H     1.0000    0     1.008   -8.714037   -9.798041    2.157311
 249 H     1.0000    0     1.008  -10.505536  -14.114780   -1.258822
 250 H     1.0000    0     1.008  -11.863776  -13.234735    1.658254
 251 H     1.0000    0     1.008   -8.785016  -14.515270    1.565714
 252 H     1.0000    0     1.008    1.046625  -11.474341   -4.952972
 253 H     1.0000    0     1.008   -0.996604  -13.699381   -6.326501
 254 H     1.0000    0     1.008    1.423833  -14.190672   -1.104658
 255 H     1.0000    0     1.008    2.232806  -15.918354   -3.835029
 256 H     1.0000    0     1.008   -0.749144  -16.370584   -2.406434

--------------------------------
INTERNAL COORDINATES (ANGSTROEM)
--------------------------------
 C      0   0   0     0.000000000000     0.00000000     0.00000000
 C      1   0   0     1.405698444938     0.00000000     0.00000000
 C      2   1   0     1.414036752776   120.29259015     0.00000000
 C      3   2   1     1.393592907452   123.70862556     2.43583392
 C      4   3   2     1.410197299990   116.00995539   356.73805707
 C      1   2   3     1.393598579828   116.12611757     0.44432444
 C      2   1   3     1.425012144124   128.07470061   181.45146434
 C      7   2   1     1.350537513178   113.89700854   175.66320688
 S      3   2   1     1.744462962633   110.81635839   184.94695575
 C      5   4   3     1.417999185825   128.04837164   184.21844361
 C     10   5   4     1.362721670995   113.75968171   174.33726008
 S      6   1   2     1.743841030714   125.08106943   174.03079724
 C      1   2   3     1.449424603110   122.90188749   178.13061075
 C      4   3   2     1.447999992610   120.79159468   179.10014991
 C     13   1   2     1.367427038968   127.56701544   144.46120053
 C     15  13   1     1.406830265562   113.31425111   177.68506715
 C     16  15  13     1.361769183415   113.80248508   358.96682151
 S     17  16  15     1.730291824115   110.65075012     1.03189096
 C     14   4   3     1.369161976320   127.63192989   324.18890685
 C     19  14   4     1.405774559095   113.46215761   175.52325563
 C     20  19  14     1.362903131921   113.63091432   359.75155617
 S     21  20  19     1.728601802874   110.75921101     0.78794416
 C     17  16  15     1.492862100463   127.58555504   182.92599591
 C     23  17  16     1.522576227123   113.16044478   194.64790049
 C     21  20  19     1.493276755093   127.22833989   180.44776460
 C     25  21  20     1.522927434975   113.28969922   171.51706847
 C      8   7   2     1.484792968902   127.60781816   179.99095485
 C     11  10   5     1.427143521094   127.76577040   180.09525613
 C     28  11  10     1.373546782094   128.55551013   340.69177728
 C     29  28  11     1.404295144797   112.85878655   185.98537496
 C     30  29  28     1.382105358647   114.16066084   358.13020769
 S     28  11  10     1.733726630268   120.22746996   164.61169821
 C     31  30  29     1.424793038269   132.79338150   171.95980831
 S     33  31  30     1.739867004026   115.75277373   215.05857385
 C     34  33  31     1.743419622954    92.30041172   177.41510183
 C     35  34  33     1.381275054470   110.71551867   357.54448656
 C     33  31  30     1.383501256306   133.44332734    32.68859091
 C     36  35  34     1.467496760507   124.48655364   192.95576126
 C     38  36  35     1.459723528789   113.53495029   185.74181293
 C     39  38  36     1.432936183750   123.26274275   357.07830377
 C     40  39  38     1.464823523057   122.63919769   358.78690388
 C     39  38  36     1.373315424693   123.64243984   175.61126240
 S     42  39  38     1.729522105236   110.79805056   181.34484272
 C     40  39  38     1.370844882034   112.65862559   178.39145837
 C     35  34  33     1.426814667152   115.19089796   173.45242522
 C     45  35  34     1.381213878406   133.55952536   218.22161569
 C     46  45  35     1.409514323482   114.07580196   165.89909845
 S     45  35  34     1.741266144333   115.68120933    24.62753584
 O     38  36  35     1.221294394075   122.78096276     8.90103134
 O     41  40  39     1.219606885435   123.91564319   171.42221407
 C     42  39  38     1.485672163198   127.46730543     1.34903138
 C     51  42  39     1.521535264231   113.43422893   189.95930580
 C     44  40  39     1.486098417131   128.92577414   176.84638600
 C     53  44  40     1.531730733876   110.62158615   275.59932318
 C     48  45  35     5.375354222161   150.17182641   235.13893349
 C     55  48  45     1.404632820099    40.51129444   302.31190225
 C     56  55  48     1.415305517123   120.95987619   174.75274613
 C     57  56  55     1.394709140251   122.91078627     2.51968884
 C     58  57  56     1.413498591828   116.41781031   356.76668016
 C     55  48  45     1.386571984464   155.96783215   314.26874091
 C     56  55  48     1.409422973028   126.55444486   359.72314949
 C     61  56  55     1.363487723854   114.10328330   174.98484360
 S     62  61  56     1.750058972435   111.75327581     1.47234872
 C     59  58  57     1.422483863283   128.77733496   185.51579545
 C     64  59  58     1.364292037725   113.61710419   176.73172560
 S     60  55  48     1.733898786002   124.20954053   169.11959472
 C     55  48  45     1.450561909089    81.61687038   123.86440092
 C     58  57  56     1.447937028603   121.19825547   176.99036992
 C     67  55  48     1.367387335359   127.46579608   229.33894573
 C     69  67  55     1.409028113737   113.35299038   178.04019655
 C     70  69  67     1.360907564863   113.62911330     1.12728996
 S     71  70  69     1.732921873051   110.77893007   359.50658992
 C     68  58  57     1.367222923045   128.31997614    37.31752419
 C     73  68  58     1.408117514592   113.42710067   182.21590016
 C     74  73  68     1.360969215302   113.56842989     0.87837417
 S     75  74  73     1.731811268239   110.88038313   359.28828173
 C     71  70  69     1.489551736899   129.23607061   183.14546772
 C     77  71  70     1.532121764384   110.85473533    93.19156924
 C     75  74  73     1.489493774744   128.62624521   181.58605020
 C     79  75  74     1.530197024471   111.26713190   106.72425305
 C     47  46  45     1.370453847855   113.12600698   358.33833948
 C     65  64  59     1.430319837833   132.11051997   185.57968158
 C     82  65  64     1.372664608016   133.27000759   345.12271042
 C     83  82  65     1.410957494222   113.11481855   178.91474421
 C     84  83  82     1.378097331759   113.99260750   358.95621730
 S     82  65  64     1.732822879408   116.06338589   164.03492051
 C     85  84  83     1.431284403674   136.97219589   181.84109504
 S     87  85  84     1.739124770797   114.22477413   213.33508465
 C     88  87  85     1.741381637120    92.59119516   193.73592874
 C     89  88  87     1.380860542524   110.40574988   355.52661190
 C     87  85  84     1.380554167934   134.44393229    45.20849418
 C     90  89  88     1.468267419137   124.41108997   174.25761104
 C     92  90  89     1.466157835773   113.01049403   169.64807726
 C     93  92  90     1.434695384428   122.01378269    19.43974884
 C     94  93  92     1.465891014503   121.98865841   359.93164306
 C     93  92  90     1.369368782542   125.01791136   197.10189689
 S     96  93  92     1.733772661251   110.89435594   180.64069986
 C     94  93  92     1.369816494754   112.89509047   177.97600253
 C     89  88  87     1.430726586948   113.87808043   167.79216313
 C     99  89  88     1.378986503233   137.46414750   150.09426480
 C    100  99  89     1.413506516858   114.04285443   179.68815363
 S     99  89  88     1.741636680195   112.98004033   331.24374781
 O     92  90  89     1.218738063285   122.76979580   348.17356542
 O     95  94  93     1.218926254783   124.23227632   160.21524256
 C     96  93  92     1.486540365110   128.90592814     4.85584453
 C    105  96  93     1.531111037580   110.83059981    98.57610816
 C     98  94  93     1.486535059728   128.96322429   177.59099403
 C    107  98  94     1.530890267034   110.94775240   257.34913489
 C     23  17  16     3.667096353820    89.55632914   300.26790939
 C    109  23  17     1.407860373368    82.51843007   208.46422541
 C    110 109  23     1.415309183677   121.20955082    76.76893563
 C    111 110 109     1.394271509140   122.82537331   358.84673824
 C    112 111 110     1.412997108490   116.24291726     1.87280592
 C    109  23  17     1.388607852023    82.21326737   325.82859931
 C    110 109  23     1.410358794279   126.95945357   259.47529325
 C    115 110 109     1.363325639970   114.46412053   175.67222504
 S    116 115 110     1.748272905641   111.66559452     2.42197799
 C    113 112 111     1.417525185173   128.34834518   181.68383605
 C    118 113 112     1.365101115009   113.57131663   175.91978860
 S    114 109  23     1.736773830209   124.44249005   100.00018419
 C    109  23  17     1.449096712784   102.99880419    86.51183266
 C    112 111 110     1.447914391737   120.99974366   184.87405360
 C    121 109  23     1.367904796724   127.81567729   231.08561627
 C    123 121 109     1.408484675316   113.40347392   181.38633442
 C    124 123 121     1.361333730354   113.69727877   359.00740110
 S    125 124 123     1.730004241324   110.79743857   359.36360484
 C    122 112 111     1.367815491980   127.96351330   323.20223552
 C    127 122 112     1.407694768371   113.56379254   176.67556727
 C    128 127 122     1.361246634707   113.56869893   359.06160282
 S    129 128 127     1.730695969690   110.83016194     0.76820631
 C    125 124 123     1.487693372238   128.85548542   176.08769053
 C    131 125 124     1.529332793803   111.50022272   243.36563089
 C    129 128 127     1.490094799837   128.54398706   177.52468610
 C    133 129 128     1.531221061833   111.03115200   273.08618151
 C    101 100  99     1.369230473259   113.15408281     2.17538834
 C    119 118 113     1.423804732012   128.94354910   188.22273100
 C    136 119 118     1.371543299718   130.35425688   351.27950945
 C    137 136 119     1.405848069672   113.20877952   170.90293158
 C    138 137 136     1.385549888023   114.17934316     0.28700268
 S    136 119 118     1.731401908772   118.68560608   164.32699997
 C    139 138 137     1.423864049620   135.01164278   191.80941204
 S    141 139 138     1.746198415587   115.29081112   159.68772730
 C    142 141 139     1.735528847902    92.60993427   187.69975584
 C    143 142 141     1.384807399569   110.55699433     3.33869247
 C    141 139 138     1.383701816541   134.05247666   347.33572148
 C    144 143 142     1.465878202342   125.24415095   159.98601454
 C    146 144 143     1.457458540817   113.99244243   175.72645902
 C    147 146 144     1.431867508221   122.80252462   359.33810011
 C    148 147 146     1.461059623835   122.00111068     4.59361661
 C    147 146 144     1.372860337034   124.16883906   183.31179768
 S    150 147 146     1.729999436821   110.82103885   176.68531408
 C    148 147 146     1.369944287152   113.04963544   183.83784308
 C    143 142 141     1.425894980600   117.35933725   187.39735573
 C    153 143 142     1.379759672624   131.12636808   148.98440427
 C    154 153 143     1.412328830053   113.64600394   184.48230402
 C    155 154 153     1.356818802751   112.46941185     1.24661313
 S    156 155 154     1.712761747267   112.32640759     0.48495837
 O    146 144 143     1.223619620184   122.62755520   351.08484959
 O    149 148 147     1.220306372597   124.02065012   193.84519354
 C    150 147 146     1.485284102588   127.57575657   356.84096634
 C    160 150 147     1.522138501878   113.50732326   161.41673420
 C    152 148 147     1.485904271950   128.20873285   177.30851733
 C    162 152 148     1.524275126773   113.57366178   145.01007705
 Cl    30  29  28     1.702587319758   121.35214426   172.11051829
 Cl    46  45  35     1.706059874741   124.24338631   352.39640645
 Cl    84  83  82     1.705767744038   122.24956929   175.42047518
 Cl   100  99  89     1.705410498854   123.97065462   355.19657755
 Cl   138 137 136     1.699563168052   119.62626546   183.40622714
 Cl   154 153 143     1.703832990554   124.68339148     0.14333229
 H      7   2   1     1.074526494508   123.57198238   355.67722237
 H     10   5   4     1.073099472836   124.33573656   355.64211475
 H     15  13   1     1.074379896778   123.43337192   355.22391325
 H     16  15  13     1.074670770097   123.19110802   178.47922983
 H     19  14   4     1.074677413692   123.29806310   353.74660592
 H     20  19  14     1.075619852597   123.71785924   180.55133082
 H     23  17  16     1.095814409515   108.68407103    73.30738197
 H     23  17  16     1.093957600824   108.75610233   317.24001178
 H     24  23  17     1.087911004081   110.47452377   296.35239943
 H     24  23  17     1.087341450051   110.34531564   176.21637460
 H     24  23  17     1.087012873705   110.49410785    56.05934491
 H     25  21  20     1.094433728099   108.38217178    49.61593330
 H     25  21  20     1.095119842620   108.84601937   293.77343418
 H     26  25  21     1.087667761267   110.45298148   300.15462170
 H     26  25  21     1.087259581287   110.33587465   180.05826181
 H     26  25  21     1.088194144351   110.76295319    59.89148134
 H     27   8   7     1.087655407057   109.61795712     2.13599045
 H     27   8   7     1.090040823318   110.49837272   241.57724075
 H     27   8   7     1.089320281001   110.64183873   122.46123006
 H     29  28  11     1.075094974549   123.85492372     1.16210531
 H     47  46  45     1.074696193489   123.04938717   182.32102336
 H     51  42  39     1.095194764277   108.30183630    67.38546730
 H     51  42  39     1.094231613919   108.26265441   313.13980517
 H     52  51  42     1.088298970412   110.62308377   299.41931082
 H     52  51  42     1.086867948097   110.15626118   179.46451565
 H     52  51  42     1.088035182887   110.59205336    59.50197736
 H     53  44  40     1.091932745365   109.54469028   154.72306430
 H     53  44  40     1.091070354881   108.78612679    35.20864381
 H     54  53  44     1.088381010768   110.67094005   301.73793418
 H     54  53  44     1.086612231019   109.93901202   181.52701053
 H     54  53  44     1.086933806540   110.00472808    62.06140030
 H     61  56  55     1.074189698843   123.60733614   358.38390200
 H     64  59  58     1.074031207787   123.76361774   359.34789237
 H     69  67  55     1.075345985486   123.26501374     0.36118320
 H     70  69  67     1.075139532619   122.68357725   180.97223569
 H     73  68  58     1.074722315577   123.30724033     4.63274784
 H     74  73  68     1.075578185814   123.28793358   180.59653564
 H     77  71  70     1.092053007779   109.43841693   331.93476396
 H     77  71  70     1.091979204610   109.53849296   213.70302485
 H     78  77  71     1.087240910700   110.54130548   300.24048070
 H     78  77  71     1.087094613224   110.36159389   179.98870792
 H     78  77  71     1.087655979894   110.42210448    60.13439883
 H     79  75  74     1.091902938040   108.68024415   345.80580438
 H     79  75  74     1.092881425727   109.74547393   227.55951535
 H     80  79  75     1.087711920731   110.35855755   300.89722755
 H     80  79  75     1.086945583551   110.30456689   180.78716437
 H     80  79  75     1.087703488916   110.22712832    60.80020756
 H     83  82  65     1.074199409467   124.05642251   357.88637992
 H    101 100  99     1.074756771507   122.83570904   180.09655977
 H    105  96  93     1.090414490274   108.57509542   337.94765241
 H    105  96  93     1.092291357743   109.47674533   219.18480709
 H    106 105  96     1.087834697829   110.26065585   299.10504874
 H    106 105  96     1.086703193839   109.98588864   179.45270986
 H    106 105  96     1.088356919305   110.59224943    59.33828975
 H    107  98  94     1.092656278113   109.41529085   136.76571497
 H    107  98  94     1.090426884115   108.53163533    18.18070823
 H    108 107  98     1.088441709785   110.59956814   300.65767212
 H    108 107  98     1.086719504288   109.98093901   180.55473583
 H    108 107  98     1.087904768075   110.28241288    60.89925946
 H    115 110 109     1.073604207564   123.70169834   355.24197271
 H    118 113 112     1.073349090930   124.14598121   357.10086147
 H    123 121 109     1.075015217799   123.29074349   357.92733306
 H    124 123 121     1.075495234671   123.23479850   178.24711958
 H    127 122 112     1.074857196468   123.18735674   354.38852420
 H    128 127 122     1.075510381912   123.32837723   179.51501488
 H    131 125 124     1.092291671579   109.92729240   123.05742577
 H    131 125 124     1.091970054077   108.56392301     4.82129419
 H    132 131 125     1.087932368210   110.27695530   297.72607553
 H    132 131 125     1.086600958678   110.02909895   178.26608627
 H    132 131 125     1.087763273281   110.61081724    58.08912847
 H    133 129 128     1.091966298106   109.68270459   152.04965198
 H    133 129 128     1.092137190924   109.00926409    33.57954788
 H    134 133 129     1.087567878433   110.48696286   300.92720489
 H    134 133 129     1.086933960919   110.24813564   180.88441001
 H    134 133 129     1.087408828776   110.30302362    60.80369376
 H    137 136 119     1.073780160415   124.21272885   352.86730570
 H    155 154 153     1.073775220332   122.91344451   181.01277016
 H    156 155 154     1.071677673230   128.23328917   180.07807977
 H    160 150 147     1.093912310334   108.11160061    38.41565279
 H    160 150 147     1.095335777969   108.39256019   283.98914548
 H    161 160 150     1.087794831482   110.51310322   299.90306703
 H    161 160 150     1.086813134076   110.09937037   180.00563942
 H    161 160 150     1.088625943610   110.94966859    59.91786212
 H    162 152 148     1.092237613480   108.23157568    21.63260727
 H    162 152 148     1.095936773997   108.10942074   266.36619900
 H    163 162 152     1.087239558285   110.49779368   296.77924789
 H    163 162 152     1.087001714074   109.96602194   177.24870979
 H    163 162 152     1.088631901838   110.72796196    57.31544051

---------------------------
INTERNAL COORDINATES (A.U.)
---------------------------
 C      0   0   0     0.000000000000     0.00000000     0.00000000
 C      1   0   0     2.656385087811     0.00000000     0.00000000
 C      2   1   0     2.672142206045   120.29259015     0.00000000
 C      3   2   1     2.633508937259   123.70862556     2.43583392
 C      4   3   2     2.664886691777   116.00995539   356.73805707
 C      1   2   3     2.633519656497   116.12611757     0.44432444
 C      2   1   3     2.692882689906   128.07470061   181.45146434
 C      7   2   1     2.552146033493   113.89700854   175.66320688
 S      3   2   1     3.296557250146   110.81635839   184.94695575
 C      5   4   3     2.679630119332   128.04837164   184.21844361
 C     10   5   4     2.575170754941   113.75968171   174.33726008
 S      6   1   2     3.295381969144   125.08106943   174.03079724
 C      1   2   3     2.739015551645   122.90188749   178.13061075
 C      4   3   2     2.736323427954   120.79159468   179.10014991
 C     13   1   2     2.584062611768   127.56701544   144.46120053
 C     15  13   1     2.658523918823   113.31425111   177.68506715
 C     16  15  13     2.573370814269   113.80248508   358.96682151
 S     17  16  15     3.269777679341   110.65075012     1.03189096
 C     14   4   3     2.587341168223   127.63192989   324.18890685
 C     19  14   4     2.656528922724   113.46215761   175.52325563
 C     20  19  14     2.575513666394   113.63091432   359.75155617
 S     21  20  19     3.266584002035   110.75921101     0.78794416
 C     17  16  15     2.821100525586   127.58555504   182.92599591
 C     23  17  16     2.877252087281   113.16044478   194.64790049
 C     21  20  19     2.821884109276   127.22833989   180.44776460
 C     25  21  20     2.877915773938   113.28969922   171.51706847
 C      8   7   2     2.805852076796   127.60781816   179.99095485
 C     11  10   5     2.696910408667   127.76577040   180.09525613
 C     28  11  10     2.595627250286   128.55551013   340.69177728
 C     29  28  11     2.653733234861   112.85878655   185.98537496
 C     30  29  28     2.611800616067   114.16066084   358.13020769
 S     28  11  10     3.276268522292   120.22746996   164.61169821
 C     31  30  29     2.692468639846   132.79338150   171.95980831
 S     33  31  30     3.287872147056   115.75277373   215.05857385
 C     34  33  31     3.294585623887    92.30041172   177.41510183
 C     35  34  33     2.610231568565   110.71551867   357.54448656
 C     33  31  30     2.614438480354   133.44332734    32.68859091
 C     36  35  34     2.773166979776   124.48655364   192.95576126
 C     38  36  35     2.758477700652   113.53495029   185.74181293
 C     39  38  36     2.707856954674   123.26274275   357.07830377
 C     40  39  38     2.768115293103   122.63919769   358.78690388
 C     39  38  36     2.595190048160   123.64243984   175.61126240
 S     42  39  38     3.268323121459   110.79805056   181.34484272
 C     40  39  38     2.590521399133   112.65862559   178.39145837
 C     35  34  33     2.696288964779   115.19089796   173.45242522
 C     45  35  34     2.610115962558   133.55952536   218.22161569
 C     46  45  35     2.663596053220   114.07580196   165.89909845
 S     45  35  34     3.290516139058   115.68120933    24.62753584
 O     38  36  35     2.307911933696   122.78096276     8.90103134
 O     41  40  39     2.304723004516   123.91564319   171.42221407
 C     42  39  38     2.807513513234   127.46730543     1.34903138
 C     51  42  39     2.875284952501   113.43422893   189.95930580
 C     44  40  39     2.808319016432   128.92577414   176.84638600
 C     53  44  40     2.894551597936   110.62158615   275.59932318
 C     48  45  35    10.157947352701   150.17182641   235.13893349
 C     55  48  45     2.654371348705    40.51129444   302.31190225
 C     56  55  48     2.674539823191   120.95987619   174.75274613
 C     57  56  55     2.635618311551   122.91078627     2.51968884
 C     58  57  56     2.671125229238   116.41781031   356.76668016
 C     55  48  45     2.620241315604   155.96783215   314.26874091
 C     56  55  48     2.663423425881   126.55444486   359.72314949
 C     61  56  55     2.576618385047   114.10328330   174.98484360
 S     62  61  56     3.307132176114   111.75327581     1.47234872
 C     59  58  57     2.688104931527   128.77733496   185.51579545
 C     64  59  58     2.578138317990   113.61710419   176.73172560
 S     60  55  48     3.276593849483   124.20954053   169.11959472
 C     55  48  45     2.741164748476    81.61687038   123.86440092
 C     58  57  56     2.736204443224   121.19825547   176.99036992
 C     67  55  48     2.583987582821   127.46579608   229.33894573
 C     69  67  55     2.662677249958   113.35299038   178.04019655
 C     70  69  67     2.571742591172   113.62911330     1.12728996
 S     71  70  69     3.274747751549   110.77893007   359.50658992
 C     68  58  57     2.583676888575   128.31997614    37.31752419
 C     73  68  58     2.660956466956   113.42710067   182.21590016
 C     74  73  68     2.571859093619   113.56842989     0.87837417
 S     75  74  73     3.272649012611   110.88038313   359.28828173
 C     71  70  69     2.814844845047   129.23607061   183.14546772
 C     77  71  70     2.895290538507   110.85473533    93.19156924
 C     75  74  73     2.814735312446   128.62624521   181.58605020
 C     79  75  74     2.891653307191   111.26713190   106.72425305
 C     47  46  45     2.589782451624   113.12600698   358.33833948
 C     65  64  59     2.702912777420   132.11051997   185.57968158
 C     82  65  64     2.593960182877   133.27000759   345.12271042
 C     83  82  65     2.666323250683   113.11481855   178.91474421
 C     84  83  82     2.604226542911   113.99260750   358.95621730
 S     82  65  64     3.274560680674   116.06338589   164.03492051
 C     85  84  83     2.704735542696   136.97219589   181.84109504
 S     87  85  84     3.286469529525   114.22477413   213.33508465
 C     88  87  85     3.290734388797    92.59119516   193.73592874
 C     89  88  87     2.609448254509   110.40574988   355.52661190
 C     87  85  84     2.608869290439   134.44393229    45.20849418
 C     90  89  88     2.774623313529   124.41108997   174.25761104
 C     92  90  89     2.770636778715   113.01049403   169.64807726
 C     93  92  90     2.711181362170   122.01378269    19.43974884
 C     94  93  92     2.770132559586   121.98865841   359.93164306
 C     93  92  90     2.587731975345   125.01791136   197.10189689
 S     96  93  92     3.276355508243   110.89435594   180.64069986
 C     94  93  92     2.588578028813   112.89509047   177.97600253
 C     89  88  87     2.703681421852   113.87808043   167.79216313
 C     99  89  88     2.605906833485   137.46414750   150.09426480
 C    100  99  89     2.671140205375   114.04285443   179.68815363
 S     99  89  88     3.291216350360   112.98004033   331.24374781
 O     92  90  89     2.303081168594   122.76979580   348.17356542
 O     95  94  93     2.303436798987   124.23227632   160.21524256
 C     96  93  92     2.809154177076   128.90592814     4.85584453
 C    105  96  93     2.893380541651   110.83059981    98.57610816
 C     98  94  93     2.809144151358   128.96322429   177.59099403
 C    107  98  94     2.892963345780   110.94775240   257.34913489
 C     23  17  16     6.929807815421    89.55632914   300.26790939
 C    109  23  17     2.660470540466    82.51843007   208.46422541
 C    110 109  23     2.674546751973   121.20955082    76.76893563
 C    111 110 109     2.634791308604   122.82537331   358.84673824
 C    112 111 110     2.670177563068   116.24291726     1.87280592
 C    109  23  17     2.624088547736    82.21326737   325.82859931
 C    110 109  23     2.665191871755   126.95945357   259.47529325
 C    115 110 109     2.576312090896   114.46412053   175.67222504
 S    116 115 110     3.303756999017   111.66559452     2.42197799
 C    113 112 111     2.678734387913   128.34834518   181.68383605
 C    118 113 112     2.579667252478   113.57131663   175.91978860
 S    114 109  23     3.282026895657   124.44249005   100.00018419
 C    109  23  17     2.738395928726   102.99880419    86.51183266
 C    112 111 110     2.736161665747   120.99974366   184.87405360
 C    121 109  23     2.584965443085   127.81567729   231.08561627
 C    123 121 109     2.661650300172   113.40347392   181.38633442
 C    124 123 121     2.572547927239   113.69727877   359.00740110
 S    125 124 123     3.269234226625   110.79743857   359.36360484
 C    122 112 111     2.584796681577   127.96351330   323.20223552
 C    127 122 112     2.660157592376   113.56379254   176.67556727
 C    128 127 122     2.572383340317   113.56869893   359.06160282
 S    129 128 127     3.270541403795   110.83016194     0.76820631
 C    125 124 123     2.811333044779   128.85548542   176.08769053
 C    131 125 124     2.890020147912   111.50022272   243.36563089
 C    129 128 127     2.815871085271   128.54398706   177.52468610
 C    133 129 128     2.893588457356   111.03115200   273.08618151
 C    101 100  99     2.587470608678   113.15408281     2.17538834
 C    119 118 113     2.690601011684   128.94354910   188.22273100
 C    136 119 118     2.591841217281   130.35425688   351.27950945
 C    137 136 119     2.656667837582   113.20877952   170.90293158
 C    138 137 136     2.618309833248   114.17934316     0.28700268
 S    136 119 118     3.271875435328   118.68560608   164.32699997
 C    139 138 137     2.690713105718   135.01164278   191.80941204
 S    141 139 138     3.299836780947   115.29081112   159.68772730
 C    142 141 139     3.279674220055    92.60993427   187.69975584
 C    143 142 141     2.616906733412   110.55699433     3.33869247
 C    141 139 138     2.614817484273   134.05247666   347.33572148
 C    144 143 142     2.770108348110   125.24415095   159.98601454
 C    146 144 143     2.754197493688   113.99244243   175.72645902
 C    147 146 144     2.705837450599   122.80252462   359.33810011
 C    148 147 146     2.761002554378   122.00111068     4.59361661
 C    147 146 144     2.594330057116   124.16883906   183.31179768
 S    150 147 146     3.269225147429   110.82103885   176.68531408
 C    148 147 146     2.588819521447   113.04963544   183.83784308
 C    143 142 141     2.694551009067   117.35933725   187.39735573
 C    153 143 142     2.607367911889   131.12636808   148.98440427
 C    154 153 143     2.668914699842   113.64600394   184.48230402
 C    155 154 153     2.564015950555   112.46941185     1.24661313
 S    156 155 154     3.236650634990   112.32640759     0.48495837
 O    146 144 143     2.312305974241   122.62755520   351.08484959
 O    149 148 147     2.306044843687   124.02065012   193.84519354
 C    150 147 146     2.806780184958   127.57575657   356.84096634
 C    160 150 147     2.876424906447   113.50732326   161.41673420
 C    152 148 147     2.807952135210   128.20873285   177.30851733
 C    162 152 148     2.880462542350   113.57366178   145.01007705
 Cl    30  29  28     3.217423753429   121.35214426   172.11051829
 Cl    46  45  35     3.223985931332   124.24338631   352.39640645
 Cl    84  83  82     3.223433884308   122.24956929   175.42047518
 Cl   100  99  89     3.222758788747   123.97065462   355.19657755
 Cl   138 137 136     3.211708934918   119.62626546   183.40622714
 Cl   154 153 143     3.219777730087   124.68339148     0.14333229
[...]
  58   34232.9    292.1   0.013625400   0.00319  -0.05336   0.00040  -0.01846
  59   34262.2    291.9   0.051207384   0.01199  -0.10859   0.01067  -0.00924
  60   34339.0    291.2   0.041987809   0.00985  -0.00151  -0.09877   0.00983
  61   34448.0    290.3   0.014305034   0.00337  -0.02257   0.05346  -0.00080
  62   34527.3    289.6   0.048453757   0.01143   0.09120  -0.04138   0.03746
  63   34603.6    289.0   0.114261714   0.02702   0.07845   0.14387  -0.01299
  64   34672.7    288.4   0.062357717   0.01478  -0.00320   0.11863  -0.02634
  65   34706.1    288.1   0.026801118   0.00636  -0.01620   0.07349   0.02635
  66   34914.5    286.4   0.011788886   0.00281  -0.00251  -0.04956   0.01873
  67   34965.1    286.0   0.004700494   0.00112  -0.02859   0.01740  -0.00175
  68   35035.2    285.4   0.041853572   0.01002  -0.08335   0.00696   0.05501
  69   35124.0    284.7   0.019456424   0.00467  -0.01756   0.06355   0.01799
  70   35164.6    284.4   0.108776376   0.02614  -0.08054  -0.13967   0.01221
  71   35316.7    283.2   0.100370178   0.02423  -0.14570  -0.05155   0.01845
  72   35347.5    282.9   0.010509846   0.00254   0.01683   0.04725  -0.00485
  73   35452.3    282.1   0.027268275   0.00661  -0.02219   0.07799   0.00568
  74   35514.3    281.6   0.023380685   0.00568  -0.04524   0.05713   0.01909
  75   35547.3    281.3   0.020551948   0.00499   0.04726  -0.00805  -0.05191
  76   35609.4    280.8   0.080743651   0.01965   0.00478  -0.13532   0.03630
  77   35742.1    279.8   0.007533090   0.00184  -0.03933  -0.01493  -0.00840
  78   35848.6    279.0   0.065400258   0.01602  -0.10338  -0.06371  -0.03575
  79   35869.7    278.8   0.021050283   0.00516  -0.06725  -0.02526   0.00010
  80   36028.9    277.6   0.001391967   0.00034  -0.00302   0.01440   0.01124
  81   36080.4    277.2   0.032066521   0.00791  -0.04346  -0.07302  -0.02621
  82   36122.4    276.8   0.023943643   0.00591   0.05492   0.05258  -0.01139
  83   36172.3    276.5   0.030821050   0.00762  -0.02520   0.08056   0.02225
  84   36373.3    274.9   0.046353117   0.01152   0.09950   0.02520   0.03144
  85   36478.9    274.1   0.013714674   0.00342   0.02026   0.05482   0.00181
  86   36571.8    273.4   0.032794026   0.00820  -0.05272   0.06949  -0.02426
  87   36635.2    273.0   0.016387783   0.00410  -0.05591  -0.02945  -0.01048
  88   36657.8    272.8   0.003787103   0.00095   0.00521   0.02876  -0.00972
  89   36705.7    272.4   0.022362599   0.00561   0.06098   0.03965  -0.01787
  90   36753.6    272.1   0.002215940   0.00056   0.01177   0.00205  -0.02035
  91   36843.2    271.4   0.009149048   0.00230   0.04066   0.01805  -0.01803
  92   36890.2    271.1   0.011072210   0.00279   0.02087   0.04803   0.00703
  93   36925.3    270.8   0.004398724   0.00111  -0.01545  -0.02196   0.01973
  94   37099.1    269.5   0.038380371   0.00973  -0.07491  -0.05309   0.03607
  95   37141.2    269.2   0.092413485   0.02346   0.10379  -0.11257   0.00358
  96   37237.4    268.5   0.016586931   0.00422   0.03386  -0.05213  -0.01892
  97   37266.3    268.3   0.008531440   0.00217   0.04061   0.02063   0.00992
  98   37375.8    267.6   0.058051272   0.01483  -0.10721  -0.04287   0.03869
  99   37454.5    267.0   0.011602904   0.00297   0.02716   0.03810   0.02795
 100   37492.6    266.7   0.029696719   0.00761   0.03653  -0.06356   0.04728
 101   37611.6    265.9   0.072478426   0.01863  -0.09072  -0.09994  -0.02033
 102   37649.6    265.6   0.029629274   0.00762   0.07928  -0.03474  -0.01151
 103   37732.8    265.0   0.004861886   0.00125   0.00376   0.00314   0.03507
 104   37798.4    264.6   0.005811233   0.00150  -0.00192  -0.03838   0.00493
 105   37903.6    263.8   0.049125574   0.01273   0.08374   0.07351  -0.01759
 106   37976.6    263.3   0.007591511   0.00197   0.02681  -0.03441   0.00821
 107   38003.3    263.1   0.010935597   0.00284  -0.05186  -0.00947  -0.00784
 108   38073.3    262.7   0.002926871   0.00076   0.01484  -0.02250   0.00594
 109   38081.0    262.6   0.081496423   0.02121   0.04272   0.13910  -0.00607
 110   38137.4    262.2   0.040796295   0.01063   0.09555  -0.03454  -0.01763
 111   38212.8    261.7   0.004247887   0.00111   0.02213  -0.01860   0.01654
 112   38293.9    261.1   0.021173075   0.00554   0.00348  -0.07317  -0.01327
 113   38330.9    260.9   0.008997660   0.00236  -0.02583   0.03935  -0.01189
 114   38356.3    260.7   0.023700716   0.00621   0.06994  -0.03635  -0.00042
 115   38438.7    260.2   0.026966548   0.00708  -0.06880   0.04848  -0.00027
 116   38491.7    259.8   0.034662222   0.00912  -0.04627   0.08350   0.00229
 117   38563.6    259.3   0.002088125   0.00055   0.01867   0.01254  -0.00668
 118   38610.5    259.0   0.016425790   0.00433   0.02688  -0.05947  -0.00868
 119   38687.5    258.5   0.020837270   0.00551  -0.03414   0.06311   0.01902
 120   38713.7    258.3   0.007529275   0.00199   0.00400  -0.03061  -0.03224
 121   38780.5    257.9   0.012242029   0.00324  -0.01455   0.05488   0.00459
 122   38807.3    257.7   0.002877552   0.00076  -0.02133  -0.00854   0.01534
 123   38925.4    256.9   0.016902928   0.00450   0.05697  -0.03509   0.00440
 124   39044.1    256.1   0.042991009   0.01147   0.09035  -0.05752  -0.00047
 125   39101.3    255.7   0.017765109   0.00475   0.01246   0.06738  -0.00719
 126   39105.0    255.7   0.010352288   0.00277  -0.02553   0.04405   0.01321
 127   39188.0    255.2   0.028680073   0.00768   0.07410   0.04445   0.01467
 128   39240.9    254.8   0.039433318   0.01058   0.09954   0.00189  -0.02576
 129   39263.6    254.7   0.023060167   0.00619  -0.06124   0.04586   0.01828
 130   39296.9    254.5   0.038261094   0.01028  -0.01811  -0.09909  -0.01134
 131   39330.1    254.3   0.042557531   0.01144   0.06482   0.08505  -0.00233
 132   39405.1    253.8   0.011865921   0.00320  -0.04853  -0.02850  -0.00531
 133   39433.6    253.6   0.076519744   0.02062   0.13983   0.03223  -0.00568
 134   39516.2    253.1   0.004146885   0.00112  -0.01740  -0.01977   0.02064
 135   39608.5    252.5   0.003367169   0.00091   0.02519   0.00117   0.01660
 136   39663.3    252.1   0.011758248   0.00319  -0.01369  -0.05477  -0.00001
 137   39695.9    251.9   0.031360411   0.00851   0.01100   0.09018  -0.01596
 138   39807.7    251.2   0.000974572   0.00027   0.01464  -0.00604  -0.00380
 139   39828.0    251.1   0.013322059   0.00363  -0.04810  -0.03617  -0.00214
 140   39911.3    250.6   0.017391538   0.00474  -0.06519   0.01488   0.01652
 141   39956.2    250.3   0.018722731   0.00511  -0.05143   0.03895  -0.03084
 142   39989.5    250.1   0.053344520   0.01458  -0.09804  -0.07018   0.00659
 143   40135.8    249.2   0.053122247   0.01457  -0.04021   0.11173   0.02173
 144   40146.7    249.1   0.001341602   0.00037   0.00698  -0.00305   0.01761
 145   40198.7    248.8   0.008813692   0.00242  -0.04488   0.02017   0.00075
 146   40255.7    248.4   0.017724056   0.00488  -0.06546  -0.00580   0.02361
 147   40313.6    248.1   0.003622014   0.00100  -0.02469   0.01810  -0.00779

-------------------------------------------------------------------
                             CD SPECTRUM
-------------------------------------------------------------------
State   Energy Wavelength       R         MX        MY        MZ   
        (cm-1)   (nm)       (1e40*cgs)   (au)      (au)      (au)  
-------------------------------------------------------------------
   0   18170.2    550.4    -171.43001  -0.27967   0.73774  -0.93907
   1   20599.4    485.5    1906.63426   2.02176   0.50083  10.52047
   2   21206.8    471.5    -884.76762  -0.91721   2.18187  -2.03982
   3   22146.9    451.5    -858.67939   1.14785  -2.18785  -4.16568
   4   22951.4    435.7    520.85551  -0.14230  -1.41609  -6.67538
   5   23812.0    420.0    -91.73154  -0.19114   0.63849   0.95384
   6   24494.9    408.2    353.62246  -0.74331   0.69231   2.56375
   7   25153.4    397.6     93.19775  -0.32590   0.42837   3.81334
   8   25330.9    394.8    -242.51055  -0.41628  -0.12234  -3.03522
   9   25455.9    392.8    -40.16091   0.10322  -0.13753   0.68289
  10   25930.2    385.7    -301.69220  -0.60014   0.61930   3.67390
  11   26095.8    383.2    228.86419  -0.62111   0.42402   0.74085
  12   26307.4    380.1    -109.33355   1.15921  -0.48204  -1.46916
  13   26612.8    375.8    -373.29591   2.75907  -0.99266  -1.36148
  14   27061.0    369.5    -55.53281   0.00687  -0.36606  -1.35602
  15   27241.3    367.1    109.91413   0.79644   0.01565   2.62988
  16   28008.9    357.0    -70.41555   0.33972  -0.14178   1.61750
  17   28073.8    356.2    109.36984   0.18088  -0.29277  -0.07379
  18   28568.7    350.0    -14.89279  -0.17681  -0.11061  -0.72289
  19   28808.3    347.1    -26.24285  -0.83010  -0.62544   0.05660
  20   28880.7    346.3    -55.81020   0.89153   0.52318   2.06794
  21   28993.8    344.9    -52.69093  -0.70556   0.18560  -0.42324
  22   29137.0    343.2    -229.32030   1.82590   0.28767   1.49405
  23   29532.0    338.6    104.52617   0.34259   0.63222   2.11132
  24   29726.9    336.4    -146.35285   1.03791  -0.80004  -0.99329
  25   30177.7    331.4     15.68342  -0.21553  -0.49703  -1.06228
  26   30285.1    330.2     21.98034  -0.40753  -0.34374  -1.19440
  27   30464.8    328.2     23.71795  -0.45592  -0.57457  -0.27513
  28   30850.3    324.1     65.79126   0.32981  -0.41140  -0.45972
  29   30897.7    323.6     12.02040  -0.42817   0.11065  -0.34144
  30   31170.4    320.8     82.25365   0.06294  -0.37043   1.09938
  31   31234.9    320.2    -110.47309   0.25989   0.44524   2.21002
  32   31338.7    319.1      1.07048   0.20080  -0.14802  -0.32319
  33   31507.7    317.4    155.47942  -0.03209  -0.30664   0.87378
  34   31788.6    314.6     22.37235  -0.09218  -0.44964   0.24854
  35   32007.5    312.4    119.92562   0.48118   0.69537   2.00519
  36   32032.7    312.2     20.67020  -0.24375  -0.65873  -1.04160
  37   32149.5    311.0    -52.15744  -0.29003   0.16379   1.38544
  38   32309.0    309.5    136.45476   0.09140   0.31174  -1.30749
  39   32388.6    308.8    -27.86748  -0.09203   0.29132   0.66546
  40   32444.0    308.2    -55.29779  -0.27647   0.62428   0.62342
  41   32552.5    307.2     69.56985  -0.01729   0.22534   1.57174
  42   32598.3    306.8     36.18586   0.46869   0.02066  -0.19350
  43   32760.8    305.2     81.42418   0.15304   0.19466  -0.30286
  44   32817.4    304.7     39.39433  -0.24221  -0.12866   0.06358
  45   32866.8    304.3    -73.93265  -0.40881   0.23296   1.88634
  46   32989.5    303.1      4.70858   0.20039  -0.34242  -2.18798
  47   33047.2    302.6     43.85971   0.22916  -0.46454  -0.84978
  48   33136.1    301.8    -52.31725   0.56251  -0.06798  -0.26698
  49   33258.6    300.7    -71.29428  -0.25478   0.60408   1.22841
  50   33410.2    299.3     68.89985  -0.12609   0.40233  -0.56676
  51   33447.1    299.0    -34.77352   0.34971  -0.19139   0.17011
  52   33577.2    297.8      0.40745  -0.16078   0.16685   1.31673
  53   33744.4    296.3      9.33809   0.30784  -0.16428  -0.51351
  54   33813.4    295.7     42.80234   0.68686  -0.47027  -0.84709
  55   33921.9    294.8     77.38293   0.26235  -0.81431  -0.60449
  56   33993.9    294.2    -23.46591   0.48349  -0.26827   0.91745
  57   34175.1    292.6    -65.01679  -0.69574   0.08715   0.96317
  58   34232.9    292.1    -45.25628  -0.10343  -0.94898  -1.33080
  59   34262.2    291.9     57.78224   0.39498  -0.32771  -1.07015
  60   34339.0    291.2    -39.58457   0.47050  -0.39955  -1.21282
  61   34448.0    290.3     11.56161  -0.38112  -0.21839  -1.85340
  62   34527.3    289.6    -51.19674  -0.06619   0.21287   1.23736
  63   34603.6    289.0     41.24842  -1.11622   0.38485  -0.82363
  64   34672.7    288.4      1.81229  -0.40416  -0.02290   0.02236
  65   34706.1    288.1      0.13626  -0.31020   0.00618  -0.21217
  66   34914.5    286.4      9.29597   0.31565  -0.44635  -1.23514
  67   34965.1    286.0      5.54440   0.07517   0.09475   1.23871
  68   35035.2    285.4     72.25917  -0.71400   0.30667  -1.89693
  69   35124.0    284.7      1.17058  -0.18639  -0.03841  -0.01543
  70   35164.6    284.4    -25.63159   0.43761  -0.39534  -0.40905
  71   35316.7    283.2     14.82442  -0.01500   0.04332  -0.53368
  72   35347.5    282.9    -13.29287  -0.25078   0.33150   0.59764
  73   35452.3    282.1     63.47375  -0.35344  -0.51076  -1.89998
  74   35514.3    281.6    -10.96562  -0.38518  -0.12727  -0.09745
  75   35547.3    281.3    -66.47451   1.00297   0.14793   0.10317
  76   35609.4    280.8    -85.04537  -0.29134  -0.26634   0.48416
  77   35742.1    279.8     11.98409   0.33995  -0.20717  -0.54588
  78   35848.6    279.0     22.09698   0.55207  -0.10359  -1.04185
  79   35869.7    278.8    -26.75116  -0.22655  -0.04293  -1.05762
  80   36028.9    277.6    -16.31435  -0.10451   0.23905   0.56624
  81   36080.4    277.2     54.92399   0.41879   0.22048  -0.02842
  82   36122.4    276.8     39.01002  -0.32802   0.11957   1.10159
  83   36172.3    276.5     44.16831  -0.28202  -0.29164  -0.40944
  84   36373.3    274.9    -110.99481  -0.03114  -0.19641   2.12729
  85   36478.9    274.1     -9.16262  -0.03006   0.05123   1.44886
  86   36571.8    273.4     27.77880  -0.25664  -0.68732  -0.64427
  87   36635.2    273.0      6.62715   0.04707  -0.09576   0.43425
  88   36657.8    272.8     23.77083  -0.04894  -0.03283   1.13184
  89   36705.7    272.4     26.59109   0.10180   0.15507   1.69285
  90   36753.6    272.1      5.38264   0.37598  -0.01472   0.46411
  91   36843.2    271.4    -33.06623   0.33190   0.09609  -0.26885
  92   36890.2    271.1    -17.75186   0.35622   0.00106   0.42579
  93   36925.3    270.8    -17.66597  -0.15401   0.09537   0.57246
  94   37099.1    269.5    -28.94626  -0.28457  -0.21673  -0.39899
  95   37141.2    269.2    -63.14223   0.15528  -0.18914   0.20905
  96   37237.4    268.5    -17.72469   0.68376   0.41005  -0.49336
  97   37266.3    268.3     -7.65114  -0.23277   0.42320   0.58669
  98   37375.8    267.6    -75.24902  -0.47695  -0.66064  -0.70619
  99   37454.5    267.0     13.58283  -0.27608   0.11728  -0.22479
 100   37492.6    266.7    109.09906  -0.10032   0.26412  -1.05675
 101   37611.6    265.9     61.97618   0.51489   0.11454  -0.83681
 102   37649.6    265.6     18.70838   0.42880   0.83208   0.85993
 103   37732.8    265.0    -58.28733   0.02506  -0.04308   1.02866
 104   37798.4    264.6     16.16938   0.46295   0.26717   0.38827
 105   37903.6    263.8    -37.27514   0.14281   0.36651   0.75777
 106   37976.6    263.3     -1.53689  -0.01399  -0.17122  -0.49968
 107   38003.3    263.1     40.32095   0.29652  -0.00954   1.07072
 108   38073.3    262.7     -8.77075   0.15782  -0.00149   1.13418
 109   38081.0    262.6    131.77119  -0.84556  -0.36220  -0.34009
 110   38137.4    262.2     -8.22937   0.25952   0.34308   0.34307
 111   38212.8    261.7      4.69782  -0.06237  -0.32960  -0.50751
 112   38293.9    261.1    -25.45607   0.61768  -0.04846  -0.93960
 113   38330.9    260.9     26.32271   0.36765  -0.30109  -0.25187
 114   38356.3    260.7    -50.57064   0.47808   0.05155  -0.46977
 115   38438.7    260.2     22.54964   0.08410  -0.18533  -1.27416
 116   38491.7    259.8     -3.72255  -0.26633  -0.12781   0.44691
 117   38563.6    259.3     13.92752  -0.18182  -0.11156   0.64055
 118   38610.5    259.0    -36.85592   0.34602  -0.27951  -0.11097
 119   38687.5    258.5      2.50081  -0.01126   0.06295  -0.30755
 120   38713.7    258.3    -21.59417   0.51374  -0.18471  -0.25426
 121   38780.5    257.9     14.33989  -0.05927  -0.26743   1.04189
 122   38807.3    257.7      1.07929  -0.25741   0.01160  -0.35815
 123   38925.4    256.9    -54.25518   0.48159  -0.03518   1.27503
 124   39044.1    256.1     29.49003   0.07925   0.43774   0.32964
 125   39101.3    255.7     21.39304  -0.21414  -0.15642   0.25599
 126   39105.0    255.7      2.53332  -0.51327  -0.02517  -0.95830
 127   39188.0    255.2    -17.54396  -0.17646   0.20517   0.83930
 128   39240.9    254.8     61.03187  -0.14297   0.32395   1.22249
 129   39263.6    254.7      5.34203  -0.16734  -0.05921  -0.62101
 130   39296.9    254.5    -27.96764   0.42597  -0.25505  -0.16408
 131   39330.1    254.3     41.14228  -0.52375   0.07732   0.16176
 132   39405.1    253.8    -11.43548  -0.03795  -0.19504  -0.13134
 133   39433.6    253.6    -49.31930   0.11615   0.81764   1.60776
 134   39516.2    253.1     22.15046  -0.34003   0.13738  -0.80049
 135   39608.5    252.5     -2.16022  -0.19246   0.37263   0.45043
 136   39663.3    252.1      2.33292   0.55393  -0.12347  -0.55750
 137   39695.9    251.9     14.91122  -0.43375  -0.03057   0.12238
 138   39807.7    251.2      9.37230  -0.05083   0.37055   0.67504
 139   39828.0    251.1      5.85957   0.04688   0.17362  -0.91396
 140   39911.3    250.6    -32.68150  -0.28542  -0.26556   0.54307
 141   39956.2    250.3     32.84075   0.71074  -0.16405  -0.56877
 142   39989.5    250.1    -49.84055  -0.11345  -0.37413  -0.52444
 143   40135.8    249.2    -12.12347  -0.68235  -0.03474  -0.61627
 144   40146.7    249.1     37.18565  -0.58731   0.13534  -0.87856
 145   40198.7    248.8      1.09540  -0.03483  -0.14326  -0.59829
 146   40255.7    248.4    -16.90866  -0.45781   0.16920  -0.67443
 147   40313.6    248.1      9.08543   0.02585   0.23262   1.05588

sTD-DFT done

Total run time:       50.582 sec

           *** ORCA-CIS/TD-DFT FINISHED WITHOUT ERROR ***

-------------------------   --------------------
FINAL SINGLE POINT ENERGY    -17879.559086212448
-------------------------   --------------------


                            ***************************************
                            *     ORCA property calculations      *
                            ***************************************

                                    ---------------------
                                    Active property flags
                                    ---------------------
   (+) Dipole Moment


------------------------------------------------------------------------------
                       ORCA ELECTRIC PROPERTIES CALCULATION
------------------------------------------------------------------------------

Dipole Moment Calculation                       ... on
Quadrupole Moment Calculation                   ... off
Polarizability Calculation                      ... off
GBWName                                         ... PCl3BDB-T.gbw
Electron density file                           ... PCl3BDB-T.scfp
The origin for moment calculation is the CENTER OF MASS  = (-0.885850,  9.837765 -1.430551)

-------------
DIPOLE MOMENT
-------------
                                X             Y             Z
Electronic contribution:    -25.82273      41.87691     -39.44857
Nuclear contribution   :     26.81490     -41.99476      39.48585
                        -----------------------------------------
Total Dipole Moment    :      0.99217      -0.11785       0.03727
                        -----------------------------------------
Magnitude (a.u.)       :      0.99984
Magnitude (Debye)      :      2.54138



--------------------
Rotational spectrum 
--------------------
 
Rotational constants in cm-1:     0.000189     0.000106     0.000073 
Rotational constants in MHz :     5.671132     3.167012     2.175811 

 Dipole components along the rotational axes: 
x,y,z [a.u.] :     0.417120     0.902033     0.109643 
x,y,z [Debye]:     1.060235     2.292785     0.278690 

 

Timings for individual modules:

Sum of individual times         ...    24576.295 sec (= 409.605 min)
GTO integral calculation        ...       19.532 sec (=   0.326 min)   0.1 %
SCF iterations                  ...    24505.994 sec (= 408.433 min)  99.7 %
CIS module                      ...       50.769 sec (=   0.846 min)   0.2 %
                             ****ORCA TERMINATED NORMALLY****
TOTAL RUN TIME: 0 days 6 hours 49 minutes 38 seconds 536 msec
