
                                 *****************
                                 * O   R   C   A *
                                 *****************

           --- An Ab Initio, DFT and Semiempirical electronic structure package ---

                  #######################################################
                  #                        -***-                        #
                  #          Department of theory and spectroscopy      #
                  #               Directorship: Frank Neese             #
                  #        Max Planck Institute fuer Kohlenforschung    #
                  #                Kaiser Wilhelm Platz 1               #
                  #                 D-45470 Muelheim/Ruhr               #
                  #                      Germany                        #
                  #                                                     #
                  #                  All rights reserved                #
                  #                        -***-                        #
                  #######################################################


                         Program Version 4.2.0 -  RELEASE  -


 With contributions from (in alphabetic order):
   Daniel Aravena         : Magnetic Suceptibility
   Michael Atanasov       : Ab Initio Ligand Field Theory (pilot matlab implementation)
   Alexander A. Auer      : GIAO ZORA, VPT2
   Ute Becker             : Parallelization
   Giovanni Bistoni       : ED, misc. LED, open-shell LED, HFLED
   Martin Brehm           : Molecular dynamics
   Dmytro Bykov           : SCF Hessian
   Vijay G. Chilkuri      : MRCI spin determinant printing, contributions to CSF-ICE
   Dipayan Datta          : RHF DLPNO-CCSD density
   Achintya Kumar Dutta   : EOM-CC, STEOM-CC
   Dmitry Ganyushin       : Spin-Orbit,Spin-Spin,Magnetic field MRCI
   Miquel Garcia          : C-PCM Hessian, Gaussian charge scheme
   Yang Guo               : DLPNO-NEVPT2, CIM, IAO-localization
   Andreas Hansen         : Spin unrestricted coupled pair/coupled cluster methods
   Benjamin Helmich-Paris : CASSCF linear response (MC-RPA)
   Lee Huntington         : MR-EOM, pCC
   Robert Izsak           : Overlap fitted RIJCOSX, COSX-SCS-MP3, EOM
   Christian Kollmar      : KDIIS, OOCD, Brueckner-CCSD(T), CCSD density
   Simone Kossmann        : Meta GGA functionals, TD-DFT gradient, OOMP2, MP2 Hessian
   Martin Krupicka        : AUTO-CI
   Lucas Lang             : DCDCAS
   Dagmar Lenk            : GEPOL surface, SMD
   Dimitrios Liakos       : Extrapolation schemes; Compound Job, initial MDCI parallelization
   Dimitrios Manganas     : Further ROCIS development; embedding schemes
   Dimitrios Pantazis     : SARC Basis sets
   Taras Petrenko         : DFT Hessian,TD-DFT gradient, ASA, ECA, R-Raman, ABS, FL, XAS/XES, NRVS
   Peter Pinski           : DLPNO-MP2, DLPNO-MP2 Gradient
   Christoph Reimann      : Effective Core Potentials
   Marius Retegan         : Local ZFS, SOC
   Christoph Riplinger    : Optimizer, TS searches, QM/MM, DLPNO-CCSD(T), (RO)-DLPNO pert. Triples
   Tobias Risthaus        : Range-separated hybrids, TD-DFT gradient, RPA, STAB
   Michael Roemelt        : Original ROCIS implementation
   Masaaki Saitow         : Open-shell DLPNO-CCSD energy and density
   Barbara Sandhoefer     : DKH picture change effects
   Avijit Sen             : IP-ROCIS
   Kantharuban Sivalingam : CASSCF convergence, NEVPT2, FIC-MRCI
   Bernardo de Souza      : ESD, SOC TD-DFT
   Georgi Stoychev        : AutoAux, RI-MP2 NMR
   Willem Van den Heuvel  : Paramagnetic NMR
   Boris Wezisla          : Elementary symmetry handling
   Frank Wennmohs         : Technical directorship


 We gratefully acknowledge several colleagues who have allowed us to
 interface, adapt or use parts of their codes:
   Stefan Grimme, W. Hujo, H. Kruse,             : VdW corrections, initial TS optimization,
                  C. Bannwarth                     DFT functionals, gCP, sTDA/sTD-DF
   Ed Valeev, F. Pavosevic, A. Kumar             : LibInt (2-el integral package), F12 methods
   Garnet Chan, S. Sharma, J. Yang, R. Olivares  : DMRG
   Ulf Ekstrom                                   : XCFun DFT Library
   Mihaly Kallay                                 : mrcc  (arbitrary order and MRCC methods)
   Andreas Klamt, Michael Diedenhofen            : otool_cosmo (COSMO solvation model)
   Jiri Pittner, Ondrej Demel                    : Mk-CCSD
   Frank Weinhold                                : gennbo (NPA and NBO analysis)
   Christopher J. Cramer and Donald G. Truhlar   : smd solvation model
   Lars Goerigk                                  : TD-DFT with DH, B97 family of functionals
   V. Asgeirsson, H. Jonsson                     : NEB implementation
   FAccTs GmbH                                   : IRC, NEB, NEB-TS, Multilevel, MM, QM/MM, CI optimization
   S Lehtola, MJT Oliveira, MAL Marques          : LibXC Library


 Your calculation uses the libint2 library for the computation of 2-el integrals
 For citations please refer to: http://libint.valeyev.net

 Your ORCA version has been built with support for libXC version: 4.2.3
 For citations please refer to: https://tddft.org/programs/libxc/

 This ORCA versions uses:
   CBLAS   interface :  Fast vector & matrix operations
   LAPACKE interface :  Fast linear algebra routines
   SCALAPACK package :  Parallel linear algebra routines


XCFun DFT library Copyright 2009-2010 Ulf Ekstrom and contributors.
See http://admol.org/xcfun for more information. This is free soft-
ware; see the source code for copying conditions. There is ABSOLUTELY
NO WARRANTY; not even for MERCHANTABILITY or FITNESS FOR A PARTICULAR
PURPOSE. For details see the documentation. Scientific users of this 
library should cite U. Ekstrom, L. Visscher, R. Bast, A. J. Thorvald-
sen and K. Ruud; J.Chem.Theor.Comp. 2010, DOI: 10.1021/ct100117s
XCFun Version 0.99 
----- Orbital basis set information -----
Your calculation utilizes the basis: def2-SVP
   F. Weigend and R. Ahlrichs, Phys. Chem. Chem. Phys. 7, 3297 (2005).

----- AuxJ basis set information -----
Your calculation utilizes the auxiliary basis: def2/J
   F. Weigend, Phys. Chem. Chem. Phys. 8, 1057 (2006).

================================================================================
                                        WARNINGS
                       Please study these warnings very carefully!
================================================================================

INFO   : Checking CIS options ...

WARNING: CIS/ROCIS methods need fully converged wavefunctions
  ===> : Setting SCFConvForced true
         You can overwrite this default with %scf ConvForced false 


INFO   : the flag for use of LIBINT has been found!

================================================================================
                                       INPUT FILE
================================================================================
NAME = PDCBT-2F.inp
|  1> # ORCA input file
|  2> # SCF done       -283.119498863923          0.000272157378
|  3> ! CAM-B3LYP def2-SVP def2/J RIJCOSX Grid4 TightSCF
|  4> %maxcore 5000
|  5> %tddft
|  6>     Mode sTDDFT
|  7>     Ethresh 5.0
|  8>     maxcore 5000
|  9> end
| 10> * xyz 0 1
| 11>    C       -0.06850        -0.22088        -0.69053
| 12>    C       -0.58532         1.04936        -0.63257
| 13>    C        0.42491         2.02123        -0.56149
| 14>    C        1.70369         1.53891        -0.55722
| 15>    S        1.67622        -0.18848        -0.65007
| 16>    C       -0.79463        -1.44461        -0.76600
| 17>    C       -0.32119        -2.73233        -0.91820
| 18>    C       -1.34121        -3.69537        -0.95152
| 19>    C       -2.60256        -3.16294        -0.81871
| 20>    S       -2.53395        -1.43216        -0.65378
| 21>    C        1.11928        -3.09208        -1.13083
| 22>    O        1.84517        -3.37476        -0.04609
| 23>    O        1.60499        -3.15584        -2.22524
| 24>    C        1.27501        -3.29673         1.25582
| 25>    C        2.38477        -3.56232         2.25858
| 26>    C        2.97276         2.30664        -0.49344
| 27>    C       -6.39199        -6.78608        -0.86460
| 28>    C       -7.75993        -6.96131        -0.89651
| 29>    C       -8.11209        -8.31003        -0.92454
| 30>    S       -5.55763        -8.31550        -0.88283
| 31>    C       -5.65539        -5.56922        -0.81365
| 32>    C       -6.12895        -4.27399        -0.69461
| 33>    C       -5.10851        -3.31314        -0.69926
| 34>    C       -3.84595        -3.85218        -0.80389
| 35>    S       -3.91613        -5.58494        -0.91862
| 36>    C       -7.57210        -3.88218        -0.62280
| 37>    O       -8.18535        -4.01181         0.55922
| 38>    O       -8.16685        -3.44620        -1.56847
| 39>    C       -7.48757        -4.48411         1.70616
| 40>    C       -8.40720        -4.31441         2.90368
| 41>    C       -7.77329       -13.02710        -1.00314
| 42>    C       -6.40582       -12.85539        -1.06262
| 43>    C       -6.04782       -11.50808        -1.03218
| 44>    C       -7.10321       -10.61718        -0.95757
| 45>    S       -8.59976       -11.49556        -0.92010
| 46>    C       -8.51959       -14.23895        -0.99683
| 47>    C       -8.05838       -15.54424        -1.02011
| 48>    C       -9.09040       -16.49188        -1.02014
| 49>    C      -10.34912       -15.93380        -0.98100
| 50>    S      -10.26069       -14.19814        -0.96205
| 51>    C       -6.61830       -15.94819        -1.10177
| 52>    O       -5.92500       -15.97455         0.04212
| 53>    O       -6.09533       -16.25734        -2.13522
| 54>    C       -6.53912       -15.64701         1.28385
| 55>    C       -5.51272       -15.88505         2.37852
| 56>    C       -7.05206        -9.19840        -0.92302
| 57>    C      -14.17852       -19.50940        -0.83287
| 58>    C      -15.54773       -19.67566        -0.80443
| 59>    C      -15.90839       -21.02168        -0.75987
| 60>    S      -13.35453       -21.04424        -0.81348
| 61>    C      -13.43021       -18.29924        -0.86612
| 62>    C      -13.89037       -16.99348        -0.85670
| 63>    C      -12.85895       -16.04684        -0.91056
| 64>    C      -11.60067       -16.60626        -0.94672
| 65>    S      -11.68989       -18.34182        -0.93142
| 66>    C      -15.33225       -16.58733        -0.85477
| 67>    O      -15.95437       -16.54926         0.32902
| 68>    O      -15.91660       -16.28658        -1.85730
| 69>    C      -15.26687       -16.87225         1.53291
| 70>    C      -16.22892       -16.63893         2.68552
| 71>    C      -15.58552       -25.74323        -0.65405
| 72>    C      -14.22049       -25.57788        -0.76436
| 73>    C      -13.86005       -24.23148        -0.80267
| 74>    C      -14.91141       -23.33556        -0.73209
| 75>    S      -16.40745       -24.20764        -0.61080
| 76>    C      -16.32924       -26.95419        -0.57210
| 77>    C      -15.86255       -28.25509        -0.49490
| 78>    C      -16.89136       -29.20600        -0.45081
| 79>    C      -18.15212       -28.65358        -0.47588
| 80>    S      -18.07105       -26.92041        -0.57524
| 81>    C      -14.42124       -28.66062        -0.51440
| 82>    O      -13.73714       -28.55168         0.62989
| 83>    O      -13.88897       -29.08935        -1.49974
| 84>    C      -14.36018       -28.08808         1.82263
| 85>    C      -13.37095       -28.27947         2.95986
| 86>    C      -14.85397       -21.91688        -0.75970
| 87>    C      -21.95588       -32.24959        -0.19300
| 88>    C      -21.44317       -33.52384        -0.17315
| 89>    C      -22.45585       -34.48991        -0.05698
| 90>    C      -23.71718       -33.98054         0.01696
| 91>    S      -23.69433       -32.26934        -0.06338
| 92>    C      -21.22193       -31.03071        -0.29381
| 93>    C      -21.68957       -29.73677        -0.40018
| 94>    C      -20.66284       -28.78335        -0.47932
| 95>    C      -19.40178       -29.33062        -0.42742
| 96>    S      -19.47929       -31.06187        -0.28319
| 97>    C      -23.13628       -29.35925        -0.52464
| 98>    O      -23.79633       -29.08808         0.60349
| 99>    O      -23.68115       -29.27340        -1.58913
|100>    C      -23.15430       -29.19149         1.86993
|101>    C      -24.19906       -28.91328         2.93700
|102>    F        0.15329         3.33567        -0.49681
|103>    F       -9.38549        -8.72681        -0.94702
|104>    F       -4.77327       -11.09563        -1.06658
|105>    F      -17.18401       -21.42964        -0.71383
|106>    F      -12.58710       -23.82376        -0.89657
|107>    F      -22.19744       -35.80318        -0.01610
|108>    H       -1.63540         1.27597        -0.64746
|109>    H       -1.16380        -4.74853        -1.08201
|110>    H        0.47722        -4.04339         1.35421
|111>    H        0.84496        -2.30072         1.41597
|112>    H        2.81244        -4.54568         2.08660
|113>    H        1.98797        -3.51503         3.26847
|114>    H        3.16888        -2.81939         2.14546
|115>    H        2.75212         3.37046        -0.44277
|116>    H        3.58283         2.11219        -1.37503
|117>    H        3.55249         2.02143         0.38396
|118>    H       -8.48459        -6.16968        -0.92396
|119>    H       -5.28781        -2.25479        -0.62961
|120>    H       -6.56276        -3.91071         1.84213
|121>    H       -7.22806        -5.54094         1.56831
|122>    H       -8.66569        -3.26687         3.02868
|123>    H       -7.91128        -4.67120         3.80157
|124>    H       -9.32160        -4.88010         2.75027
|125>    H       -5.68496       -13.64646        -1.14675
|126>    H       -8.92364       -17.55427        -1.05090
|127>    H       -7.42382       -16.27657         1.43746
|128>    H       -6.85345       -14.59617         1.27409
|129>    H       -5.20206       -16.92582         2.37688
|130>    H       -5.94264       -15.64039         3.34535
|131>    H       -4.63870       -15.26332         2.20736
|132>    H      -16.26932       -18.88151        -0.83600
|133>    H      -13.02585       -14.98415        -0.92649
|134>    H      -14.37849       -16.23728         1.63419
|135>    H      -14.94731       -17.92121         1.50541
|136>    H      -16.54793       -15.60079         2.69875
|137>    H      -15.74039       -16.87623         3.62598
|138>    H      -17.10622       -17.26858         2.56864
|139>    H      -13.50478       -26.37453        -0.84014
|140>    H      -16.71907       -30.26677        -0.40356
|141>    H      -15.27972       -28.65617         2.00773
|142>    H      -14.61875       -27.02772         1.71315
|143>    H      -13.11537       -29.33063         3.05789
|144>    H      -13.80777       -27.92821         3.89008
|145>    H      -12.46218       -27.72028         2.75690
|146>    H      -20.39666       -33.75596        -0.24449
|147>    H      -24.64147       -34.51336         0.10758
|148>    H      -20.83614       -27.72673        -0.58451
|149>    H      -22.33630       -28.46282         1.92941
|150>    H      -22.73763       -30.19808         1.99569
|151>    H      -24.61478       -27.91952         2.79879
|152>    H      -23.74618       -28.97910         3.92193
|153>    H      -25.00401       -29.63859         2.86265
|154> *
|155> 
|156>                          ****END OF INPUT****
================================================================================

                       ****************************
                       * Single Point Calculation *
                       ****************************

---------------------------------
CARTESIAN COORDINATES (ANGSTROEM)
---------------------------------
  C     -0.068500   -0.220880   -0.690530
  C     -0.585320    1.049360   -0.632570
  C      0.424910    2.021230   -0.561490
  C      1.703690    1.538910   -0.557220
  S      1.676220   -0.188480   -0.650070
  C     -0.794630   -1.444610   -0.766000
  C     -0.321190   -2.732330   -0.918200
  C     -1.341210   -3.695370   -0.951520
  C     -2.602560   -3.162940   -0.818710
  S     -2.533950   -1.432160   -0.653780
  C      1.119280   -3.092080   -1.130830
  O      1.845170   -3.374760   -0.046090
  O      1.604990   -3.155840   -2.225240
  C      1.275010   -3.296730    1.255820
  C      2.384770   -3.562320    2.258580
  C      2.972760    2.306640   -0.493440
  C     -6.391990   -6.786080   -0.864600
  C     -7.759930   -6.961310   -0.896510
  C     -8.112090   -8.310030   -0.924540
  S     -5.557630   -8.315500   -0.882830
  C     -5.655390   -5.569220   -0.813650
  C     -6.128950   -4.273990   -0.694610
  C     -5.108510   -3.313140   -0.699260
  C     -3.845950   -3.852180   -0.803890
  S     -3.916130   -5.584940   -0.918620
  C     -7.572100   -3.882180   -0.622800
  O     -8.185350   -4.011810    0.559220
  O     -8.166850   -3.446200   -1.568470
  C     -7.487570   -4.484110    1.706160
  C     -8.407200   -4.314410    2.903680
  C     -7.773290  -13.027100   -1.003140
  C     -6.405820  -12.855390   -1.062620
  C     -6.047820  -11.508080   -1.032180
  C     -7.103210  -10.617180   -0.957570
  S     -8.599760  -11.495560   -0.920100
  C     -8.519590  -14.238950   -0.996830
  C     -8.058380  -15.544240   -1.020110
  C     -9.090400  -16.491880   -1.020140
  C    -10.349120  -15.933800   -0.981000
  S    -10.260690  -14.198140   -0.962050
  C     -6.618300  -15.948190   -1.101770
  O     -5.925000  -15.974550    0.042120
  O     -6.095330  -16.257340   -2.135220
  C     -6.539120  -15.647010    1.283850
  C     -5.512720  -15.885050    2.378520
  C     -7.052060   -9.198400   -0.923020
  C    -14.178520  -19.509400   -0.832870
  C    -15.547730  -19.675660   -0.804430
  C    -15.908390  -21.021680   -0.759870
  S    -13.354530  -21.044240   -0.813480
  C    -13.430210  -18.299240   -0.866120
  C    -13.890370  -16.993480   -0.856700
  C    -12.858950  -16.046840   -0.910560
  C    -11.600670  -16.606260   -0.946720
  S    -11.689890  -18.341820   -0.931420
  C    -15.332250  -16.587330   -0.854770
  O    -15.954370  -16.549260    0.329020
  O    -15.916600  -16.286580   -1.857300
  C    -15.266870  -16.872250    1.532910
  C    -16.228920  -16.638930    2.685520
  C    -15.585520  -25.743230   -0.654050
  C    -14.220490  -25.577880   -0.764360
  C    -13.860050  -24.231480   -0.802670
  C    -14.911410  -23.335560   -0.732090
  S    -16.407450  -24.207640   -0.610800
  C    -16.329240  -26.954190   -0.572100
  C    -15.862550  -28.255090   -0.494900
  C    -16.891360  -29.206000   -0.450810
  C    -18.152120  -28.653580   -0.475880
  S    -18.071050  -26.920410   -0.575240
  C    -14.421240  -28.660620   -0.514400
  O    -13.737140  -28.551680    0.629890
  O    -13.888970  -29.089350   -1.499740
  C    -14.360180  -28.088080    1.822630
  C    -13.370950  -28.279470    2.959860
  C    -14.853970  -21.916880   -0.759700
  C    -21.955880  -32.249590   -0.193000
  C    -21.443170  -33.523840   -0.173150
  C    -22.455850  -34.489910   -0.056980
  C    -23.717180  -33.980540    0.016960
  S    -23.694330  -32.269340   -0.063380
  C    -21.221930  -31.030710   -0.293810
  C    -21.689570  -29.736770   -0.400180
  C    -20.662840  -28.783350   -0.479320
  C    -19.401780  -29.330620   -0.427420
  S    -19.479290  -31.061870   -0.283190
  C    -23.136280  -29.359250   -0.524640
  O    -23.796330  -29.088080    0.603490
  O    -23.681150  -29.273400   -1.589130
  C    -23.154300  -29.191490    1.869930
  C    -24.199060  -28.913280    2.937000
  F      0.153290    3.335670   -0.496810
  F     -9.385490   -8.726810   -0.947020
  F     -4.773270  -11.095630   -1.066580
  F    -17.184010  -21.429640   -0.713830
  F    -12.587100  -23.823760   -0.896570
  F    -22.197440  -35.803180   -0.016100
  H     -1.635400    1.275970   -0.647460
  H     -1.163800   -4.748530   -1.082010
  H      0.477220   -4.043390    1.354210
  H      0.844960   -2.300720    1.415970
  H      2.812440   -4.545680    2.086600
  H      1.987970   -3.515030    3.268470
  H      3.168880   -2.819390    2.145460
  H      2.752120    3.370460   -0.442770
  H      3.582830    2.112190   -1.375030
  H      3.552490    2.021430    0.383960
  H     -8.484590   -6.169680   -0.923960
  H     -5.287810   -2.254790   -0.629610
  H     -6.562760   -3.910710    1.842130
  H     -7.228060   -5.540940    1.568310
  H     -8.665690   -3.266870    3.028680
  H     -7.911280   -4.671200    3.801570
  H     -9.321600   -4.880100    2.750270
  H     -5.684960  -13.646460   -1.146750
  H     -8.923640  -17.554270   -1.050900
  H     -7.423820  -16.276570    1.437460
  H     -6.853450  -14.596170    1.274090
  H     -5.202060  -16.925820    2.376880
  H     -5.942640  -15.640390    3.345350
  H     -4.638700  -15.263320    2.207360
  H    -16.269320  -18.881510   -0.836000
  H    -13.025850  -14.984150   -0.926490
  H    -14.378490  -16.237280    1.634190
  H    -14.947310  -17.921210    1.505410
  H    -16.547930  -15.600790    2.698750
  H    -15.740390  -16.876230    3.625980
  H    -17.106220  -17.268580    2.568640
  H    -13.504780  -26.374530   -0.840140
  H    -16.719070  -30.266770   -0.403560
  H    -15.279720  -28.656170    2.007730
  H    -14.618750  -27.027720    1.713150
  H    -13.115370  -29.330630    3.057890
  H    -13.807770  -27.928210    3.890080
  H    -12.462180  -27.720280    2.756900
  H    -20.396660  -33.755960   -0.244490
  H    -24.641470  -34.513360    0.107580
  H    -20.836140  -27.726730   -0.584510
  H    -22.336300  -28.462820    1.929410
  H    -22.737630  -30.198080    1.995690
  H    -24.614780  -27.919520    2.798790
  H    -23.746180  -28.979100    3.921930
  H    -25.004010  -29.638590    2.862650

----------------------------
CARTESIAN COORDINATES (A.U.)
----------------------------
  NO LB      ZA    FRAG     MASS         X           Y           Z
   0 C     6.0000    0    12.011   -0.129446   -0.417403   -1.304913
   1 C     6.0000    0    12.011   -1.106095    1.983003   -1.195384
   2 C     6.0000    0    12.011    0.802964    3.819571   -1.061062
   3 C     6.0000    0    12.011    3.219508    2.908118   -1.052993
   4 S    16.0000    0    32.060    3.167597   -0.356176   -1.228454
   5 C     6.0000    0    12.011   -1.501633   -2.729917   -1.447530
   6 C     6.0000    0    12.011   -0.606961   -5.163355   -1.735147
   7 C     6.0000    0    12.011   -2.534520   -6.983237   -1.798112
   8 C     6.0000    0    12.011   -4.918126   -5.977090   -1.547138
   9 S    16.0000    0    32.060   -4.788472   -2.706390   -1.235465
  10 C     6.0000    0    12.011    2.115133   -5.843184   -2.136959
  11 O     8.0000    0    15.999    3.486866   -6.377372   -0.087097
  12 O     8.0000    0    15.999    3.032992   -5.963673   -4.205094
  13 C     6.0000    0    12.011    2.409420   -6.229917    2.373156
  14 C     6.0000    0    12.011    4.506562   -6.731809    4.268098
  15 C     6.0000    0    12.011    5.617702    4.358918   -0.932466
  16 C     6.0000    0    12.011  -12.079111  -12.823833   -1.633857
  17 C     6.0000    0    12.011  -14.664143  -13.154969   -1.694158
  18 C     6.0000    0    12.011  -15.329628  -15.703681   -1.747127
  19 S    16.0000    0    32.060  -10.502399  -15.714018   -1.668307
  20 C     6.0000    0    12.011  -10.687138  -10.524301   -1.537576
  21 C     6.0000    0    12.011  -11.582037   -8.076671   -1.312623
  22 C     6.0000    0    12.011   -9.653685   -6.260927   -1.321410
  23 C     6.0000    0    12.011   -7.267792   -7.279565   -1.519132
  24 S    16.0000    0    32.060   -7.400413  -10.554007   -1.735940
  25 C     6.0000    0    12.011  -14.309195   -7.336257   -1.176921
  26 O     8.0000    0    15.999  -15.468070   -7.581222    1.056773
  27 O     8.0000    0    15.999  -15.433110   -6.512374   -2.963979
  28 C     6.0000    0    12.011  -14.149457   -8.473740    3.224175
  29 C     6.0000    0    12.011  -15.887306   -8.153053    5.487160
  30 C     6.0000    0    12.011  -14.689389  -24.617651   -1.895660
  31 C     6.0000    0    12.011  -12.105245  -24.293166   -2.008061
  32 C     6.0000    0    12.011  -11.428724  -21.747120   -1.950538
  33 C     6.0000    0    12.011  -13.423122  -20.063563   -1.809545
  34 S    16.0000    0    32.060  -16.251191  -21.723460   -1.738737
  35 C     6.0000    0    12.011  -16.099692  -26.907716   -1.883736
  36 C     6.0000    0    12.011  -15.228131  -29.374357   -1.927729
  37 C     6.0000    0    12.011  -17.178366  -31.165137   -1.927785
  38 C     6.0000    0    12.011  -19.557003  -30.110518   -1.853821
  39 S    16.0000    0    32.060  -19.389894  -26.830596   -1.818011
  40 C     6.0000    0    12.011  -12.506774  -30.137711   -2.082044
  41 O     8.0000    0    15.999  -11.196627  -30.187525    0.079595
  42 O     8.0000    0    15.999  -11.518504  -30.721920   -4.034981
  43 C     6.0000    0    12.011  -12.357146  -29.568564    2.426125
  44 C     6.0000    0    12.011  -10.417531  -30.018394    4.494751
  45 C     6.0000    0    12.011  -13.326462  -17.382457   -1.744255
  46 C     6.0000    0    12.011  -26.793520  -36.867423   -1.573896
  47 C     6.0000    0    12.011  -29.380952  -37.181609   -1.520152
  48 C     6.0000    0    12.011  -30.062500  -39.725218   -1.435946
  49 S    16.0000    0    32.060  -25.236404  -39.767850   -1.537254
  50 C     6.0000    0    12.011  -25.379419  -34.580552   -1.636730
  51 C     6.0000    0    12.011  -26.248995  -32.113023   -1.618928
  52 C     6.0000    0    12.011  -24.299894  -30.324133   -1.720709
  53 C     6.0000    0    12.011  -21.922089  -31.381284   -1.789042
  54 S    16.0000    0    32.060  -22.090691  -34.661017   -1.760129
  55 C     6.0000    0    12.011  -28.973754  -31.345511   -1.615281
  56 O     8.0000    0    15.999  -30.149390  -31.273569    0.621758
  57 O     8.0000    0    15.999  -30.078015  -30.777176   -3.509788
  58 C     6.0000    0    12.011  -28.850203  -31.883932    2.896780
  59 C     6.0000    0    12.011  -30.668214  -31.443021    5.074897
  60 C     6.0000    0    12.011  -29.452364  -48.647655   -1.235975
  61 C     6.0000    0    12.011  -26.872832  -48.335188   -1.444431
  62 C     6.0000    0    12.011  -26.191699  -45.790861   -1.516826
  63 C     6.0000    0    12.011  -28.178481  -44.097818   -1.383450
  64 S    16.0000    0    32.060  -31.005587  -45.745810   -1.154245
  65 C     6.0000    0    12.011  -30.857792  -50.936037   -1.081112
  66 C     6.0000    0    12.011  -29.975875  -53.394382   -0.935225
  67 C     6.0000    0    12.011  -31.920044  -55.191341   -0.851907
  68 C     6.0000    0    12.011  -34.302536  -54.147419   -0.899283
  69 S    16.0000    0    32.060  -34.149335  -50.872202   -1.087046
  70 C     6.0000    0    12.011  -27.252194  -54.160723   -0.972075
  71 O     8.0000    0    15.999  -25.959432  -53.954856    1.190320
  72 O     8.0000    0    15.999  -26.246350  -54.970905   -2.834098
  73 C     6.0000    0    12.011  -27.136807  -53.078779    3.444272
  74 C     6.0000    0    12.011  -25.267434  -53.440454    5.593325
  75 C     6.0000    0    12.011  -28.069935  -41.416901   -1.435625
  76 C     6.0000    0    12.011  -41.490600  -60.942893   -0.364717
  77 C     6.0000    0    12.011  -40.521719  -63.350877   -0.327206
  78 C     6.0000    0    12.011  -42.435407  -65.176484   -0.107677
  79 C     6.0000    0    12.011  -44.818975  -64.213914    0.032050
  80 S    16.0000    0    32.060  -44.775795  -60.980215   -0.119771
  81 C     6.0000    0    12.011  -40.103636  -58.639544   -0.555220
  82 C     6.0000    0    12.011  -40.987347  -56.194351   -0.756231
  83 C     6.0000    0    12.011  -39.047109  -54.392649   -0.905784
  84 C     6.0000    0    12.011  -36.664051  -55.426839   -0.807707
  85 S    16.0000    0    32.060  -36.810523  -58.698428   -0.535152
  86 C     6.0000    0    12.011  -43.721233  -55.480942   -0.991426
  87 O     8.0000    0    15.999  -44.968547  -54.968505    1.140431
  88 O     8.0000    0    15.999  -44.750888  -55.318709   -3.003020
  89 C     6.0000    0    12.011  -43.755286  -55.163922    3.533656
  90 C     6.0000    0    12.011  -45.729596  -54.638181    5.550126
  91 F     9.0000    0    18.998    0.289676    6.303503   -0.938835
  92 F     9.0000    0    18.998  -17.736006  -16.491281   -1.789608
  93 F     9.0000    0    18.998   -9.020173  -20.967702   -2.015544
  94 F     9.0000    0    18.998  -32.473073  -40.496151   -1.348943
  95 F     9.0000    0    18.998  -23.786172  -45.020382   -1.694272
  96 F     9.0000    0    18.998  -41.947082  -67.658205   -0.030425
  97 H     1.0000    0     1.008   -3.090458    2.411234   -1.223522
  98 H     1.0000    0     1.008   -2.199263   -8.973421   -2.044703
  99 H     1.0000    0     1.008    0.901815   -7.640900    2.559086
 100 H     1.0000    0     1.008    1.596743   -4.347731    2.675796
 101 H     1.0000    0     1.008    5.314741   -8.590090    3.943103
 102 H     1.0000    0     1.008    3.756719   -6.642444    6.176513
 103 H     1.0000    0     1.008    5.988315   -5.327875    4.054332
 104 H     1.0000    0     1.008    5.200753    6.369246   -0.836714
 105 H     1.0000    0     1.008    6.770567    3.991461   -2.598430
 106 H     1.0000    0     1.008    6.713233    3.819949    0.725579
 107 H     1.0000    0     1.008  -16.033551  -11.659006   -1.746031
 108 H     1.0000    0     1.008   -9.992513   -4.260936   -1.189790
 109 H     1.0000    0     1.008  -12.401819   -7.390171    3.481121
 110 H     1.0000    0     1.008  -13.659054  -10.470859    2.963676
 111 H     1.0000    0     1.008  -16.375781   -6.173490    5.723376
 112 H     1.0000    0     1.008  -14.950153   -8.827289    7.183926
 113 H     1.0000    0     1.008  -17.615271   -9.222053    5.197257
 114 H     1.0000    0     1.008  -10.743017  -25.788072   -2.167043
 115 H     1.0000    0     1.008  -16.863236  -33.172763   -1.985913
 116 H     1.0000    0     1.008  -14.028987  -30.758260    2.716406
 117 H     1.0000    0     1.008  -12.951144  -27.582764    2.407681
 118 H     1.0000    0     1.008   -9.830469  -31.985164    4.491652
 119 H     1.0000    0     1.008  -11.229962  -29.556054    6.321795
 120 H     1.0000    0     1.008   -8.765873  -28.843495    4.171306
 121 H     1.0000    0     1.008  -30.744559  -35.680883   -1.579811
 122 H     1.0000    0     1.008  -24.615289  -28.315940   -1.750812
 123 H     1.0000    0     1.008  -27.171408  -30.684012    3.088172
 124 H     1.0000    0     1.008  -28.246322  -33.866179    2.844813
 125 H     1.0000    0     1.008  -31.271056  -29.481221    5.099898
 126 H     1.0000    0     1.008  -29.745026  -31.891453    6.852109
 127 H     1.0000    0     1.008  -32.326071  -32.632887    4.854026
 128 H     1.0000    0     1.008  -25.520336  -49.840639   -1.587635
 129 H     1.0000    0     1.008  -31.594464  -57.195906   -0.762618
 130 H     1.0000    0     1.008  -28.874486  -54.152313    3.794060
 131 H     1.0000    0     1.008  -27.625434  -51.074989    3.237384
 132 H     1.0000    0     1.008  -24.784457  -55.426858    5.778575
 133 H     1.0000    0     1.008  -26.092904  -52.776668    7.351186
 134 H     1.0000    0     1.008  -23.550107  -52.383738    5.209786
 135 H     1.0000    0     1.008  -38.544101  -63.789520   -0.462019
 136 H     1.0000    0     1.008  -46.565630  -65.220798    0.203297
 137 H     1.0000    0     1.008  -39.374598  -52.395926   -1.104564
 138 H     1.0000    0     1.008  -42.209490  -53.786935    3.646057
 139 H     1.0000    0     1.008  -42.967894  -57.066101    3.771308
 140 H     1.0000    0     1.008  -46.515193  -52.760247    5.288947
 141 H     1.0000    0     1.008  -44.873777  -54.762563    7.411374
 142 H     1.0000    0     1.008  -47.250731  -56.008818    5.409625

--------------------------------
INTERNAL COORDINATES (ANGSTROEM)
--------------------------------
 C      0   0   0     0.000000000000     0.00000000     0.00000000
 C      1   0   0     1.372578570283     0.00000000     0.00000000
 C      2   1   0     1.403619719226   111.83368848     0.00000000
 C      3   2   1     1.366722028688   115.41858133   359.73637307
 S      4   3   2     1.730101712472   109.71404000     0.20343367
 C      1   2   3     1.424947581738   127.23751634   179.81606214
 C      6   1   2     1.380410472287   129.21201264   175.03888865
 C      7   6   1     1.403209558263   113.17462336   180.01365982
 C      8   7   6     1.375544991449   113.49252230   359.66381506
 S      9   8   7     1.739973748480   110.97846506     0.19390657
 C      7   6   1     1.499861793733   124.66450151   355.69607574
 O     11   7   6     1.335471879936   117.23508874    92.66691483
 O     11   7   6     1.199046617025   122.08583385   271.06510268
 C     12  11   7     1.423425710952   120.90313367   358.22567966
 C     14  12  11     1.519089504703   107.55054629   184.65967155
 C      4   3   2     1.484592841893   128.13088323   179.86117117
 C      9   8   7     5.242998100000   113.23054406   180.97405434
 C     17   9   8     1.379486732303   143.58061952   187.80082105
 C     18  17   9     1.394219489499   111.95119686   178.34002443
 S     17   9   8     1.742301489094   105.10462704     5.76227843
 C     17   9   8     1.423349472933    15.17255660   180.24977676
 C     21  17   9     1.384214704480   128.75546791   179.02051611
 C     22  21  17     1.401624820913   113.08510080   180.98559980
 C     23  22  21     1.376796757732   113.54629467   359.22655661
 S     24  23  22     1.737971640419   110.99768592     0.69246113
 C     22  21  17     1.497115117384   125.36572943   358.54197108
 O     26  22  21     1.337927793194   117.31328118    80.18970814
 O     26  22  21     1.199207184685   122.37086069   258.93748904
 C     27  26  22     1.423177986761   121.29279745     0.92494965
 C     29  27  26     1.519398426121   107.53879795   171.76061873
 C     19  18  17     4.729874499910   161.26035949   359.46690574
 C     31  19  18     1.379491353869    86.99550329   356.69595809
 C     32  31  19     1.394394072599   111.95227137     1.26295086
 C     33  32  31     1.383154913305   115.31743913   359.65907719
 S     34  33  32     1.735689294718   109.45725837     0.14175392
 C     31  19  18     1.423230103883   144.24659824   177.46324424
 C     36  31  19     1.384571632889   128.90098461   180.53972710
 C     37  36  31     1.401102013024   113.09559325   180.69445168
 C     38  37  36     1.377447372643   113.51944523   359.27046204
 S     39  38  37     1.738014557764   111.00330452     0.66606841
 C     37  36  31     1.497889970759   125.12796962   357.96058162
 O     41  37  36     1.337850541615   117.18851822    83.20368305
 O     41  37  36     1.198786989377   122.40882021   262.13045838
 C     42  41  37     1.423488397880   121.18104064     0.72882759
 C     44  42  41     1.519362501347   107.51720104   175.50895686
 C     19  18  17     1.383064412166   115.32456724   359.64997102
 C     39  38  37     5.241293944905   113.08231138   181.77707837
 C     47  39  38     1.379560526146   143.89498054   181.29595265
 C     48  47  39     1.394213423261   111.94721841   180.37000892
 S     47  39  38     1.742145033515   104.81920872     1.31144500
 C     47  39  38     1.423221923735    15.22963039   180.22757199
 C     51  47  39     1.384501765835   128.83095389   180.33042303
 C     52  51  47     1.401019416568   113.09798706   180.52920768
 C     53  52  51     1.377507473809   113.52077524   359.31778649
 S     54  53  52     1.737919103986   111.00405947     0.63025446
 C     52  51  47     1.497991816333   125.14401417   357.78326655
 O     56  52  51     1.337849536906   117.15837853    84.05653385
 O     56  52  51     1.198741792839   122.42230793   262.98342724
 C     57  56  52     1.423492157407   121.15109001     0.46648909
 C     59  57  56     1.519371000447   107.51322030   176.25757176
 C     49  48  47     4.733759321279   161.08737144   359.14188216
 C     61  49  48     1.379425902142    86.91294858   357.38703062
 C     62  61  49     1.394337695718   111.94705333     1.18846168
 C     63  62  61     1.383116781910   115.31437159   359.67251238
 S     64  63  62     1.735906239432   109.46623435     0.08845362
 C     61  49  48     1.423467373177   144.50524781   178.02328335
 C     66  61  49     1.384232713853   128.79668816   183.87492062
 C     67  66  61     1.401650374487   113.07081066   181.06739334
 C     68  67  66     1.376703359079   113.53972079   359.21660854
 S     69  68  67     1.737907650999   111.00753495     0.68880148
 C     67  66  61     1.497400863830   125.33179034   358.47989673
 O     71  67  66     1.337632362684   117.32723454    80.31814807
 O     71  67  66     1.199172915555   122.32783550   259.08268946
 C     72  71  67     1.423282301302   121.30169415     0.93145662
 C     74  72  71     1.519374278412   107.53016154   171.84705860
 C     49  48  47     1.383179166016   115.31776668   359.67685685
 C     69  68  67     5.242127349855   112.84638632   181.37651610
 C     77  69  68     1.373673407000   111.48666368   357.23310791
 C     78  77  69     1.404388655679   111.72572318   178.22053989
 C     79  78  77     1.362306239213   114.51421845   359.73979951
 S     80  79  78     1.713237309336   111.01204241     0.28287534
 C     77  69  68     1.426363808080    15.55288981   181.56366114
 C     82  77  69     1.379957416046   129.22327845   180.62512478
 C     83  82  77     1.403369990024   113.16916960   180.00222075
 C     84  83  82     1.375670885968   113.46982654   359.66049281
 S     85  84  83     1.738975748968   110.99726164     0.20130913
 C     83  82  77     1.500327119698   124.68779129   355.63992282
 O     87  83  82     1.334869457400   117.24559723    92.53731713
 O     87  83  82     1.198913049182   121.99875623   270.98400398
 C     88  87  83     1.423645469420   120.93413802   358.32854825
 C     90  88  87     1.519066373336   107.54259691   183.87483162
 F      3   2   1     1.343768373046   122.29282551   179.98477410
 F     19  18  17     1.340059132576   122.76705889   179.43678138
 F     33  32  31     1.340065694285   122.75313105   179.38486729
 F     49  48  47     1.340058740354   122.76900956   179.37285238
 F     63  62  61     1.339945711923   122.77374393   179.45475510
 F     79  78  77     1.339076172367   122.54829048   180.04752462
 H      2   1   3     1.074356463470   124.23846117   179.54838222
 H      8   7   6     1.075940488038   123.69698608   178.83572233
 H     14  12  11     1.097110127471   109.63277424    64.26466863
 H     14  12  11     1.096643490429   109.90341944   304.90220862
 H     15  14  12     1.086036665541   109.96550805   300.52542368
 H     15  14  12     1.086077527712   109.83316218   180.20165777
 H     15  14  12     1.086079928642   109.82064424    59.94730298
 H     16   4   3     1.087640772912   109.53582059     0.25462509
 H     16   4   3     1.089585763261   110.58383046   240.08467368
 H     16   4   3     1.089615701520   110.73486648   120.56546507
 H     18  17   9     1.073575183674   125.18881337   359.90627801
 H     23  22  21     1.075687842731   123.56681111   179.13787813
 H     29  27  26     1.096607923097   109.86982109    51.14165050
 H     29  27  26     1.096921925891   109.53913748   291.85872409
 H     30  29  27     1.086177762477   110.02676110   299.94584376
 H     30  29  27     1.086021271707   109.78818930   179.62515041
 H     30  29  27     1.086124838221   109.88105961    59.41540716
 H     32  31  19     1.073549598947   125.25944234   182.67429776
 H     38  37  36     1.075838086006   123.62304193   179.07995130
 H     44  42  41     1.096647580447   109.76318266    54.97887122
 H     44  42  41     1.096888012561   109.65191723   295.67687645
 H     45  44  42     1.086146637476   110.01448981   300.01445408
 H     45  44  42     1.086024848196   109.79672691   179.69078809
 H     45  44  42     1.086165226335   109.90046800    59.48059469
 H     48  47  39     1.073481725741   125.26713515     1.77211493
 H     53  52  51     1.075834286031   123.62698980   179.08201753
 H     59  57  56     1.096660186065   109.75330749    55.74782642
 H     59  57  56     1.096901055337   109.66272215   296.44738910
 H     60  59  57     1.086129399565   109.99846013   300.24165265
 H     60  59  57     1.086019273540   109.78843024   179.93439974
 H     60  59  57     1.086174639227   109.92401414    59.71705342
 H     62  61  49     1.073608231619   125.19639715   182.76198095
 H     68  67  66     1.075708789357   123.56079659   179.11778588
 H     74  72  71     1.096604791937   109.86341787    51.23396100
 H     74  72  71     1.096908220819   109.53732318   291.94663748
 H     75  74  72     1.086217456544   110.03811310   299.84298137
 H     75  74  72     1.086049975093   109.78427945   179.52060161
 H     75  74  72     1.086162570981   109.87869161    59.31864326
 H     78  77  69     1.074314790971   124.26668859   357.82303975
 H     80  79  78     1.070710577561   128.15503126   179.93252736
 H     84  83  82     1.075892025484   123.70226106   178.83798582
 H     90  88  87     1.097097005419   109.64761046    63.47388905
 H     90  88  87     1.096655321694   109.87879236   304.09751853
 H     91  90  88     1.086040542567   109.96556134   300.52751874
 H     91  90  88     1.086056937596   109.82507427   180.21326468
 H     91  90  88     1.086069528667   109.83693830    59.96608053

---------------------------
INTERNAL COORDINATES (A.U.)
---------------------------
 C      0   0   0     0.000000000000     0.00000000     0.00000000
 C      1   0   0     2.593797595124     0.00000000     0.00000000
 C      2   1   0     2.652456865509   111.83368848     0.00000000
 C      3   2   1     2.582730335417   115.41858133   359.73637307
 S      4   3   2     3.269418420401   109.71404000     0.20343367
 C      1   2   3     2.692760684678   127.23751634   179.81606214
 C      6   1   2     2.608597745020   129.21201264   175.03888865
 C      7   6   1     2.651681773617   113.17462336   180.01365982
 C      8   7   6     2.599403318725   113.49252230   359.66381506
 S      9   8   7     3.288073864840   110.97846506     0.19390657
 C      7   6   1     2.834328028887   124.66450151   355.69607574
 O     11   7   6     2.523676112632   117.23508874    92.66691483
 O     11   7   6     2.265869727983   122.08583385   271.06510268
 C     12  11   7     2.689884765682   120.90313367   358.22567966
 C     14  12  11     2.870663136803   107.55054629   184.65967155
 C      4   3   2     2.805473891558   128.13088323   179.86117117
 C      9   8   7     9.907830529669   113.23054406   180.97405434
 C     17   9   8     2.606852129431   143.58061952   187.80082105
 C     18  17   9     2.634693005729   111.95119686   178.34002443
 S     17   9   8     3.292472657111   105.10462704     5.76227843
 C     17   9   8     2.689740696705    15.17255660   180.24977676
 C     21  17   9     2.615786702015   128.75546791   179.02051611
 C     22  21  17     2.648687054032   113.08510080   180.98559980
 C     23  22  21     2.601768814183   113.54629467   359.22655661
 S     24  23  22     3.284290428913   110.99768592     0.69246113
 C     22  21  17     2.829137562809   125.36572943   358.54197108
 O     26  22  21     2.528317116098   117.31328118    80.18970814
 O     26  22  21     2.266173156885   122.37086069   258.93748904
 C     27  26  22     2.689416634803   121.29279745     0.92494965
 C     29  27  26     2.871246913680   107.53879795   171.76061873
 C     19  18  17     8.938167452648   161.26035949   359.46690574
 C     31  19  18     2.606860862925    86.99550329   356.69595809
 C     32  31  19     2.635022919976   111.95227137     1.26295086
 C     33  32  31     2.613783986934   115.31743913   359.65907719
 S     34  33  32     3.279977420597   109.45725837     0.14175392
 C     31  19  18     2.689515121892   144.24659824   177.46324424
 C     36  31  19     2.616461198956   128.90098461   180.53972710
 C     37  36  31     2.647699090301   113.09559325   180.69445168
 C     38  37  36     2.602998298184   113.51944523   359.27046204
 S     39  38  37     3.284371530942   111.00330452     0.66606841
 C     37  36  31     2.830601823482   125.12796962   357.96058162
 O     41  37  36     2.528171131771   117.18851822    83.20368305
 O     41  37  36     2.265379102831   122.40882021   262.13045838
 C     42  41  37     2.690003226808   121.18104064     0.72882759
 C     44  42  41     2.871179025696   107.51720104   175.50895686
 C     19  18  17     2.613612964566   115.32456724   359.64997102
 C     39  38  37     9.904610143251   113.08231138   181.77707837
 C     47  39  38     2.606991579584   143.89498054   181.29595265
 C     48  47  39     2.634681542199   111.94721841   180.37000892
 S     47  39  38     3.292176998914   104.81920872     1.31144500
 C     47  39  38     2.689499663652    15.22963039   180.22757199
 C     51  47  39     2.616329169358   128.83095389   180.33042303
 C     52  51  47     2.647543005619   113.09798706   180.52920768
 C     53  52  51     2.603111872929   113.52077524   359.31778649
 S     54  53  52     3.284191149444   111.00405947     0.63025446
 C     52  51  47     2.830794283724   125.14401417   357.78326655
 O     56  52  51     2.528169233146   117.15837853    84.05653385
 O     56  52  51     2.265293693752   122.42230793   262.98342724
 C     57  56  52     2.690010331284   121.15109001     0.46648909
 C     59  57  56     2.871195086667   107.51322030   176.25757176
 C     49  48  47     8.945508701115   161.08737144   359.14188216
 C     61  49  48     2.606737177085    86.91294858   357.38703062
 C     62  61  49     2.634916383110   111.94705333     1.18846168
 C     63  62  61     2.613711929040   115.31437159   359.67251238
 S     64  63  62     3.280387386692   109.46623435     0.08845362
 C     61  49  48     2.689963495877   144.50524781   178.02328335
 C     66  61  49     2.615820734796   128.79668816   183.87492062
 C     67  66  61     2.648735343289   113.07081066   181.06739334
 C     68  67  66     2.601592316309   113.53972079   359.21660854
 S     69  68  67     3.284169506434   111.00753495     0.68880148
 C     67  66  61     2.829677545337   125.33179034   358.47989673
 O     71  67  66     2.527758833343   117.32723454    80.31814807
 O     71  67  66     2.266108397614   122.32783550   259.08268946
 C     72  71  67     2.689613760718   121.30169415     0.93145662
 C     74  72  71     2.871201281123   107.53016154   171.84705860
 C     49  48  47     2.613829817915   115.31776668   359.67685685
 C     69  68  67     9.906185050365   112.84638632   181.37651610
 C     77  69  68     2.595866536681   111.48666368   357.23310791
 C     78  77  69     2.653909944819   111.72572318   178.22053989
 C     79  78  77     2.574385702646   114.51421845   359.73979951
 S     80  79  78     3.237549317061   111.01204241     0.28287534
 C     77  69  68     2.695436964608    15.55288981   181.56366114
 C     82  77  69     2.607741592800   129.22327845   180.62512478
 C     83  82  77     2.651984945709   113.16916960   180.00222075
 C     84  83  82     2.599641224888   113.46982654   359.66049281
 S     85  84  83     3.286187919081   110.99726164     0.20130913
 C     83  82  77     2.835207367523   124.68779129   355.63992282
 O     87  83  82     2.522537699023   117.24559723    92.53731713
 O     87  83  82     2.265617321339   121.99875623   270.98400398
 C     88  87  83     2.690300049002   120.93413802   358.32854825
 C     90  88  87     2.870619424854   107.54259691   183.87483162
 F      3   2   1     2.539354212483   122.29282551   179.98477410
 F     19  18  17     2.532344763828   122.76705889   179.43678138
 F     33  32  31     2.532357163662   122.75313105   179.38486729
 F     49  48  47     2.532344022637   122.76900956   179.37285238
 F     63  62  61     2.532130429856   122.77374393   179.45475510
 F     79  78  77     2.530487238232   122.54829048   180.04752462
 H      2   1   3     2.030239486167   124.23846117   179.54838222
 H      8   7   6     2.033232858790   123.69698608   178.83572233
 H     14  12  11     2.073237679672   109.63277424    64.26466863
 H     14  12  11     2.072355863458   109.90341944   304.90220862
 H     15  14  12     2.052311869270   109.96550805   300.52542368
 H     15  14  12     2.052389087581   109.83316218   180.20165777
 H     15  14  12     2.052393624683   109.82064424    59.94730298
 H     16   4   3     2.055343192890   109.53582059     0.25462509
 H     16   4   3     2.059018691982   110.58383046   240.08467368
 H     16   4   3     2.059075267094   110.73486648   120.56546507
 H     18  17   9     2.028763081317   125.18881337   359.90627801
 H     23  22  21     2.032755428351   123.56681111   179.13787813
 H     29  27  26     2.072288650942   109.86982109    51.14165050
 H     29  27  26     2.072882030227   109.53913748   291.85872409
 H     30  29  27     2.052578503837   110.02676110   299.94584376
 H     30  29  27     2.052282779139   109.78818930   179.62515041
 H     30  29  27     2.052478491487   109.88105961    59.41540716
 H     32  31  19     2.028714733191   125.25944234   182.67429776
 H     38  37  36     2.033039346992   123.62304193   179.07995130
 H     44  42  41     2.072363592472   109.76318266    54.97887122
 H     44  42  41     2.072817943321   109.65191723   295.67687645
 H     45  44  42     2.052519686109   110.01448981   300.01445408
 H     45  44  42     2.052289537725   109.79672691   179.69078809
 H     45  44  42     2.052554813962   109.90046800    59.48059469
 H     48  47  39     2.028586471420   125.26713515     1.77211493
 H     53  52  51     2.033032166081   123.62698980   179.08201753
 H     59  57  56     2.072387413638   109.75330749    55.74782642
 H     59  57  56     2.072842590597   109.66272215   296.44738910
 H     60  59  57     2.052487111179   109.99846013   300.24165265
 H     60  59  57     2.052279003150   109.78843024   179.93439974
 H     60  59  57     2.052572601750   109.92401414    59.71705342
 H     62  61  49     2.028825532883   125.19639715   182.76198095
 H     68  67  66     2.032795011737   123.56079659   179.11778588
 H     74  72  71     2.072282733907   109.86341787    51.23396100
 H     74  72  71     2.072856131394   109.53732318   291.94663748
 H     75  74  72     2.052653514752   110.03811310   299.84298137
 H     75  74  72     2.052337020678   109.78427945   179.52060161
 H     75  74  72     2.052549796070   109.87869161    59.31864326
 H     78  77  69     2.030160736557   124.26668859   357.82303975
 H     80  79  78     2.023349760282   128.15503126   179.93252736
 H     84  83  82     2.033141277835   123.70226106   178.83798582
 H     90  88  87     2.073212882588   109.64761046    63.47388905
 H     90  88  87     2.072378221309   109.87879236   304.09751853
 H     91  90  88     2.052319195788   109.96556134   300.52751874
 H     91  90  88     2.052350177901   109.82507427   180.21326468
 H     91  90  88     2.052373971578   109.83693830    59.96608053

---------------------
BASIS SET INFORMATION
---------------------
There are 5 groups of distinct atoms

 Group   1 Type C   : 7s4p1d contracted to 3s2p1d pattern {511/31/1}
 Group   2 Type S   : 10s7p1d contracted to 4s3p1d pattern {5311/511/1}
 Group   3 Type O   : 7s4p1d contracted to 3s2p1d pattern {511/31/1}
 Group   4 Type F   : 7s4p1d contracted to 3s2p1d pattern {511/31/1}
 Group   5 Type H   : 4s1p contracted to 2s1p pattern {31/1}

Atom   0C    basis set group =>   1
Atom   1C    basis set group =>   1
Atom   2C    basis set group =>   1
Atom   3C    basis set group =>   1
Atom   4S    basis set group =>   2
Atom   5C    basis set group =>   1
Atom   6C    basis set group =>   1
Atom   7C    basis set group =>   1
Atom   8C    basis set group =>   1
Atom   9S    basis set group =>   2
Atom  10C    basis set group =>   1
Atom  11O    basis set group =>   3
Atom  12O    basis set group =>   3
Atom  13C    basis set group =>   1
Atom  14C    basis set group =>   1
Atom  15C    basis set group =>   1
Atom  16C    basis set group =>   1
Atom  17C    basis set group =>   1
Atom  18C    basis set group =>   1
Atom  19S    basis set group =>   2
Atom  20C    basis set group =>   1
Atom  21C    basis set group =>   1
Atom  22C    basis set group =>   1
Atom  23C    basis set group =>   1
Atom  24S    basis set group =>   2
Atom  25C    basis set group =>   1
Atom  26O    basis set group =>   3
Atom  27O    basis set group =>   3
Atom  28C    basis set group =>   1
Atom  29C    basis set group =>   1
Atom  30C    basis set group =>   1
Atom  31C    basis set group =>   1
Atom  32C    basis set group =>   1
Atom  33C    basis set group =>   1
Atom  34S    basis set group =>   2
Atom  35C    basis set group =>   1
Atom  36C    basis set group =>   1
Atom  37C    basis set group =>   1
Atom  38C    basis set group =>   1
Atom  39S    basis set group =>   2
Atom  40C    basis set group =>   1
Atom  41O    basis set group =>   3
Atom  42O    basis set group =>   3
Atom  43C    basis set group =>   1
Atom  44C    basis set group =>   1
Atom  45C    basis set group =>   1
Atom  46C    basis set group =>   1
Atom  47C    basis set group =>   1
Atom  48C    basis set group =>   1
Atom  49S    basis set group =>   2
Atom  50C    basis set group =>   1
Atom  51C    basis set group =>   1
Atom  52C    basis set group =>   1
Atom  53C    basis set group =>   1
Atom  54S    basis set group =>   2
Atom  55C    basis set group =>   1
Atom  56O    basis set group =>   3
Atom  57O    basis set group =>   3
Atom  58C    basis set group =>   1
Atom  59C    basis set group =>   1
Atom  60C    basis set group =>   1
Atom  61C    basis set group =>   1
Atom  62C    basis set group =>   1
Atom  63C    basis set group =>   1
Atom  64S    basis set group =>   2
Atom  65C    basis set group =>   1
Atom  66C    basis set group =>   1
Atom  67C    basis set group =>   1
Atom  68C    basis set group =>   1
Atom  69S    basis set group =>   2
Atom  70C    basis set group =>   1
Atom  71O    basis set group =>   3
Atom  72O    basis set group =>   3
Atom  73C    basis set group =>   1
Atom  74C    basis set group =>   1
Atom  75C    basis set group =>   1
Atom  76C    basis set group =>   1
Atom  77C    basis set group =>   1
Atom  78C    basis set group =>   1
Atom  79C    basis set group =>   1
Atom  80S    basis set group =>   2
Atom  81C    basis set group =>   1
Atom  82C    basis set group =>   1
Atom  83C    basis set group =>   1
Atom  84C    basis set group =>   1
Atom  85S    basis set group =>   2
Atom  86C    basis set group =>   1
Atom  87O    basis set group =>   3
Atom  88O    basis set group =>   3
Atom  89C    basis set group =>   1
Atom  90C    basis set group =>   1
Atom  91F    basis set group =>   4
Atom  92F    basis set group =>   4
Atom  93F    basis set group =>   4
Atom  94F    basis set group =>   4
Atom  95F    basis set group =>   4
Atom  96F    basis set group =>   4
Atom  97H    basis set group =>   5
Atom  98H    basis set group =>   5
Atom  99H    basis set group =>   5
Atom 100H    basis set group =>   5
Atom 101H    basis set group =>   5
Atom 102H    basis set group =>   5
Atom 103H    basis set group =>   5
Atom 104H    basis set group =>   5
Atom 105H    basis set group =>   5
Atom 106H    basis set group =>   5
Atom 107H    basis set group =>   5
Atom 108H    basis set group =>   5
Atom 109H    basis set group =>   5
Atom 110H    basis set group =>   5
Atom 111H    basis set group =>   5
Atom 112H    basis set group =>   5
Atom 113H    basis set group =>   5
Atom 114H    basis set group =>   5
Atom 115H    basis set group =>   5
Atom 116H    basis set group =>   5
Atom 117H    basis set group =>   5
Atom 118H    basis set group =>   5
Atom 119H    basis set group =>   5
Atom 120H    basis set group =>   5
Atom 121H    basis set group =>   5
Atom 122H    basis set group =>   5
Atom 123H    basis set group =>   5
Atom 124H    basis set group =>   5
Atom 125H    basis set group =>   5
Atom 126H    basis set group =>   5
Atom 127H    basis set group =>   5
Atom 128H    basis set group =>   5
Atom 129H    basis set group =>   5
Atom 130H    basis set group =>   5
Atom 131H    basis set group =>   5
Atom 132H    basis set group =>   5
Atom 133H    basis set group =>   5
Atom 134H    basis set group =>   5
Atom 135H    basis set group =>   5
Atom 136H    basis set group =>   5
Atom 137H    basis set group =>   5
Atom 138H    basis set group =>   5
Atom 139H    basis set group =>   5
Atom 140H    basis set group =>   5
Atom 141H    basis set group =>   5
Atom 142H    basis set group =>   5
---------------------------------
AUXILIARY/J BASIS SET INFORMATION
---------------------------------
There are 5 groups of distinct atoms

 Group   1 Type C   : 12s5p4d2f1g contracted to 6s4p3d1f1g pattern {711111/2111/211/2/1}
 Group   2 Type S   : 14s5p5d2f1g contracted to 8s4p3d1f1g pattern {71111111/2111/311/2/1}
 Group   3 Type O   : 12s5p4d2f1g contracted to 6s4p3d1f1g pattern {711111/2111/211/2/1}
 Group   4 Type F   : 12s5p4d2f1g contracted to 6s4p3d1f1g pattern {711111/2111/211/2/1}
 Group   5 Type H   : 5s2p1d contracted to 3s1p1d pattern {311/2/1}

Atom   0C    basis set group =>   1
Atom   1C    basis set group =>   1
Atom   2C    basis set group =>   1
Atom   3C    basis set group =>   1
Atom   4S    basis set group =>   2
Atom   5C    basis set group =>   1
Atom   6C    basis set group =>   1
Atom   7C    basis set group =>   1
Atom   8C    basis set group =>   1
Atom   9S    basis set group =>   2
Atom  10C    basis set group =>   1
Atom  11O    basis set group =>   3
Atom  12O    basis set group =>   3
Atom  13C    basis set group =>   1
Atom  14C    basis set group =>   1
Atom  15C    basis set group =>   1
Atom  16C    basis set group =>   1
Atom  17C    basis set group =>   1
Atom  18C    basis set group =>   1
Atom  19S    basis set group =>   2
Atom  20C    basis set group =>   1
Atom  21C    basis set group =>   1
Atom  22C    basis set group =>   1
Atom  23C    basis set group =>   1
Atom  24S    basis set group =>   2
Atom  25C    basis set group =>   1
Atom  26O    basis set group =>   3
Atom  27O    basis set group =>   3
Atom  28C    basis set group =>   1
Atom  29C    basis set group =>   1
Atom  30C    basis set group =>   1
Atom  31C    basis set group =>   1
Atom  32C    basis set group =>   1
Atom  33C    basis set group =>   1
Atom  34S    basis set group =>   2
Atom  35C    basis set group =>   1
Atom  36C    basis set group =>   1
Atom  37C    basis set group =>   1
Atom  38C    basis set group =>   1
Atom  39S    basis set group =>   2
Atom  40C    basis set group =>   1
Atom  41O    basis set group =>   3
Atom  42O    basis set group =>   3
Atom  43C    basis set group =>   1
Atom  44C    basis set group =>   1
Atom  45C    basis set group =>   1
Atom  46C    basis set group =>   1
Atom  47C    basis set group =>   1
Atom  48C    basis set group =>   1
Atom  49S    basis set group =>   2
Atom  50C    basis set group =>   1
Atom  51C    basis set group =>   1
Atom  52C    basis set group =>   1
Atom  53C    basis set group =>   1
Atom  54S    basis set group =>   2
Atom  55C    basis set group =>   1
Atom  56O    basis set group =>   3
Atom  57O    basis set group =>   3
Atom  58C    basis set group =>   1
Atom  59C    basis set group =>   1
Atom  60C    basis set group =>   1
Atom  61C    basis set group =>   1
Atom  62C    basis set group =>   1
Atom  63C    basis set group =>   1
Atom  64S    basis set group =>   2
Atom  65C    basis set group =>   1
Atom  66C    basis set group =>   1
Atom  67C    basis set group =>   1
Atom  68C    basis set group =>   1
Atom  69S    basis set group =>   2
Atom  70C    basis set group =>   1
Atom  71O    basis set group =>   3
Atom  72O    basis set group =>   3
Atom  73C    basis set group =>   1
Atom  74C    basis set group =>   1
Atom  75C    basis set group =>   1
Atom  76C    basis set group =>   1
Atom  77C    basis set group =>   1
Atom  78C    basis set group =>   1
Atom  79C    basis set group =>   1
Atom  80S    basis set group =>   2
Atom  81C    basis set group =>   1
Atom  82C    basis set group =>   1
Atom  83C    basis set group =>   1
Atom  84C    basis set group =>   1
Atom  85S    basis set group =>   2
Atom  86C    basis set group =>   1
Atom  87O    basis set group =>   3
Atom  88O    basis set group =>   3
Atom  89C    basis set group =>   1
Atom  90C    basis set group =>   1
Atom  91F    basis set group =>   4
Atom  92F    basis set group =>   4
Atom  93F    basis set group =>   4
Atom  94F    basis set group =>   4
Atom  95F    basis set group =>   4
Atom  96F    basis set group =>   4
Atom  97H    basis set group =>   5
Atom  98H    basis set group =>   5
Atom  99H    basis set group =>   5
Atom 100H    basis set group =>   5
Atom 101H    basis set group =>   5
Atom 102H    basis set group =>   5
Atom 103H    basis set group =>   5
Atom 104H    basis set group =>   5
Atom 105H    basis set group =>   5
Atom 106H    basis set group =>   5
Atom 107H    basis set group =>   5
Atom 108H    basis set group =>   5
Atom 109H    basis set group =>   5
Atom 110H    basis set group =>   5
Atom 111H    basis set group =>   5
Atom 112H    basis set group =>   5
Atom 113H    basis set group =>   5
Atom 114H    basis set group =>   5
Atom 115H    basis set group =>   5
Atom 116H    basis set group =>   5
Atom 117H    basis set group =>   5
Atom 118H    basis set group =>   5
Atom 119H    basis set group =>   5
Atom 120H    basis set group =>   5
Atom 121H    basis set group =>   5
Atom 122H    basis set group =>   5
Atom 123H    basis set group =>   5
Atom 124H    basis set group =>   5
Atom 125H    basis set group =>   5
Atom 126H    basis set group =>   5
Atom 127H    basis set group =>   5
Atom 128H    basis set group =>   5
Atom 129H    basis set group =>   5
Atom 130H    basis set group =>   5
Atom 131H    basis set group =>   5
Atom 132H    basis set group =>   5
Atom 133H    basis set group =>   5
Atom 134H    basis set group =>   5
Atom 135H    basis set group =>   5
Atom 136H    basis set group =>   5
Atom 137H    basis set group =>   5
Atom 138H    basis set group =>   5
Atom 139H    basis set group =>   5
Atom 140H    basis set group =>   5
Atom 141H    basis set group =>   5
Atom 142H    basis set group =>   5
------------------------------------------------------------------------------
                           ORCA GTO INTEGRAL CALCULATION
                           -- RI-GTO INTEGRALS CHOSEN --
------------------------------------------------------------------------------

                         BASIS SET STATISTICS AND STARTUP INFO

Gaussian basis set:
 # of primitive gaussian shells          ... 1466
 # of primitive gaussian functions       ... 2794
 # of contracted shells                  ...  744
 # of contracted basis functions         ... 1636
 Highest angular momentum                ...    2
 Maximum contraction depth               ...    5
Auxiliary gaussian basis set:
 # of primitive gaussian shells          ... 2732
 # of primitive gaussian functions       ... 7610
 # of contracted shells                  ... 1709
 # of contracted aux-basis functions     ... 5283
 Highest angular momentum                ...    4
 Maximum contraction depth               ...    7
Ratio of auxiliary to basis functions    ...  3.23
Integral package used                  ... LIBINT
 One Electron integrals                  ... done
 Ordering auxiliary basis shells         ... done
 Integral threshhold             Thresh  ...  2.500e-11
 Primitive cut-off               TCut    ...  2.500e-12
 Pre-screening matrix                    ... done
 Shell pair data                         ... 
 Ordering of the shell pairs             ... done (   0.014 sec) 56668 of 277140 pairs
 Determination of significant pairs      ... done (   0.000 sec)
 Creation of shell pair data             ... done (   0.008 sec)
 Storage of shell pair data              ... done (   0.012 sec)
 Shell pair data done in (   0.034 sec)
 Computing two index integrals           ... done
 Cholesky decomposition of the V-matrix  ... done


Timings:
 Total evaluation time                   ...   4.437 sec (  0.074 min)
 One electron matrix time                ...   1.000 sec (  0.017 min) = 22.5%
 Schwartz matrix evaluation time         ...   1.312 sec (  0.022 min) = 29.6%
 Two index repulsion integral time       ...   0.796 sec (  0.013 min) = 17.9%
 Cholesky decomposition of V             ...   1.276 sec (  0.021 min) = 28.8%
 Three index repulsion integral time     ...   0.000 sec (  0.000 min) =  0.0%

-------------------------------------------------------------------------------
                                 ORCA SCF
-------------------------------------------------------------------------------

------------
SCF SETTINGS
------------
Hamiltonian:
 Density Functional     Method          .... DFT(GTOs)
 Exchange Functional    Exchange        .... WB88
 Correlation Functional Correlation     .... LYP
 LDA part of GGA corr.  LDAOpt          .... VWN-5
 Gradients option       PostSCFGGA      .... off
 Hybrid DFT is turned on
   Fraction HF Exchange ScalHFX         ....  0.190000
   Scaling of DF-GGA-X  ScalDFX         ....  0.350000
   Scaling of DF-GGA-C  ScalDFC         ....  0.810000
   Scaling of DF-LDA-C  ScalLDAC        ....  1.000000
   Perturbative correction              ....  0.000000
   Density functional embedding theory  .... OFF
 Long-range corrected/Screened/Range-Separated Hybrid DFT is turned on
   Amount of maximum screened exact exchange              ....  0.460000
   Range separation parameter mu (erf(mu*r12)/r12)        ....  0.330000
 RI-approximation to the Coulomb term is turned on
   Number of auxiliary basis functions  .... 5283
   RIJ-COSX (HFX calculated with COS-X)).... on


General Settings:
 Integral files         IntName         .... PDCBT-2F
 Hartree-Fock type      HFTyp           .... RHF
 Total Charge           Charge          ....    0
 Multiplicity           Mult            ....    1
 Number of Electrons    NEL             ....  790
 Basis Dimension        Dim             .... 1636
 Nuclear Repulsion      ENuc            ....  18419.3928537672 Eh

Convergence Acceleration:
 DIIS                   CNVDIIS         .... on
   Start iteration      DIISMaxIt       ....    12
   Startup error        DIISStart       ....  0.200000
   # of expansion vecs  DIISMaxEq       ....     5
   Bias factor          DIISBfac        ....   1.050
   Max. coefficient     DIISMaxC        ....  10.000
 Newton-Raphson         CNVNR           .... off
 SOSCF                  CNVSOSCF        .... on
   Start iteration      SOSCFMaxIt      ....   150
   Startup grad/error   SOSCFStart      ....  0.003300
 Level Shifting         CNVShift        .... on
   Level shift para.    LevelShift      ....    0.2500
   Turn off err/grad.   ShiftErr        ....    0.0010
 Zerner damping         CNVZerner       .... off
 Static damping         CNVDamp         .... on
   Fraction old density DampFac         ....    0.7000
   Max. Damping (<1)    DampMax         ....    0.9800
   Min. Damping (>=0)   DampMin         ....    0.0000
   Turn off err/grad.   DampErr         ....    0.1000
 Fernandez-Rico         CNVRico         .... off

SCF Procedure:
 Maximum # iterations   MaxIter         ....   125
 SCF integral mode      SCFMode         .... Direct
   Integral package                     .... LIBINT
 Reset frequency        DirectResetFreq ....    20
 Integral Threshold     Thresh          ....  2.500e-11 Eh
 Primitive CutOff       TCut            ....  2.500e-12 Eh

Convergence Tolerance:
 Convergence Check Mode ConvCheckMode   .... Total+1el-Energy
 Convergence forced     ConvForced      .... 1
 Energy Change          TolE            ....  1.000e-08 Eh
 1-El. energy change                    ....  1.000e-05 Eh
 Orbital Gradient       TolG            ....  1.000e-05
 Orbital Rotation angle TolX            ....  1.000e-05
 DIIS Error             TolErr          ....  5.000e-07


Diagonalization of the overlap matrix:
Smallest eigenvalue                        ... 2.816e-04
Time for diagonalization                   ...    1.079 sec
Threshold for overlap eigenvalues          ... 1.000e-08
Number of eigenvalues below threshold      ... 0
Time for construction of square roots      ...    0.407 sec
Total time needed                          ...    1.502 sec

-------------------
DFT GRID GENERATION
-------------------

General Integration Accuracy     IntAcc      ...  4.670
Radial Grid Type                 RadialGrid  ... Gauss-Chebyshev
Angular Grid (max. acc.)         AngularGrid ... Lebedev-302
Angular grid pruning method      GridPruning ... 3 (G Style)
Weight generation scheme         WeightScheme... Becke
Basis function cutoff            BFCut       ...    1.0000e-11
Integration weight cutoff        WCut        ...    1.0000e-14
Grids for H and He will be reduced by one unit

# of grid points (after initial pruning)     ... 766656 (   2.8 sec)
# of grid points (after weights+screening)   ... 660990 (  58.6 sec)
nearest neighbour list constructed           ...    0.0 sec
Grid point re-assignment to atoms done       ...    0.1 sec
Grid point division into batches done        ...    2.5 sec
Reduced shell lists constructed in   10.9 sec

Total number of grid points                  ...   660990
Total number of batches                      ...    10403
Average number of points per batch           ...       63
Average number of grid points per atom       ...     4622
Average number of shells per batch           ...    83.45 (11.22%)
Average number of basis functions per batch  ...   173.48 (10.60%)
Average number of large shells per batch     ...    51.65 (61.89%)
Average number of large basis fcns per batch ...   108.54 (62.57%)
Maximum spatial batch extension              ...  21.73, 20.75, 26.88 au
Average spatial batch extension              ...   2.15,  2.11,  2.31 au

Time for grid setup =   72.310 sec

------------------------------
INITIAL GUESS: MODEL POTENTIAL
------------------------------
Loading Hartree-Fock densities                     ... done
Calculating cut-offs                               ... done
Setting up the integral package                    ... done
Initializing the effective Hamiltonian             ... done
Starting the Coulomb interaction                   ... done (  14.8 sec)
Reading the grid                                   ... done
Mapping shells                                     ... done
Starting the XC term evaluation                    ... done (  10.8 sec)
  promolecular density results
     # of electrons  =    789.978295120
     EX              =   -813.597891295
     EC              =    -27.971697048
     EX+EC           =   -841.569588342
Transforming the Hamiltonian                       ... done (   0.4 sec)
Diagonalizing the Hamiltonian                      ... done (   0.9 sec)
Back transforming the eigenvectors                 ... done (   0.1 sec)
Now organizing SCF variables                       ... done
                      ------------------
                      INITIAL GUESS DONE ( 100.0 sec)
                      ------------------
--------------------
COSX GRID GENERATION
--------------------

General Integration Accuracy     IntAcc      ...  3.340
Radial Grid Type                 RadialGrid  ... Gauss-Chebyshev
Angular Grid (max. acc.)         AngularGrid ... Lebedev-50
Angular grid pruning method      GridPruning ... 3 (G Style)
Weight generation scheme         WeightScheme... Becke
Basis function cutoff            BFCut       ...    1.0000e-11
Integration weight cutoff        WCut        ...    1.0000e-14
Grids for H and He will be reduced by one unit

# of grid points (after initial pruning)     ...  72492 (   0.1 sec)
# of grid points (after weights+screening)   ...  65253 (   5.5 sec)
nearest neighbour list constructed           ...    0.0 sec
Grid point re-assignment to atoms done       ...    0.0 sec
Grid point division into batches done        ...    0.0 sec
Reduced shell lists constructed in    1.1 sec

Total number of grid points                  ...    65253
Total number of batches                      ...     1105
Average number of points per batch           ...       59
Average number of grid points per atom       ...      456
Average number of shells per batch           ...   102.42 (13.77%)
Average number of basis functions per batch  ...   214.99 (13.14%)
Average number of large shells per batch     ...    63.55 (62.05%)
Average number of large basis fcns per batch ...   135.54 (63.04%)
Maximum spatial batch extension              ...  19.95, 20.68, 25.24 au
Average spatial batch extension              ...   4.12,  3.97,  4.79 au

Overlap Fitting                  UseSFitting ... on
Constructing numerical overlap ... done (      0.7 sec)
Inverting numerical overlap    ... done (      0.1 sec)
Obtaining analytic overlap     ... done (      0.0 sec)
Final contraction and storage  ... done (      0.2 sec)


General Integration Accuracy     IntAcc      ...  3.670
Radial Grid Type                 RadialGrid  ... Gauss-Chebyshev
Angular Grid (max. acc.)         AngularGrid ... Lebedev-50
Angular grid pruning method      GridPruning ... 3 (G Style)
Weight generation scheme         WeightScheme... Becke
Basis function cutoff            BFCut       ...    1.0000e-11
Integration weight cutoff        WCut        ...    1.0000e-14
Grids for H and He will be reduced by one unit

# of grid points (after initial pruning)     ...  90794 (   0.2 sec)
# of grid points (after weights+screening)   ...  81405 (   6.9 sec)
nearest neighbour list constructed           ...    0.0 sec
Grid point re-assignment to atoms done       ...    0.0 sec
Grid point division into batches done        ...    0.0 sec
Reduced shell lists constructed in    1.4 sec

Total number of grid points                  ...    81405
Total number of batches                      ...     1336
Average number of points per batch           ...       60
Average number of grid points per atom       ...      569
Average number of shells per batch           ...   100.24 (13.47%)
Average number of basis functions per batch  ...   209.97 (12.83%)
Average number of large shells per batch     ...    62.00 (61.86%)
Average number of large basis fcns per batch ...   131.97 (62.85%)
Maximum spatial batch extension              ...  22.24, 23.34, 27.29 au
Average spatial batch extension              ...   3.95,  3.82,  4.59 au

Overlap Fitting                  UseSFitting ... on
Constructing numerical overlap ... done (      0.8 sec)
Inverting numerical overlap    ... done (      0.1 sec)
Obtaining analytic overlap     ... done (      0.0 sec)
Final contraction and storage  ... done (      0.2 sec)


General Integration Accuracy     IntAcc      ...  4.010
Radial Grid Type                 RadialGrid  ... Gauss-Chebyshev
Angular Grid (max. acc.)         AngularGrid ... Lebedev-110
Angular grid pruning method      GridPruning ... 3 (G Style)
Weight generation scheme         WeightScheme... Becke
Basis function cutoff            BFCut       ...    1.0000e-11
Integration weight cutoff        WCut        ...    1.0000e-14
Grids for H and He will be reduced by one unit

# of grid points (after initial pruning)     ... 174408 (   0.4 sec)
# of grid points (after weights+screening)   ... 154730 (  13.3 sec)
nearest neighbour list constructed           ...    0.0 sec
Grid point re-assignment to atoms done       ...    0.0 sec
Grid point division into batches done        ...    0.1 sec
Reduced shell lists constructed in    2.5 sec

Total number of grid points                  ...   154730
Total number of batches                      ...     2495
Average number of points per batch           ...       62
Average number of grid points per atom       ...     1082
Average number of shells per batch           ...    94.65 (12.72%)
Average number of basis functions per batch  ...   198.06 (12.11%)
Average number of large shells per batch     ...    58.86 (62.19%)
Average number of large basis fcns per batch ...   124.83 (63.03%)
Maximum spatial batch extension              ...  21.17, 21.17, 23.35 au
Average spatial batch extension              ...   3.36,  3.23,  3.81 au

Overlap Fitting                  UseSFitting ... on
Constructing numerical overlap ... done (      1.3 sec)
Inverting numerical overlap    ... done (      0.1 sec)
Obtaining analytic overlap     ... done (      0.0 sec)
Final contraction and storage  ... done (      0.2 sec)

Time for X-Grid setup             =   35.098 sec
--------------
SCF ITERATIONS
--------------
ITER       Energy         Delta-E        Max-DP      RMS-DP      [F,P]     Damp
               ***  Starting incremental Fock matrix formation  ***
  0  -8852.4863725137   0.000000000000 0.08483158  0.00076184  0.2491130 0.7000
  1  -8853.3857731576  -0.899400643877 0.05178091  0.00052545  0.1090189 0.7000
                               ***Turning on DIIS***
  2  -8853.7744963465  -0.388723188858 0.09118219  0.00091671  0.0420735 0.0000
  3  -8854.3631487858  -0.588652439339 0.03932741  0.00040593  0.0565849 0.0000
  4  -8854.5006104523  -0.137461666462 0.01050297  0.00010988  0.0101850 0.0000
  5  -8854.5060686434  -0.005458191165 0.00663292  0.00004383  0.0112845 0.0000
                      *** Initiating the SOSCF procedure ***
                           *** Shutting down DIIS ***
                      *** Re-Reading the Fockian *** 
                      *** Removing any level shift *** 
ITER      Energy       Delta-E        Grad      Rot      Max-DP    RMS-DP
  6  -8854.50768094  -0.0016122945  0.001438  0.001438  0.001782  0.000022
               *** Restarting incremental Fock matrix formation ***
  7  -8854.50791231  -0.0002313769  0.000992  0.005191  0.001612  0.000021
  8  -8854.50810033  -0.0001880109  0.000471  0.005273  0.001844  0.000022
  9  -8854.50811679  -0.0000164666  0.000490  0.001713  0.000934  0.000009
 10  -8854.50815362  -0.0000368306  0.000070  0.000498  0.000300  0.000003
 11  -8854.50815347   0.0000001502  0.000070  0.000253  0.000151  0.000002
 12  -8854.50815539  -0.0000019145  0.000013  0.000050  0.000068  0.000001
 13  -8854.50815529   0.0000000982  0.000015  0.000029  0.000035  0.000000
 14  -8854.50815536  -0.0000000747  0.000003  0.000006  0.000012  0.000000
 15  -8854.50815541  -0.0000000505  0.000003  0.000005  0.000006  0.000000
                  ***Gradient check signals convergence***
              ***Rediagonalizing the Fockian in SOSCF/NRSCF***

               *****************************************************
               *                     SUCCESS                       *
               *           SCF CONVERGED AFTER  16 CYCLES          *
               *****************************************************

Setting up the final grid:

General Integration Accuracy     IntAcc      ...  5.010
Radial Grid Type                 RadialGrid  ... Gauss-Chebyshev
Angular Grid (max. acc.)         AngularGrid ... Lebedev-434
Angular grid pruning method      GridPruning ... 3 (G Style)
Weight generation scheme         WeightScheme... Becke
Basis function cutoff            BFCut       ...    1.0000e-11
Integration weight cutoff        WCut        ...    1.0000e-14
Grids for H and He will be reduced by one unit

# of grid points (after initial pruning)     ... 1360490 (   3.3 sec)
# of grid points (after weights+screening)   ... 1169412 ( 107.0 sec)
nearest neighbour list constructed           ...    0.0 sec
Grid point re-assignment to atoms done       ...    0.2 sec
[...]
B( 73-C , 74-C ) :   1.1016 B( 73-C ,130-H ) :   0.9506 B( 73-C ,131-H ) :   0.9530 
B( 74-C ,132-H ) :   0.9700 B( 74-C ,133-H ) :   0.9605 B( 74-C ,134-H ) :   0.9672 
B( 76-C , 77-C ) :   1.4699 B( 76-C , 79-C ) :   0.1009 B( 76-C , 80-S ) :   1.1657 
B( 76-C , 81-C ) :   1.1360 B( 77-C , 78-C ) :   1.2348 B( 77-C ,135-H ) :   0.9968 
B( 78-C , 79-C ) :   1.5441 B( 78-C , 96-F ) :   1.1213 B( 79-C , 80-S ) :   1.1274 
B( 79-C ,136-H ) :   0.9703 B( 81-C , 82-C ) :   1.5603 B( 81-C , 85-S ) :   1.1262 
B( 82-C , 83-C ) :   1.2698 B( 82-C , 86-C ) :   0.8638 B( 83-C , 84-C ) :   1.5075 
B( 83-C ,137-H ) :   0.9959 B( 84-C , 85-S ) :   1.1219 B( 86-C , 87-O ) :   1.1693 
B( 86-C , 88-O ) :   2.2115 B( 87-O , 89-C ) :   0.9233 B( 89-C , 90-C ) :   1.0969 
B( 89-C ,138-H ) :   0.9549 B( 89-C ,139-H ) :   0.9494 B( 90-C ,140-H ) :   0.9686 
B( 90-C ,141-H ) :   0.9603 B( 90-C ,142-H ) :   0.9685 

-------
TIMINGS
-------

Total SCF time: 0 days 1 hours 39 min 46 sec 

Total time                  ....    5986.804 sec
Sum of individual times     ....    5967.006 sec  ( 99.7%)

Fock matrix formation       ....    5666.521 sec  ( 94.7%)
  Split-RI-J                ....     576.031 sec  ( 10.2% of F)
  Chain of spheres X        ....    4848.398 sec  ( 85.6% of F)
  COS-X 1 center corr.      ....       0.000 sec  (  0.0% of F)
  XC integration            ....     238.965 sec  (  4.2% of F)
    Basis function eval.    ....      70.241 sec  ( 29.4% of XC)
    Density eval.           ....      52.395 sec  ( 21.9% of XC)
    XC-Functional eval.     ....      65.164 sec  ( 27.3% of XC)
    XC-Potential eval.      ....      43.840 sec  ( 18.3% of XC)
Diagonalization             ....      10.534 sec  (  0.2%)
Density matrix formation    ....       7.277 sec  (  0.1%)
Population analysis         ....       0.787 sec  (  0.0%)
Initial guess               ....      27.674 sec  (  0.5%)
Orbital Transformation      ....       0.000 sec  (  0.0%)
Orbital Orthonormalization  ....       0.000 sec  (  0.0%)
DIIS solution               ....       3.598 sec  (  0.1%)
SOSCF solution              ....       9.601 sec  (  0.2%)
Grid generation             ....     241.014 sec  (  4.0%)

---------------------------------------------------------------------------------

                       ORCA sTD-DFT CALCULATION

                       please cite in your paper           
 orginal sTDA method:  S. Grimme, J. Chem. Phys. 138, 244104 (2013)           
 range-separated sTDA: T. Risthaus, A. Hansen, S. Grimme, Phys. Chem. Chem. Phys.
                       16, 14408-14419 (2014) 
 sTD-DFT approach:     C. Bannwarth, S. Grimme, Comp. Theor. Chem. 
                       1040-1041, 45-53 (2014)

---------------------------------------------------------------------------------


spectral range up to (eV)      ...    5.000000
occ. MO cut-off (eV)           ...   -15.273856
virt. MO cut-off (eV)          ...    6.622670
perturbation threshold         ...   1.000e-04 
MOs in sTD-DFT                 ...         243 
occ. MOs in sTD-DFT            ...         130 
virt. in sTD-DFT               ...         113 
calculate triplets           ...   no  

Calculating the dipole lengths integrals ... 
Transforming integrals ... 
Calculating the dipole velocity integrals ... 
Transforming integrals ... 
Calculating magnetic dipole integrals ... 
Transforming integrals ... 

SCF atom population (using active MOs):

   2.074   2.061   1.638   2.245   3.664   2.096   1.907   2.054   2.105   3.687
   1.390   3.005   4.571   1.575   2.794   2.837   1.998   1.979   1.169   3.648
   2.069   1.897   2.130   2.091   3.674   1.360   3.000   4.559   1.593   2.799
   1.996   1.959   1.162   1.921   3.639   2.065   1.895   2.115   2.082   3.666
   1.362   2.993   4.559   1.568   2.789   1.925   1.974   1.931   1.140   3.593
   2.058   1.883   2.099   2.076   3.656   1.362   2.987   4.560   1.538   2.775
   1.973   1.944   1.144   1.872   3.599   2.056   1.884   2.105   2.083   3.658
   1.360   2.989   4.557   1.555   2.782   1.871   2.105   2.139   1.662   2.314
   3.696   2.089   1.897   2.057   2.088   3.672   1.387   2.992   4.567   1.561
   2.792   3.709   2.262   2.222   2.022   2.060   3.752   0.464   0.417   0.434
   0.441   0.625   0.660   0.624   0.631   0.653   0.653   0.473   0.471   0.437
   0.444   0.625   0.660   0.626   0.460   0.469   0.433   0.435   0.622   0.660
   0.624   0.439   0.461   0.424   0.426   0.618   0.660   0.621   0.452   0.459
   0.428   0.431   0.620   0.660   0.623   0.496   0.465   0.424   0.430   0.437
   0.624   0.660   0.624

Number of electrons in sTDA:  260.000

ax(DF)   :  0.3800
s^k      :  2.0000
beta  (J):  1.8600
alpha (K):  0.9000

hardness table read
setting up gammas ...
computing q(ij,n)
memory needed for q data:            24.2 MB 
memory available for q data:       2463.8 MB 

CSF included by energy:           20 
CSF considered in PT2:         14670 

ordered frontier orbitals
           eV         # centers 
 119      -8.990      14.8
 120      -8.957      13.4
 121      -8.955      21.4
 122      -8.832       9.6
 123      -8.760       7.0
 124      -8.514      39.8
 125      -8.044      40.6
 126      -7.513      39.2
 127      -7.145      39.6
 128      -6.702      42.2
 129      -6.417      41.1

 130      -2.234      42.2
 131      -1.918      43.5
 132      -1.561      45.9
 133      -1.062      47.1
 134      -0.665      45.8
 135      -0.364      50.2
 136       0.280      44.6
 137       0.450      17.6
 138       0.504      10.8
 139       0.517      16.0
 140       0.533      10.4

           eV        nm       excitation i->a                     eV 
   0      2.73     454.3   129 -> 130      gap,J,K:    4.183     1.716     0.131
   1      3.26     380.0   128 -> 130      gap,J,K:    4.468     1.450     0.122
   2      3.30     376.1   129 -> 131      gap,J,K:    4.499     1.468     0.133
   3      3.61     343.5   128 -> 131      gap,J,K:    4.784     1.490     0.158
   4      3.67     337.7   129 -> 132      gap,J,K:    4.856     1.484     0.150
   5      3.78     328.1   127 -> 130      gap,J,K:    4.911     1.394     0.131
   6      4.01     309.2   128 -> 132      gap,J,K:    5.141     1.421     0.145
   7      4.12     301.0   127 -> 131      gap,J,K:    5.227     1.378     0.135
   8      4.13     300.2   126 -> 130      gap,J,K:    5.279     1.411     0.131
   9      4.18     296.9   129 -> 133      gap,J,K:    5.355     1.497     0.159
  10      4.48     276.9   126 -> 131      gap,J,K:    5.595     1.387     0.135
  11      4.49     276.0   127 -> 132      gap,J,K:    5.584     1.406     0.157
  12      4.52     274.3   128 -> 133      gap,J,K:    5.640     1.405     0.143
  13      4.61     268.7   125 -> 130      gap,J,K:    5.810     1.501     0.152
  14      4.63     267.8   129 -> 134      gap,J,K:    5.753     1.392     0.134
  15      4.83     256.6   126 -> 132      gap,J,K:    5.952     1.377     0.128
  16      4.83     256.5   129 -> 135      gap,J,K:    6.053     1.522     0.151
  17      4.93     251.5   128 -> 134      gap,J,K:    6.037     1.417     0.155
  18      4.99     248.5   125 -> 131      gap,J,K:    6.126     1.396     0.130
  19      4.99     248.4   127 -> 133      gap,J,K:    6.083     1.386     0.147

average / max PT2 energy lowering (eV):       0.053       0.074

CSF included by PT:                    87 
total number of CSF included:         107 
 
sTD-DFT procedure...
setting up A+B and A-B matrices...  done
estimated time (min):    0.000
calculating (A-B)^0.5 ... done
calculating (A+B)*(A-B)^0.5 ... done
calculating (A-B)^0.5 *(A+B)*(A-B)^0.5 ... done
diagonalizing ...using LAPACKE_ssyevr ...done

   23 roots found, lowest/highest eigenvalue :     2.389     4.999

excitation energies, transition moments and amplitudes

molecular weight: 1541.801
state   eV        nm        fL         fV        Rl        RV
   0   2.389     518.9   4.043251   4.321606  -9.431662  -0.050045     0.81 ( 129-> 130)    0.13 ( 128-> 131)    0.02 ( 127-> 132)
   1   2.746     451.5   0.003866   0.003803  -64.336839  -65.478137     0.45 ( 128-> 130)    0.44 ( 129-> 131)    0.04 ( 128-> 132)
   2   3.138     395.1   0.538370   0.536919  80.694672  76.117555     0.40 ( 129-> 132)    0.35 ( 128-> 131)    0.18 ( 127-> 130)
   3   3.249     381.6   0.002390   0.002419  -3.163390  -3.376531     0.37 ( 128-> 130)    0.32 ( 129-> 131)    0.15 ( 128-> 132)
   4   3.496     354.7   0.015539   0.015106   1.630643   1.729056     0.42 ( 127-> 130)    0.28 ( 129-> 132)    0.10 ( 126-> 131)
   5   3.557     348.5   0.002229   0.001985  -101.048302  -95.087516     0.33 ( 127-> 131)    0.23 ( 126-> 130)    0.20 ( 128-> 132)
   6   3.759     329.8   0.003324   0.003189   1.826053   1.655922     0.44 ( 129-> 133)    0.24 ( 126-> 130)    0.09 ( 128-> 132)
   7   3.888     318.9   0.112020   0.113520  -8.402007  -4.849746     0.39 ( 128-> 131)    0.17 ( 129-> 130)    0.15 ( 127-> 130)
   8   3.974     312.0   0.665330   0.596787  161.891016  150.805874     0.32 ( 127-> 132)    0.24 ( 126-> 131)    0.17 ( 125-> 130)
   9   4.080     303.9   0.047882   0.040652  16.983953  15.099649     0.39 ( 129-> 134)    0.19 ( 128-> 133)    0.18 ( 125-> 130)
  10   4.208     294.6   0.001729   0.001723  -1.329526  -1.149512     0.36 ( 128-> 132)    0.19 ( 129-> 133)    0.17 ( 129-> 131)
  11   4.233     292.9   0.003294   0.002749  13.524787  12.061546     0.22 ( 126-> 130)    0.16 ( 127-> 131)    0.14 ( 129-> 135)
  12   4.283     289.5   0.004122   0.003946   2.644472   2.716981     0.30 ( 129-> 135)    0.20 ( 128-> 134)    0.11 ( 127-> 131)
  13   4.436     279.5   0.007578   0.006402   2.248725   3.596447     0.35 ( 125-> 131)    0.21 ( 126-> 132)    0.15 ( 124-> 130)
  14   4.568     271.4   0.051843   0.047792  -1.079847   2.578527     0.40 ( 125-> 130)    0.27 ( 127-> 132)    0.09 ( 129-> 134)
  15   4.615     268.7   0.013704   0.011128  -6.896389  -6.972302     0.34 ( 128-> 133)    0.17 ( 129-> 134)    0.15 ( 128-> 135)
  16   4.728     262.2   0.093171   0.080292  -10.983031  -8.066671     0.31 ( 126-> 131)    0.21 ( 127-> 132)    0.10 ( 127-> 130)
  17   4.825     257.0   0.018978   0.011646  -5.507428  -5.378696     0.25 ( 124-> 131)    0.13 ( 125-> 132)    0.13 ( 129-> 136)
  18   4.840     256.2   0.316419   0.268130  -135.399293  -139.006609     0.30 ( 127-> 134)    0.16 ( 126-> 133)    0.12 ( 128-> 135)
  19   4.868     254.7   0.006865   0.006916   4.910196   0.065745     0.30 ( 119-> 130)    0.12 ( 124-> 130)    0.10 ( 129-> 135)
  20   4.942     250.9   0.000703   0.000614  -0.226720   0.120282     0.24 ( 119-> 130)    0.14 ( 127-> 133)    0.08 ( 125-> 131)
  21   4.978     249.1   0.001977   0.001419   0.590325   0.118803     0.12 ( 118-> 130)    0.12 ( 120-> 130)    0.10 ( 129-> 135)
  22   4.999     248.0   0.019731   0.015097  -10.336666  -8.407759     0.18 ( 121-> 130)    0.12 ( 120-> 131)    0.08 ( 117-> 130)

-----------------------------------------------------------------------------
         ABSORPTION SPECTRUM VIA TRANSITION ELECTRIC DIPOLE MOMENTS
-----------------------------------------------------------------------------
State   Energy  Wavelength   fosc         T2         TX        TY        TZ  
        (cm-1)    (nm)                  (au**2)     (au)      (au)      (au) 
-----------------------------------------------------------------------------
   0   19269.9    518.9   4.043250557  69.07581  -4.29510  -7.11474   0.09186
   1   22146.0    451.5   0.003866370   0.05748   0.00227   0.03068  -0.23776
   2   25311.2    395.1   0.538370235   7.00236   1.77052   1.96640  -0.02958
   3   26203.8    381.6   0.002389856   0.03003   0.08314   0.15156   0.01192
   4   28196.8    354.7   0.015538865   0.18142   0.40264   0.13894   0.00124
   5   28692.8    348.5   0.002229367   0.02558  -0.06103  -0.12307   0.08190
   6   30316.9    329.8   0.003323820   0.03609  -0.11343  -0.15223   0.00731
   7   31356.2    318.9   0.112019647   1.17611   0.19897   1.06608   0.00065
   8   32050.9    312.0   0.665330017   6.83396   2.59399   0.31825  -0.06224
   9   32905.1    303.9   0.047882354   0.47906  -0.68247   0.11487   0.01011
  10   33943.4    294.6   0.001728553   0.01676  -0.05484  -0.11692   0.00928
  11   34143.9    292.9   0.003293722   0.03176  -0.15993  -0.01751   0.07665
  12   34545.3    289.5   0.004122172   0.03928  -0.09486  -0.17076  -0.03356
  13   35778.6    279.5   0.007577815   0.06973   0.24068  -0.06876  -0.08410
  14   36842.0    271.4   0.051843491   0.46326   0.09282  -0.67427   0.00197
  15   37219.0    268.7   0.013704213   0.12122   0.14026  -0.31865  -0.00278
  16   38136.1    262.2   0.093171051   0.80430   0.28845   0.84917  -0.00279
  17   38917.1    257.0   0.018978386   0.16054   0.18644   0.35460  -0.00656
  18   39035.2    256.2   0.316418744   2.66859   0.41948  -1.57842  -0.03489
  19   39265.3    254.7   0.006864620   0.05755   0.13838  -0.18551   0.06316
  20   39860.6    250.9   0.000702974   0.00581  -0.00976   0.07373   0.01658
  21   40151.5    249.1   0.001977023   0.01621   0.10368   0.07208  -0.01624
  22   40321.4    248.0   0.019731256   0.16110  -0.02096  -0.40017  -0.02286

-----------------------------------------------------------------------------
         ABSORPTION SPECTRUM VIA TRANSITION VELOCITY DIPOLE MOMENTS
-----------------------------------------------------------------------------
State   Energy  Wavelength   fosc         P2         PX        PY        PZ  
        (cm-1)    (nm)                  (au**2)     (au)      (au)      (au) 
-----------------------------------------------------------------------------
   0   19269.9    518.9   4.321606011   0.56916  -0.39154  -0.64481   0.00839
   1   22146.0    451.5   0.003802676   0.00058  -0.00101   0.00256  -0.02383
   2   25311.2    395.1   0.536919400   0.09288   0.20206   0.22813  -0.00341
   3   26203.8    381.6   0.002419482   0.00043   0.00865   0.01887   0.00157
   4   28196.8    354.7   0.015105826   0.00291   0.05119   0.01706   0.00009
   5   28692.8    348.5   0.001985183   0.00039  -0.00717  -0.01540   0.01003
   6   30316.9    329.8   0.003188793   0.00066  -0.01468  -0.02108   0.00097
   7   31356.2    318.9   0.113519785   0.02433   0.03483   0.15203  -0.00014
   8   32050.9    312.0   0.596786520   0.13073   0.35825   0.04813  -0.00835
   9   32905.1    303.9   0.040652063   0.00914  -0.09472   0.01300   0.00128
  10   33943.4    294.6   0.001723322   0.00040  -0.00839  -0.01811   0.00122
  11   34143.9    292.9   0.002748816   0.00064  -0.02231  -0.00302   0.01159
  12   34545.3    289.5   0.003945518   0.00093  -0.01477  -0.02609  -0.00569
  13   35778.6    279.5   0.006401670   0.00157   0.03565  -0.01224  -0.01202
  14   36842.0    271.4   0.047791573   0.01203   0.00536  -0.10957   0.00058
  15   37219.0    268.7   0.011127602   0.00283   0.02454  -0.04720  -0.00051
  16   38136.1    262.2   0.080291819   0.02093   0.05011   0.13571  -0.00061
  17   38917.1    257.0   0.011646408   0.00310   0.04008   0.03858  -0.00150
  18   39035.2    256.2   0.268130010   0.07153   0.08052  -0.25498  -0.00609
  19   39265.3    254.7   0.006915936   0.00186   0.02648  -0.03265   0.00943
  20   39860.6    250.9   0.000613837   0.00017  -0.00313   0.01251   0.00098
  21   40151.5    249.1   0.001419190   0.00039   0.01286   0.01486  -0.00177
  22   40321.4    248.0   0.015097285   0.00416  -0.00502  -0.06421  -0.00352

-------------------------------------------------------------------
                             CD SPECTRUM
-------------------------------------------------------------------
State   Energy Wavelength       R         MX        MY        MZ   
        (cm-1)   (nm)       (1e40*cgs)   (au)      (au)      (au)  
-------------------------------------------------------------------
   0   19269.9    518.9     -9.43166   1.54977  -0.95857  -1.34476
   1   22146.0    451.5    -64.33684  -0.73970   0.48128  -1.09293
   2   25311.2    395.1     80.69467  -0.74833   0.48117  -1.23179
   3   26203.8    381.6     -3.16339   0.03402  -0.01388   1.06537
   4   28196.8    354.7      1.63064  -0.05443   0.10822  -0.03041
   5   28692.8    348.5    -101.04830   0.46840  -0.21802   5.25552
   6   30316.9    329.8      1.82605   0.03987  -0.05120  -1.50689
   7   31356.2    318.9     -8.40201  -0.25398   0.07953   2.13964
   8   32050.9    312.0    161.89102  -0.62963   0.94169 -10.39157
   9   32905.1    303.9     16.98395   0.10509  -0.25755   2.89374
  10   33943.4    294.6     -1.32953   0.08263  -0.04085   0.58131
  11   34143.9    292.9     13.52479   0.32953  -0.27103  -0.12290
  12   34545.3    289.5      2.64447  -0.09593   0.07485   0.22460
  13   35778.6    279.5      2.24872  -0.32505   0.29764  -1.06015
  14   36842.0    271.4     -1.07985   0.19446   0.01232  -2.61786
  15   37219.0    268.7     -6.89639   0.13174  -0.01701  -1.92655
  16   38136.1    262.2    -10.98303  -0.32507   0.16909   1.15802
  17   38917.1    257.0     -5.50743   0.06834   0.02639  -0.19296
  18   39035.2    256.2    -135.39929   0.66427  -0.01248  -7.91229
  19   39265.3    254.7      4.91020   0.37996  -0.17272  -1.66948
  20   39860.6    250.9     -0.22672  -0.00581  -0.02019   0.14435
  21   40151.5    249.1      0.59033  -0.06053   0.03928  -0.05791
  22   40321.4    248.0    -10.33667   0.17118  -0.03972  -1.37974

sTD-DFT done

Total run time:       10.733 sec

           *** ORCA-CIS/TD-DFT FINISHED WITHOUT ERROR ***

-------------------------   --------------------
FINAL SINGLE POINT ENERGY     -8854.498196663628
-------------------------   --------------------


                            ***************************************
                            *     ORCA property calculations      *
                            ***************************************

                                    ---------------------
                                    Active property flags
                                    ---------------------
   (+) Dipole Moment


------------------------------------------------------------------------------
                       ORCA ELECTRIC PROPERTIES CALCULATION
------------------------------------------------------------------------------

Dipole Moment Calculation                       ... on
Quadrupole Moment Calculation                   ... off
Polarizability Calculation                      ... off
GBWName                                         ... PDCBT-2F.gbw
Electron density file                           ... PDCBT-2F.scfp
The origin for moment calculation is the CENTER OF MASS  = (-20.511345, -30.400235 -0.720997)

-------------
DIPOLE MOMENT
-------------
                                X             Y             Z
Electronic contribution:    -24.37980     -28.75707     -69.27717
Nuclear contribution   :     24.92347      29.07161      76.60317
                        -----------------------------------------
Total Dipole Moment    :      0.54367       0.31454       7.32599
                        -----------------------------------------
Magnitude (a.u.)       :      7.35287
Magnitude (Debye)      :     18.68951



--------------------
Rotational spectrum 
--------------------
 
Rotational constants in cm-1:     0.001614     0.000064     0.000062 
Rotational constants in MHz :    48.396314     1.914299     1.863938 

 Dipole components along the rotational axes: 
x,y,z [a.u.] :     0.470927     0.086255     7.337265 
x,y,z [Debye]:     1.197002     0.219242    18.649846 

 

Timings for individual modules:

Sum of individual times         ...     6005.524 sec (= 100.092 min)
GTO integral calculation        ...        6.162 sec (=   0.103 min)   0.1 %
SCF iterations                  ...     5988.533 sec (=  99.809 min)  99.7 %
CIS module                      ...       10.829 sec (=   0.180 min)   0.2 %
                             ****ORCA TERMINATED NORMALLY****
TOTAL RUN TIME: 0 days 1 hours 40 minutes 6 seconds 415 msec
