
                                 *****************
                                 * O   R   C   A *
                                 *****************

           --- An Ab Initio, DFT and Semiempirical electronic structure package ---

                  #######################################################
                  #                        -***-                        #
                  #          Department of theory and spectroscopy      #
                  #               Directorship: Frank Neese             #
                  #        Max Planck Institute fuer Kohlenforschung    #
                  #                Kaiser Wilhelm Platz 1               #
                  #                 D-45470 Muelheim/Ruhr               #
                  #                      Germany                        #
                  #                                                     #
                  #                  All rights reserved                #
                  #                        -***-                        #
                  #######################################################


                         Program Version 4.2.0 -  RELEASE  -


 With contributions from (in alphabetic order):
   Daniel Aravena         : Magnetic Suceptibility
   Michael Atanasov       : Ab Initio Ligand Field Theory (pilot matlab implementation)
   Alexander A. Auer      : GIAO ZORA, VPT2
   Ute Becker             : Parallelization
   Giovanni Bistoni       : ED, misc. LED, open-shell LED, HFLED
   Martin Brehm           : Molecular dynamics
   Dmytro Bykov           : SCF Hessian
   Vijay G. Chilkuri      : MRCI spin determinant printing, contributions to CSF-ICE
   Dipayan Datta          : RHF DLPNO-CCSD density
   Achintya Kumar Dutta   : EOM-CC, STEOM-CC
   Dmitry Ganyushin       : Spin-Orbit,Spin-Spin,Magnetic field MRCI
   Miquel Garcia          : C-PCM Hessian, Gaussian charge scheme
   Yang Guo               : DLPNO-NEVPT2, CIM, IAO-localization
   Andreas Hansen         : Spin unrestricted coupled pair/coupled cluster methods
   Benjamin Helmich-Paris : CASSCF linear response (MC-RPA)
   Lee Huntington         : MR-EOM, pCC
   Robert Izsak           : Overlap fitted RIJCOSX, COSX-SCS-MP3, EOM
   Christian Kollmar      : KDIIS, OOCD, Brueckner-CCSD(T), CCSD density
   Simone Kossmann        : Meta GGA functionals, TD-DFT gradient, OOMP2, MP2 Hessian
   Martin Krupicka        : AUTO-CI
   Lucas Lang             : DCDCAS
   Dagmar Lenk            : GEPOL surface, SMD
   Dimitrios Liakos       : Extrapolation schemes; Compound Job, initial MDCI parallelization
   Dimitrios Manganas     : Further ROCIS development; embedding schemes
   Dimitrios Pantazis     : SARC Basis sets
   Taras Petrenko         : DFT Hessian,TD-DFT gradient, ASA, ECA, R-Raman, ABS, FL, XAS/XES, NRVS
   Peter Pinski           : DLPNO-MP2, DLPNO-MP2 Gradient
   Christoph Reimann      : Effective Core Potentials
   Marius Retegan         : Local ZFS, SOC
   Christoph Riplinger    : Optimizer, TS searches, QM/MM, DLPNO-CCSD(T), (RO)-DLPNO pert. Triples
   Tobias Risthaus        : Range-separated hybrids, TD-DFT gradient, RPA, STAB
   Michael Roemelt        : Original ROCIS implementation
   Masaaki Saitow         : Open-shell DLPNO-CCSD energy and density
   Barbara Sandhoefer     : DKH picture change effects
   Avijit Sen             : IP-ROCIS
   Kantharuban Sivalingam : CASSCF convergence, NEVPT2, FIC-MRCI
   Bernardo de Souza      : ESD, SOC TD-DFT
   Georgi Stoychev        : AutoAux, RI-MP2 NMR
   Willem Van den Heuvel  : Paramagnetic NMR
   Boris Wezisla          : Elementary symmetry handling
   Frank Wennmohs         : Technical directorship


 We gratefully acknowledge several colleagues who have allowed us to
 interface, adapt or use parts of their codes:
   Stefan Grimme, W. Hujo, H. Kruse,             : VdW corrections, initial TS optimization,
                  C. Bannwarth                     DFT functionals, gCP, sTDA/sTD-DF
   Ed Valeev, F. Pavosevic, A. Kumar             : LibInt (2-el integral package), F12 methods
   Garnet Chan, S. Sharma, J. Yang, R. Olivares  : DMRG
   Ulf Ekstrom                                   : XCFun DFT Library
   Mihaly Kallay                                 : mrcc  (arbitrary order and MRCC methods)
   Andreas Klamt, Michael Diedenhofen            : otool_cosmo (COSMO solvation model)
   Jiri Pittner, Ondrej Demel                    : Mk-CCSD
   Frank Weinhold                                : gennbo (NPA and NBO analysis)
   Christopher J. Cramer and Donald G. Truhlar   : smd solvation model
   Lars Goerigk                                  : TD-DFT with DH, B97 family of functionals
   V. Asgeirsson, H. Jonsson                     : NEB implementation
   FAccTs GmbH                                   : IRC, NEB, NEB-TS, Multilevel, MM, QM/MM, CI optimization
   S Lehtola, MJT Oliveira, MAL Marques          : LibXC Library


 Your calculation uses the libint2 library for the computation of 2-el integrals
 For citations please refer to: http://libint.valeyev.net

 Your ORCA version has been built with support for libXC version: 4.2.3
 For citations please refer to: https://tddft.org/programs/libxc/

 This ORCA versions uses:
   CBLAS   interface :  Fast vector & matrix operations
   LAPACKE interface :  Fast linear algebra routines
   SCALAPACK package :  Parallel linear algebra routines


XCFun DFT library Copyright 2009-2010 Ulf Ekstrom and contributors.
See http://admol.org/xcfun for more information. This is free soft-
ware; see the source code for copying conditions. There is ABSOLUTELY
NO WARRANTY; not even for MERCHANTABILITY or FITNESS FOR A PARTICULAR
PURPOSE. For details see the documentation. Scientific users of this 
library should cite U. Ekstrom, L. Visscher, R. Bast, A. J. Thorvald-
sen and K. Ruud; J.Chem.Theor.Comp. 2010, DOI: 10.1021/ct100117s
XCFun Version 0.99 
----- Orbital basis set information -----
Your calculation utilizes the basis: def2-SVP
   F. Weigend and R. Ahlrichs, Phys. Chem. Chem. Phys. 7, 3297 (2005).

----- AuxJ basis set information -----
Your calculation utilizes the auxiliary basis: def2/J
   F. Weigend, Phys. Chem. Chem. Phys. 8, 1057 (2006).

================================================================================
                                        WARNINGS
                       Please study these warnings very carefully!
================================================================================

INFO   : Checking CIS options ...

WARNING: CIS/ROCIS methods need fully converged wavefunctions
  ===> : Setting SCFConvForced true
         You can overwrite this default with %scf ConvForced false 


INFO   : the flag for use of LIBINT has been found!

================================================================================
                                       INPUT FILE
================================================================================
NAME = PDCBT-Cl_hexamer.inp
|  1> # ORCA input file
|  2> # SCF done       -250.996433954248          0.000794010433
|  3> ! CAM-B3LYP def2-SVP def2/J RIJCOSX Grid4 TightSCF
|  4> %maxcore 5000
|  5> %tddft
|  6>     Mode sTDDFT
|  7>     Ethresh 5.0
|  8>     maxcore 5000
|  9> end
| 10> * xyz 0 1
| 11>    C       -0.84334         0.03244         0.35241
| 12>    C        0.63422        -0.05760         0.25554
| 13>    C        1.56664         0.94804         0.12795
| 14>    C        2.89632         0.46314         0.06573
| 15>    C        2.98379        -0.89737         0.14481
| 16>    S        1.39587        -1.60513         0.29884
| 17>    C        1.30554         2.39387         0.05555
| 18>    O       -0.00147         2.69991         0.13138
| 19>    O        2.16997         3.22798        -0.06076
| 20>    C       -0.31006         4.08405         0.06694
| 21>    C        7.93219        -2.58663        -0.03933
| 22>    C        8.71364        -1.44804        -0.04314
| 23>    C       10.08401        -1.71099        -0.03036
| 24>    S        8.93714        -4.00655        -0.02680
| 25>    C        6.50800        -2.58332        -0.01047
| 26>    C        5.55117        -3.58262         0.11357
| 27>    C        4.23494        -3.07985         0.19598
| 28>    C        4.14997        -1.71761         0.11461
| 29>    S        5.73284        -1.01625        -0.04332
| 30>    C        5.73318        -5.04187         0.16833
| 31>    O        6.86450        -5.45533        -0.42251
| 32>    O        4.93010        -5.79820         0.65543
| 33>    C        7.10216        -6.85476        -0.40923
| 34>    C       14.09173        -4.26487        -0.00693
| 35>    C       13.25428        -5.36910         0.01465
| 36>    C       11.90340        -5.05208         0.01741
| 37>    C       11.66757        -3.69005        -0.00009
| 38>    S       13.15980        -2.79879        -0.02914
| 39>    C       15.51247        -4.33549         0.01167
| 40>    C       16.51833        -3.38050         0.11295
| 41>    C       17.80964        -3.94280         0.17828
| 42>    C       17.83130        -5.30910         0.10639
| 43>    S       16.21398        -5.93783        -0.01772
| 44>    C       16.41071        -1.91265         0.16272
| 45>    O       15.29804        -1.44289        -0.41777
| 46>    O       17.25824        -1.19953         0.64043
| 47>    C       15.12978        -0.03336        -0.40613
| 48>    C       10.39854        -3.05742        -0.01167
| 49>    C       22.70451        -7.19997         0.18751
| 50>    C       23.51629        -6.10273         0.40229
| 51>    C       24.87587        -6.41126         0.44143
| 52>    S       23.66978        -8.63996         0.03463
| 53>    C       21.28413        -7.13928         0.11045
| 54>    C       20.28036        -8.09869         0.03575
| 55>    C       18.98376        -7.54330         0.04817
| 56>    C       18.95908        -6.17653         0.10984
| 57>    S       20.57657        -5.54156         0.18246
| 58>    C       20.39319        -9.56343        -0.04354
| 59>    O       21.57911        -9.98127        -0.51055
| 60>    O       19.49766       -10.31805         0.24628
| 61>    C       21.75260       -11.38631        -0.61320
| 62>    C       25.15314        -7.75427         0.26074
| 63>   Cl       11.26194        -0.46664        -0.03416
| 64>   Cl       26.08402        -5.22200         0.69326
| 65>    C       26.40386        -8.42105         0.22062
| 66>    S       27.91908        -7.57714         0.34508
| 67>    C       28.81214        -9.05642         0.17650
| 68>    C       27.94870       -10.12963         0.02712
| 69>    C       26.60616        -9.77731         0.04534
| 70>    C       30.22981        -9.16106         0.23601
| 71>    C       31.24579        -8.22757         0.40401
| 72>    C       32.52420        -8.81341         0.49886
| 73>    C       32.52560       -10.17730         0.38262
| 74>    S       30.90410       -10.77361         0.17921
| 75>    C       31.15673        -6.75789         0.47060
| 76>    O       30.09346        -6.26991        -0.18230
| 77>    O       31.97914        -6.06600         1.01731
| 78>    C       29.92912        -4.85949        -0.17994
| 79>    C       37.36659       -12.14530         0.54847
| 80>    C       38.20691       -11.05377         0.63824
| 81>    C       39.56452       -11.38294         0.61135
| 82>    S       38.30132       -13.60635         0.43773
| 83>    C       35.94500       -12.06433         0.50663
| 84>    C       34.93392       -13.00332         0.33609
| 85>    C       33.64875       -12.42473         0.26851
| 86>    C       33.63895       -11.06327         0.40101
| 87>    S       35.25881       -10.45937         0.59873
| 88>    C       35.03310       -14.46649         0.21693
| 89>    O       36.18064       -14.95847         0.70487
| 90>    O       34.16003       -15.15842        -0.24603
| 91>    C       36.36750       -16.36304         0.61703
| 92>    C       42.72367       -15.26513         0.30536
| 93>    C       43.28494       -14.02691         0.33329
| 94>    C       42.33256       -12.99538         0.40364
| 95>    C       41.03852       -13.45691         0.42946
| 96>    S       41.01032       -15.20040         0.36411
| 97>    C       39.80796       -12.73853         0.49488
| 98>   Cl       40.77110       -10.16708         0.72436
| 99>    H       -1.25250         0.51066        -0.53663
|100>    H       -1.13009         0.64162         1.20841
|101>    H       -1.27655        -0.95911         0.45665
|102>    H        3.74564         1.11478        -0.03392
|103>    H        0.15704         4.61676         0.89793
|104>    H       -1.39297         4.15661         0.12620
|105>    H        0.05376         4.51147        -0.86975
|106>    H        8.30681        -0.45303        -0.04974
|107>    H        3.38236        -3.72619         0.30557
|108>    H        6.29732        -7.37788        -0.92906
|109>    H        7.15517        -7.22100         0.61774
|110>    H        8.04979        -7.00342        -0.91960
|111>    H       13.63054        -6.37694         0.03327
|112>    H       11.10980        -5.77763         0.03289
|113>    H       18.69377        -3.33697         0.26814
|114>    H       15.89985         0.44245        -1.01635
|115>    H       15.20119         0.34884         0.61386
|116>    H       14.14253         0.15544        -0.81870
|117>    H       23.13773        -5.10494         0.53086
|118>    H       18.09973        -8.15412         0.00418
|119>    H       21.05054       -11.79985        -1.33949
|120>    H       21.58017       -11.86188         0.35401
|121>    H       22.77720       -11.53886        -0.94059
|122>    H       28.30026       -11.13953        -0.09186
|123>    H       25.79450       -10.47428        -0.06275
|124>    H       33.41494        -8.22701         0.63841
|125>    H       30.52850        -4.41580        -0.97732
|126>    H       30.24464        -4.44417         0.77879
|127>    H       28.87212        -4.67291        -0.35365
|128>    H       37.85293       -10.04139         0.71779
|129>    H       32.76221       -13.01721         0.12857
|130>    H       35.82596       -16.86139         1.42358
|131>    H       37.43725       -16.53335         0.71460
|132>    H       35.99932       -16.73342        -0.34147
|133>    H       43.21288       -16.21730         0.25382
|134>    H       44.34573       -13.85391         0.30405
|135>    H       42.59212       -11.95456         0.43038
|136> *
|137> 
|138>                          ****END OF INPUT****
================================================================================

                       ****************************
                       * Single Point Calculation *
                       ****************************

---------------------------------
CARTESIAN COORDINATES (ANGSTROEM)
---------------------------------
  C     -0.843340    0.032440    0.352410
  C      0.634220   -0.057600    0.255540
  C      1.566640    0.948040    0.127950
  C      2.896320    0.463140    0.065730
  C      2.983790   -0.897370    0.144810
  S      1.395870   -1.605130    0.298840
  C      1.305540    2.393870    0.055550
  O     -0.001470    2.699910    0.131380
  O      2.169970    3.227980   -0.060760
  C     -0.310060    4.084050    0.066940
  C      7.932190   -2.586630   -0.039330
  C      8.713640   -1.448040   -0.043140
  C     10.084010   -1.710990   -0.030360
  S      8.937140   -4.006550   -0.026800
  C      6.508000   -2.583320   -0.010470
  C      5.551170   -3.582620    0.113570
  C      4.234940   -3.079850    0.195980
  C      4.149970   -1.717610    0.114610
  S      5.732840   -1.016250   -0.043320
  C      5.733180   -5.041870    0.168330
  O      6.864500   -5.455330   -0.422510
  O      4.930100   -5.798200    0.655430
  C      7.102160   -6.854760   -0.409230
  C     14.091730   -4.264870   -0.006930
  C     13.254280   -5.369100    0.014650
  C     11.903400   -5.052080    0.017410
  C     11.667570   -3.690050   -0.000090
  S     13.159800   -2.798790   -0.029140
  C     15.512470   -4.335490    0.011670
  C     16.518330   -3.380500    0.112950
  C     17.809640   -3.942800    0.178280
  C     17.831300   -5.309100    0.106390
  S     16.213980   -5.937830   -0.017720
  C     16.410710   -1.912650    0.162720
  O     15.298040   -1.442890   -0.417770
  O     17.258240   -1.199530    0.640430
  C     15.129780   -0.033360   -0.406130
  C     10.398540   -3.057420   -0.011670
  C     22.704510   -7.199970    0.187510
  C     23.516290   -6.102730    0.402290
  C     24.875870   -6.411260    0.441430
  S     23.669780   -8.639960    0.034630
  C     21.284130   -7.139280    0.110450
  C     20.280360   -8.098690    0.035750
  C     18.983760   -7.543300    0.048170
  C     18.959080   -6.176530    0.109840
  S     20.576570   -5.541560    0.182460
  C     20.393190   -9.563430   -0.043540
  O     21.579110   -9.981270   -0.510550
  O     19.497660  -10.318050    0.246280
  C     21.752600  -11.386310   -0.613200
  C     25.153140   -7.754270    0.260740
  Cl    11.261940   -0.466640   -0.034160
  Cl    26.084020   -5.222000    0.693260
  C     26.403860   -8.421050    0.220620
  S     27.919080   -7.577140    0.345080
  C     28.812140   -9.056420    0.176500
  C     27.948700  -10.129630    0.027120
  C     26.606160   -9.777310    0.045340
  C     30.229810   -9.161060    0.236010
  C     31.245790   -8.227570    0.404010
  C     32.524200   -8.813410    0.498860
  C     32.525600  -10.177300    0.382620
  S     30.904100  -10.773610    0.179210
  C     31.156730   -6.757890    0.470600
  O     30.093460   -6.269910   -0.182300
  O     31.979140   -6.066000    1.017310
  C     29.929120   -4.859490   -0.179940
  C     37.366590  -12.145300    0.548470
  C     38.206910  -11.053770    0.638240
  C     39.564520  -11.382940    0.611350
  S     38.301320  -13.606350    0.437730
  C     35.945000  -12.064330    0.506630
  C     34.933920  -13.003320    0.336090
  C     33.648750  -12.424730    0.268510
  C     33.638950  -11.063270    0.401010
  S     35.258810  -10.459370    0.598730
  C     35.033100  -14.466490    0.216930
  O     36.180640  -14.958470    0.704870
  O     34.160030  -15.158420   -0.246030
  C     36.367500  -16.363040    0.617030
  C     42.723670  -15.265130    0.305360
  C     43.284940  -14.026910    0.333290
  C     42.332560  -12.995380    0.403640
  C     41.038520  -13.456910    0.429460
  S     41.010320  -15.200400    0.364110
  C     39.807960  -12.738530    0.494880
  Cl    40.771100  -10.167080    0.724360
  H     -1.252500    0.510660   -0.536630
  H     -1.130090    0.641620    1.208410
  H     -1.276550   -0.959110    0.456650
  H      3.745640    1.114780   -0.033920
  H      0.157040    4.616760    0.897930
  H     -1.392970    4.156610    0.126200
  H      0.053760    4.511470   -0.869750
  H      8.306810   -0.453030   -0.049740
  H      3.382360   -3.726190    0.305570
  H      6.297320   -7.377880   -0.929060
  H      7.155170   -7.221000    0.617740
  H      8.049790   -7.003420   -0.919600
  H     13.630540   -6.376940    0.033270
  H     11.109800   -5.777630    0.032890
  H     18.693770   -3.336970    0.268140
  H     15.899850    0.442450   -1.016350
  H     15.201190    0.348840    0.613860
  H     14.142530    0.155440   -0.818700
  H     23.137730   -5.104940    0.530860
  H     18.099730   -8.154120    0.004180
  H     21.050540  -11.799850   -1.339490
  H     21.580170  -11.861880    0.354010
  H     22.777200  -11.538860   -0.940590
  H     28.300260  -11.139530   -0.091860
  H     25.794500  -10.474280   -0.062750
  H     33.414940   -8.227010    0.638410
  H     30.528500   -4.415800   -0.977320
  H     30.244640   -4.444170    0.778790
  H     28.872120   -4.672910   -0.353650
  H     37.852930  -10.041390    0.717790
  H     32.762210  -13.017210    0.128570
  H     35.825960  -16.861390    1.423580
  H     37.437250  -16.533350    0.714600
  H     35.999320  -16.733420   -0.341470
  H     43.212880  -16.217300    0.253820
  H     44.345730  -13.853910    0.304050
  H     42.592120  -11.954560    0.430380

----------------------------
CARTESIAN COORDINATES (A.U.)
----------------------------
  NO LB      ZA    FRAG     MASS         X           Y           Z
   0 C     6.0000    0    12.011   -1.593682    0.061303    0.665958
   1 C     6.0000    0    12.011    1.198502   -0.108848    0.482901
   2 C     6.0000    0    12.011    2.960521    1.791536    0.241790
   3 C     6.0000    0    12.011    5.473252    0.875208    0.124212
   4 C     6.0000    0    12.011    5.638546   -1.695784    0.273651
   5 S    16.0000    0    32.060    2.637812   -3.033256    0.564726
   6 C     6.0000    0    12.011    2.467113    4.523759    0.104974
   7 O     8.0000    0    15.999   -0.002778    5.102090    0.248272
   8 O     8.0000    0    15.999    4.100649    6.099998   -0.114820
   9 C     6.0000    0    12.011   -0.585928    7.717736    0.126498
  10 C     6.0000    0    12.011   14.989667   -4.888022   -0.074323
  11 C     6.0000    0    12.011   16.466393   -2.736399   -0.081523
  12 C     6.0000    0    12.011   19.056017   -3.233303   -0.057372
  13 S    16.0000    0    32.060   16.888747   -7.571282   -0.050645
  14 C     6.0000    0    12.011   12.298338   -4.881767   -0.019785
  15 C     6.0000    0    12.011   10.490191   -6.770171    0.214616
  16 C     6.0000    0    12.011    8.002877   -5.820073    0.370349
  17 C     6.0000    0    12.011    7.842307   -3.245813    0.216582
  18 S    16.0000    0    32.060   10.833498   -1.920434   -0.081863
  19 C     6.0000    0    12.011   10.834140   -9.527754    0.318098
  20 O     8.0000    0    15.999   12.972025  -10.309080   -0.798428
  21 O     8.0000    0    15.999    9.316539  -10.957010    1.238583
  22 C     6.0000    0    12.011   13.421137  -12.953619   -0.773333
  23 C     6.0000    0    12.011   26.629510   -8.059436   -0.013096
  24 C     6.0000    0    12.011   25.046959  -10.146129    0.027684
  25 C     6.0000    0    12.011   22.494166   -9.547048    0.032900
  26 C     6.0000    0    12.011   22.048512   -6.973184   -0.000170
  27 S    16.0000    0    32.060   24.868418   -5.288947   -0.055067
  28 C     6.0000    0    12.011   29.314320   -8.192889    0.022053
  29 C     6.0000    0    12.011   31.215120   -6.388219    0.213445
  30 C     6.0000    0    12.011   33.655342   -7.450812    0.336900
  31 C     6.0000    0    12.011   33.696274  -10.032745    0.201048
  32 S    16.0000    0    32.060   30.639982  -11.220873   -0.033486
  33 C     6.0000    0    12.011   31.011748   -3.614385    0.307496
  34 O     8.0000    0    15.999   28.909106   -2.726667   -0.789471
  35 O     8.0000    0    15.999   32.613347   -2.266783    1.210237
  36 C     6.0000    0    12.011   28.591141   -0.063041   -0.767474
  37 C     6.0000    0    12.011   19.650393   -5.777686   -0.022053
  38 C     6.0000    0    12.011   42.905306  -13.605971    0.354343
  39 C     6.0000    0    12.011   44.439348  -11.532488    0.760218
  40 C     6.0000    0    12.011   47.008582  -12.115526    0.834182
  41 S    16.0000    0    32.060   44.729402  -16.327158    0.065441
  42 C     6.0000    0    12.011   40.221177  -13.491284    0.208720
  43 C     6.0000    0    12.011   38.324326  -15.304306    0.067558
  44 C     6.0000    0    12.011   35.874107  -14.254771    0.091028
  45 C     6.0000    0    12.011   35.827469  -11.671950    0.207568
  46 S    16.0000    0    32.060   38.884082  -10.472031    0.344799
  47 C     6.0000    0    12.011   38.537544  -18.072264   -0.082279
  48 O     8.0000    0    15.999   40.778608  -18.861867   -0.964800
  49 O     8.0000    0    15.999   36.845238  -19.498289    0.465402
  50 C     6.0000    0    12.011   41.106457  -21.517008   -1.158780
  51 C     6.0000    0    12.011   47.532546  -14.653447    0.492727
  52 Cl   17.0000    0    35.453   21.281982   -0.881822   -0.064553
  53 Cl   17.0000    0    35.453   49.291654   -9.868150    1.310072
  54 C     6.0000    0    12.011   49.896064  -15.913478    0.416911
  55 S    16.0000    0    32.060   52.759415  -14.318719    0.652107
  56 C     6.0000    0    12.011   54.447054  -17.114154    0.333537
  57 C     6.0000    0    12.011   52.815389  -19.142227    0.051249
  58 C     6.0000    0    12.011   50.278356  -18.476438    0.085680
  59 C     6.0000    0    12.011   57.126062  -17.311894    0.445994
  60 C     6.0000    0    12.011   59.045986  -15.547854    0.763468
  61 C     6.0000    0    12.011   61.461831  -16.654931    0.942709
  62 C     6.0000    0    12.011   61.464476  -19.232310    0.723047
  63 S    16.0000    0    32.060   58.400285  -20.359172    0.338658
  64 C     6.0000    0    12.011   58.877687  -12.770561    0.889305
  65 O     8.0000    0    15.999   56.868398  -11.848413   -0.344497
  66 O     8.0000    0    15.999   60.431817  -11.463079    1.922437
  67 C     6.0000    0    12.011   56.557840   -9.183105   -0.340037
  68 C     6.0000    0    12.011   70.612622  -22.951291    1.036458
  69 C     6.0000    0    12.011   72.200596  -20.888598    1.206099
  70 C     6.0000    0    12.011   74.766107  -21.510639    1.155284
  71 S    16.0000    0    32.060   72.379005  -25.712275    0.827190
  72 C     6.0000    0    12.011   67.926206  -22.798280    0.957392
  73 C     6.0000    0    12.011   66.015542  -24.572714    0.635118
  74 C     6.0000    0    12.011   63.586922  -23.479337    0.507410
  75 C     6.0000    0    12.011   63.568403  -20.906550    0.757799
  76 S    16.0000    0    32.060   66.629495  -19.765345    1.131436
  77 C     6.0000    0    12.011   66.202965  -27.337704    0.409938
  78 O     8.0000    0    15.999   68.371501  -28.267412    1.332011
  79 O     8.0000    0    15.999   64.553101  -28.645262   -0.464929
  80 C     6.0000    0    12.011   68.724615  -30.921664    1.166018
  81 C     6.0000    0    12.011   80.736036  -28.846915    0.577047
  82 C     6.0000    0    12.011   81.796682  -26.507018    0.629827
  83 C     6.0000    0    12.011   79.996945  -24.557709    0.762769
  84 C     6.0000    0    12.011   77.551564  -25.429875    0.811562
  85 S    16.0000    0    32.060   77.498273  -28.724593    0.688068
  86 C     6.0000    0    12.011   75.226142  -24.072333    0.935188
  87 Cl   17.0000    0    35.453   77.046213  -19.212997    1.368842
  88 H     1.0000    0     1.008   -2.366882    0.965008   -1.014084
  89 H     1.0000    0     1.008   -2.135561    1.212486    2.283564
  90 H     1.0000    0     1.008   -2.412330   -1.812455    0.862943
  91 H     1.0000    0     1.008    7.078234    2.106629   -0.064100
  92 H     1.0000    0     1.008    0.296763    8.724412    1.696842
  93 H     1.0000    0     1.008   -2.632332    7.854855    0.238483
  94 H     1.0000    0     1.008    0.101592    8.525443   -1.643589
  95 H     1.0000    0     1.008   15.697596   -0.856103   -0.093995
  96 H     1.0000    0     1.008    6.391734   -7.041479    0.577444
  97 H     1.0000    0     1.008   11.900210  -13.942173   -1.755669
  98 H     1.0000    0     1.008   13.521312  -13.645712    1.167359
  99 H     1.0000    0     1.008   15.211899  -13.234546   -1.737792
 100 H     1.0000    0     1.008   25.757988  -12.050670    0.062871
 101 H     1.0000    0     1.008   20.994479  -10.918138    0.062153
 102 H     1.0000    0     1.008   35.326106   -6.305959    0.506711
 103 H     1.0000    0     1.008   30.046362    0.836109   -1.920623
 104 H     1.0000    0     1.008   28.726086    0.659212    1.160027
 105 H     1.0000    0     1.008   26.725509    0.293739   -1.547119
 106 H     1.0000    0     1.008   43.723973   -9.646939    1.003180
 107 H     1.0000    0     1.008   34.203533  -15.409054    0.007899
 108 H     1.0000    0     1.008   39.779756  -22.298485   -2.531269
 109 H     1.0000    0     1.008   40.780611  -22.415705    0.668982
 110 H     1.0000    0     1.008   43.042670  -21.805285   -1.777458
 111 H     1.0000    0     1.008   53.479741  -21.050661   -0.173590
 112 H     1.0000    0     1.008   48.744541  -19.793521   -0.118580
 113 H     1.0000    0     1.008   63.145085  -15.546796    1.206420
 114 H     1.0000    0     1.008   57.690504   -8.344653   -1.846867
 115 H     1.0000    0     1.008   57.154087   -8.398264    1.471700
 116 H     1.0000    0     1.008   54.560400   -8.830520   -0.668302
 117 H     1.0000    0     1.008   71.531671  -18.975477    1.356427
 118 H     1.0000    0     1.008   61.911604  -24.598962    0.242962
 119 H     1.0000    0     1.008   67.701253  -31.863409    2.690176
 120 H     1.0000    0     1.008   70.746150  -31.243504    1.350398
 121 H     1.0000    0     1.008   68.028856  -31.621581   -0.645285
 122 H     1.0000    0     1.008   81.660509  -30.646256    0.479650
 123 H     1.0000    0     1.008   83.801285  -26.180096    0.574571
 124 H     1.0000    0     1.008   80.487442  -22.590844    0.813300

--------------------------------
INTERNAL COORDINATES (ANGSTROEM)
--------------------------------
 C      0   0   0     0.000000000000     0.00000000     0.00000000
 C      1   0   0     1.483467071458     0.00000000     0.00000000
 C      2   1   0     1.377315531786   129.49570707     0.00000000
 C      3   2   1     1.416703300201   112.92699908   180.01348416
 C      4   3   2     1.365610525516   113.48876896     0.00000000
 S      2   1   3     1.725350605935   119.50437771   180.02524850
 C      3   2   1     1.470999442182   127.01670183     0.00000000
 O      7   3   2     1.344502067905   113.17254289     0.20192055
 O      7   3   2     1.206858207537   123.84330178   180.23735083
 C      8   7   3     1.419585799203   115.51187212   179.97323520
 C      5   4   3     5.232033012816   112.34634514   180.64401222
 C     11   5   4     1.380965534219   105.61020387     4.82288530
 C     12  11   5     1.395428238141   113.59827336   177.30828278
 S     11   5   4     1.739613264436   144.06173455   180.93410656
 C     11   5   4     1.424486227311    18.72759837   186.75808720
 C     15  11   5     1.389068054668   133.53701251   188.82508842
 C     16  15  11     1.411393103958   113.03733568   175.25919921
 C     17  16  15     1.367310789616   114.16592301     1.10686897
 S     18  17  16     1.738483583874   110.53385384   359.07939064
 C     16  15  11     1.471576318170   129.16112131   355.30177714
 O     20  16  15     1.341613215349   113.17299316   335.18079292
 O     20  16  15     1.205918307888   123.68262270   157.42399560
 C     21  20  16     1.419529132811   116.15982691   180.14810110
 C     13  12  11     4.752333281421   158.35431295     0.95824718
 C     24  13  12     1.386041879526    85.33521453   358.37106308
 C     25  24  13     1.387582816411   113.96855526   359.91564755
 C     26  25  24     1.382406510329   113.02656720   359.91094725
 S     24  13  12     1.737347799204    25.05352390   178.16372964
 C     24  13  12     1.422615651538   150.33634883   180.30693435
 C     29  24  13     1.390689713092   133.56613527     4.30864141
 C     30  29  24     1.409940004043   113.07498500   175.94478866
 C     31  30  29     1.368361435331   114.22201481     1.09433972
 S     32  31  30     1.739663383359   110.48099492   358.97009424
 C     30  29  24     1.472631230078   129.35154214   356.13596743
 O     34  30  29     1.340028964836   113.29477573   334.70459020
 O     34  30  29     1.206256224606   123.45641951   156.90239191
 C     35  34  30     1.419585058424   116.29173674   180.00961331
 C     13  12  11     1.382805908976   114.01506499   359.78771857
 C     32  31  30     5.227824166458   112.02980210   177.90544458
 C     39  32  31     1.381684781128   105.23956498     5.41748035
 C     40  39  32     1.394697270701   113.66716469   180.65129005
 S     39  32  31     1.740313094647   144.58175695   186.37689924
 C     39  32  31     1.423762924120    18.87783169   183.39297336
 C     43  39  32     1.390540129230   133.91880141   185.05461812
 C     44  43  39     1.410596990107   113.04118973   176.79637476
 C     45  44  43     1.368383178865   114.21977911     0.95627947
 S     46  45  44     1.739176375587   110.47358826   359.01756582
 C     44  43  39     1.471217448442   129.37935965   357.18592160
 O     48  44  43     1.341303415376   113.37317948   337.66321274
 O     48  44  43     1.206408288143   123.56478078   159.61280934
 C     49  48  44     1.419427068997   116.20639088   180.06109343
 C     41  40  39     1.383185956081   113.98736397   359.88660409
 Cl    13  12  11     1.713458621444   122.56428063   179.91583471
 Cl    41  40  39     1.713879843805   122.53354731   179.93966997
 C     52  41  40     1.417923023722   129.57649874   178.98103308
 S     55  52  41     1.738840426290   122.57402971   357.51109170
 C     56  55  52     1.736158028061    91.59105812   181.14307008
 C     57  56  55     1.385504500931   110.48089931     0.26116241
 C     55  52  41     1.382421627435   126.44284744   179.45716850
 C     57  56  55     1.422771660738   124.83029335   182.55769719
 C     60  57  56     1.389907529478   133.15769897   358.78897247
 C     61  60  57     1.409445691114   113.07805942   175.51640223
 C     62  61  60     1.368835136055   114.16489700     1.18818246
 S     63  62  61     1.739604407387   110.51928351   358.91354009
 C     61  60  57     1.473881004050   129.12376749   354.45233265
 O     65  61  60     1.339755941692   112.90039753   333.56896013
 O     65  61  60     1.205803385424   123.46560445   155.90323741
 C     66  65  61     1.419964007149   116.92497860   180.37955538
 C     63  62  61     5.228356759308   111.91942443   177.48825689
 C     69  63  62     1.380447063889   105.54904839   357.37549629
 C     70  69  63     1.397204663999   113.82497297   183.70955741
 S     69  63  62     1.738001905350   144.32898797   182.84201783
 C     69  63  62     1.424508636197    18.85483956   173.89524496
 C     73  69  63     1.390348473621   133.70440845   171.15958332
 C     74  73  69     1.411026354609   113.03493854   184.42056673
 C     75  74  73     1.367927491353   114.20460514   359.14457205
 S     76  75  74     1.740038743247   110.47247791     0.63143429
 C     74  73  69     1.471360671929   129.23614083     4.17339615
 O     78  74  73     1.340514011713   113.15315345    20.28091030
 O     78  74  73     1.206379008189   123.54987242   198.77675394
 C     79  78  74     1.419665245789   116.95298331   180.68728067
 C     72  69  63     4.725066394010   143.15549277   173.95248402
 C     82  72  69     1.359776770724    93.78827939   357.33566802
 C     83  82  72     1.405713672054   112.92896359     0.92989118
 C     84  83  82     1.374123769862   113.10980996     0.00000000
 S     82  72  69     1.715578549032    18.39142587   174.65733429
 C     71  70  69     1.382191210578   113.81685363     0.23158965
 Cl    71  70  69     1.716660157428   120.98521978   180.50381205
 H      1   2   3     1.089265071321   110.33352300    59.90091019
 H      1   2   3     1.089064660569   110.33612707   301.52981082
 H      1   2   3     1.087064066281   110.35439604   180.68081525
 H      4   3   2     1.075132212567   122.55172969   180.00465484
 H     10   8   7     1.092019566766   110.37208610   299.12513187
 H     10   8   7     1.086954814746   106.21157183   179.18417193
 H     10   8   7     1.091989471057   110.37442202    59.20719656
 H     12  11   5     1.074987957607   123.29908571   357.63293852
 H     17  16  15     1.075480367138   122.08390838   180.65952082
 H     23  21  20     1.091625022112   110.15337368    60.39884422
 H     23  21  20     1.091608528091   110.34584289   300.19465808
 H     23  21  20     1.086544959677   106.05167987   180.24921814
 H     25  24  13     1.075945982659   122.35943040   180.25242507
 H     26  25  24     1.075389879486   124.35569584   179.99555279
 H     31  30  29     1.075542033302   122.14724593   180.58266620
 H     37  35  34     1.091682833702   110.15557977    65.91970028
 H     37  35  34     1.091584091218   110.33821940   305.67888064
 H     37  35  34     1.086518295934   106.08840470   185.73302575
 H     40  39  32     1.074905950584   123.28724147     0.85654434
 H     45  44  43     1.075427930361   122.11401965   180.47648363
 H     51  49  48     1.091513050449   110.15331306    63.85567656
 H     51  49  48     1.091510015483   110.35844429   303.64985314
 H     51  49  48     1.086398119752   106.02524754   183.62548876
 H     58  57  56     1.075940836663   122.36763365   180.04588136
 H     59  55  52     1.075287210284   122.56051530   358.83479105
 H     62  61  60     1.075526340961   122.22884438   180.47620674
 H     68  66  65     1.091756412805   109.81081187    84.16866821
 H     68  66  65     1.091424200620   110.24130421   323.86042825
 H     68  66  65     1.087306884233   106.42074613   203.57420658
 H     70  69  63     1.075427034856   123.28453315     3.48199174
 H     75  74  73     1.075438945547   122.08332824   179.38586172
 H     81  79  78     1.091852186241   109.91248761   279.79385957
 H     81  79  78     1.087607679037   106.19080935   160.26145477
 H     81  79  78     1.091540245158   110.22125872    40.02535026
 H     82  72  69     1.071732478093   137.77105358   178.38218378
 H     83  82  72     1.075202028318   123.58623042   180.96626768
 H     84  83  82     1.073029679739   123.30852383   180.24085054

---------------------------
INTERNAL COORDINATES (A.U.)
---------------------------
 C      0   0   0     0.000000000000     0.00000000     0.00000000
 C      1   0   0     2.803346493746     0.00000000     0.00000000
 C      2   1   0     2.602749155072   129.49570707     0.00000000
 C      3   2   1     2.677181250402   112.92699908   180.01348416
 C      4   3   2     2.580629898825   113.48876896     0.00000000
 S      2   1   3     3.260440130212   119.50437771   180.02524850
 C      3   2   1     2.779786088875   127.01670183     0.00000000
 O      7   3   2     2.540740694831   113.17254289     0.20192055
 O      7   3   2     2.280631494720   123.84330178   180.23735083
 C      8   7   3     2.682628384098   115.51187212   179.97323520
 C      5   4   3     9.887109517858   112.34634514   180.64401222
 C     11   5   4     2.609646660058   105.61020387     4.82288530
 C     12  11   5     2.636977209626   113.59827336   177.30828278
 S     11   5   4     3.287392648720   144.06173455   180.93410656
 C     11   5   4     2.691888851161    18.72759837   186.75808720
 C     15  11   5     2.624958204702   133.53701251   188.82508842
 C     16  15  11     2.667146433786   113.03733568   175.25919921
 C     17  16  15     2.583842932330   114.16592301     1.10686897
 S     18  17  16     3.285257861840   110.53385384   359.07939064
 C     16  15  11     2.780876226506   129.16112131   355.30177714
 O     20  16  15     2.535281554660   113.17299316   335.18079292
 O     20  16  15     2.278855341790   123.68262270   157.42399560
 C     21  20  16     2.682521300136   116.15982691   180.14810110
 C     13  12  11     8.980608399005   158.35431295     0.95824718
 C     24  13  12     2.619239562450    85.33521453   358.37106308
 C     25  24  13     2.622151511153   113.96855526   359.91564755
 C     26  25  24     2.612369710272   113.02656720   359.91094725
 S     24  13  12     3.283111539867    25.05352390   178.16372964
 C     24  13  12     2.688353975236   150.33634883   180.30693435
 C     29  24  13     2.628022695005   133.56613527     4.30864141
 C     30  29  24     2.664400472901   113.07498500   175.94478866
 C     31  30  29     2.585828364994   114.22201481     1.09433972
 S     32  31  30     3.287487359759   110.48099492   358.97009424
 C     30  29  24     2.782869721106   129.35154214   356.13596743
 O     34  30  29     2.532287755062   113.29477573   334.70459020
 O     34  30  29     2.279493911843   123.45641951   156.90239191
 C     35  34  30     2.682626984228   116.29173674   180.00961331
 C     13  12  11     2.613124464333   114.01506499   359.78771857
 C     32  31  30     9.879155950900   112.02980210   177.90544458
 C     39  32  31     2.611005839738   105.23956498     5.41748035
 C     40  39  32     2.635595881352   113.66716469   180.65129005
 S     39  32  31     3.288715136160   144.58175695   186.37689924
 C     39  32  31     2.690522006219    18.87783169   183.39297336
 C     43  39  32     2.627740022473   133.91880141   185.05461812
 C     44  43  39     2.665641996637   113.04118973   176.79637476
 C     45  44  43     2.585869454319   114.21977911     0.95627947
 S     46  45  44     3.286567048445   110.47358826   359.01756582
 C     44  43  39     2.780198061002   129.37935965   357.18592160
 O     48  44  43     2.534696117554   113.37317948   337.66321274
 O     48  44  43     2.279781270283   123.56478078   159.61280934
 C     49  48  44     2.682328427478   116.20639088   180.06109343
 C     41  40  39     2.613842649279   113.98736397   359.88660409
 Cl    13  12  11     3.237967536335   122.56428063   179.91583471
 Cl    41  40  39     3.238763531239   122.53354731   179.93966997
 C     52  41  40     2.679486193815   129.57649874   178.98103308
 S     55  52  41     3.285932196279   122.57402971   357.51109170
 C     56  55  52     3.280863198244    91.59105812   181.14307008
 C     57  56  55     2.618224064075   110.48089931     0.26116241
 C     55  52  41     2.612398277462   126.44284744   179.45716850
 C     57  56  55     2.688648789900   124.83029335   182.55769719
 C     60  57  56     2.626544582189   133.15769897   358.78897247
 C     61  60  57     2.663466356841   113.07805942   175.51640223
 C     62  61  60     2.586723529634   114.16489700     1.18818246
 S     63  62  61     3.287375911324   110.51928351   358.91354009
 C     61  60  57     2.785231451644   129.12376749   354.45233265
 O     65  61  60     2.531771816092   112.90039753   333.56896013
 O     65  61  60     2.278638169806   123.46560445   155.90323741
 C     66  65  61     2.683343093538   116.92497860   180.37955538
 C     63  62  61     9.880162405528   111.91942443   177.48825689
 C     69  63  62     2.608666893126   105.54904839   357.37549629
 C     70  69  63     2.640334167995   113.82497297   183.70955741
 S     69  63  62     3.284347621345   144.32898797   182.84201783
 C     69  63  62     2.691931197818    18.85483956   173.89524496
 C     73  69  63     2.627377845859   133.70440845   171.15958332
 C     74  73  69     2.666453377955   113.03493854   184.42056673
 C     75  74  73     2.585008329720   114.20460514   359.14457205
 S     76  75  74     3.288196687149   110.47247791     0.63143429
 C     74  73  69     2.780468714169   129.23614083     4.17339615
 O     78  74  73     2.533204360822   113.15315345    20.28091030
 O     78  74  73     2.279725939189   123.54987242   198.77675394
 C     79  78  74     2.682778516386   116.95298331   180.68728067
 C     72  69  63     8.929081449273   143.15549277   173.95248402
 C     82  72  69     2.569605699936    93.78827939   357.33566802
 C     83  82  72     2.656413862891   112.92896359     0.92989118
 C     84  83  82     2.596717599151   113.10980996     0.00000000
 S     82  72  69     3.241973618901    18.39142587   174.65733429
 C     71  70  69     2.611962852706   113.81685363     0.23158965
 Cl    71  70  69     3.244017562553   120.98521978   180.50381205
 H      1   2   3     2.058412672043   110.33352300    59.90091019
 H      1   2   3     2.058033950607   110.33612707   301.52981082
 H      1   2   3     2.054253375298   110.35439604   180.68081525
 H      4   3   2     2.031705439509   122.55172969   180.00465484
 H     10   8   7     2.063617914071   110.37208610   299.12513187
 H     10   8   7     2.054046919817   106.21157183   179.18417193
 H     10   8   7     2.063561041424   110.37442202    59.20719656
 H     12  11   5     2.031432837141   123.29908571   357.63293852
 H     17  16  15     2.032363356301   122.08390838   180.65952082
 H     23  21  20     2.062872332727   110.15337368    60.39884422
 H     23  21  20     2.062841163544   110.34584289   300.19465808
 H     23  21  20     2.053272405982   106.05167987   180.24921814
 H     25  24  13     2.033243242118   122.35943040   180.25242507
 H     26  25  24     2.032192359418   124.35569584   179.99555279
 H     31  30  29     2.032479888462   122.14724593   180.58266620
 H     37  35  34     2.062981580800   110.15557977    65.91970028
 H     37  35  34     2.062794984547   110.33821940   305.67888064
 H     37  35  34     2.053222018811   106.08840470   185.73302575
 H     40  39  32     2.031277866325   123.28724147     0.85654434
 H     45  44  43     2.032264265152   122.11401965   180.47648363
 H     51  49  48     2.062660736949   110.15331306    63.85567656
 H     51  49  48     2.062655001695   110.35844429   303.64985314
 H     51  49  48     2.052994918738   106.02524754   183.62548876
 H     58  57  56     2.033233517596   122.36763365   180.04588136
 H     59  55  52     2.031998342745   122.56051530   358.83479105
 H     62  61  60     2.032450234234   122.22884438   180.47620674
 H     68  66  65     2.063120625153   109.81081187    84.16866821
 H     68  66  65     2.062492835107   110.24130421   323.86042825
 H     68  66  65     2.054712234727   106.42074613   203.57420658
 H     70  69  63     2.032262572894   123.28453315     3.48199174
 H     75  74  73     2.032285080838   122.08332824   179.38586172
 H     81  79  78     2.063301610719   109.91248761   279.79385957
 H     81  79  78     2.055280654529   106.19080935   160.26145477
 H     81  79  78     2.062712127502   110.22125872    40.02535026
 H     82  72  69     2.025280872425   137.77105358   178.38218378
 H     83  82  72     2.031837372158   123.58623042   180.96626768
 H     84  83  82     2.027732228275   123.30852383   180.24085054

---------------------
BASIS SET INFORMATION
---------------------
There are 5 groups of distinct atoms

 Group   1 Type C   : 7s4p1d contracted to 3s2p1d pattern {511/31/1}
 Group   2 Type S   : 10s7p1d contracted to 4s3p1d pattern {5311/511/1}
 Group   3 Type O   : 7s4p1d contracted to 3s2p1d pattern {511/31/1}
 Group   4 Type Cl  : 10s7p1d contracted to 4s3p1d pattern {5311/511/1}
 Group   5 Type H   : 4s1p contracted to 2s1p pattern {31/1}

Atom   0C    basis set group =>   1
Atom   1C    basis set group =>   1
Atom   2C    basis set group =>   1
Atom   3C    basis set group =>   1
Atom   4C    basis set group =>   1
Atom   5S    basis set group =>   2
Atom   6C    basis set group =>   1
Atom   7O    basis set group =>   3
Atom   8O    basis set group =>   3
Atom   9C    basis set group =>   1
Atom  10C    basis set group =>   1
Atom  11C    basis set group =>   1
Atom  12C    basis set group =>   1
Atom  13S    basis set group =>   2
Atom  14C    basis set group =>   1
Atom  15C    basis set group =>   1
Atom  16C    basis set group =>   1
Atom  17C    basis set group =>   1
Atom  18S    basis set group =>   2
Atom  19C    basis set group =>   1
Atom  20O    basis set group =>   3
Atom  21O    basis set group =>   3
Atom  22C    basis set group =>   1
Atom  23C    basis set group =>   1
Atom  24C    basis set group =>   1
Atom  25C    basis set group =>   1
Atom  26C    basis set group =>   1
Atom  27S    basis set group =>   2
Atom  28C    basis set group =>   1
Atom  29C    basis set group =>   1
Atom  30C    basis set group =>   1
Atom  31C    basis set group =>   1
Atom  32S    basis set group =>   2
Atom  33C    basis set group =>   1
Atom  34O    basis set group =>   3
Atom  35O    basis set group =>   3
Atom  36C    basis set group =>   1
Atom  37C    basis set group =>   1
Atom  38C    basis set group =>   1
Atom  39C    basis set group =>   1
Atom  40C    basis set group =>   1
Atom  41S    basis set group =>   2
Atom  42C    basis set group =>   1
Atom  43C    basis set group =>   1
Atom  44C    basis set group =>   1
Atom  45C    basis set group =>   1
Atom  46S    basis set group =>   2
Atom  47C    basis set group =>   1
Atom  48O    basis set group =>   3
Atom  49O    basis set group =>   3
Atom  50C    basis set group =>   1
Atom  51C    basis set group =>   1
Atom  52Cl   basis set group =>   4
Atom  53Cl   basis set group =>   4
Atom  54C    basis set group =>   1
Atom  55S    basis set group =>   2
Atom  56C    basis set group =>   1
Atom  57C    basis set group =>   1
Atom  58C    basis set group =>   1
Atom  59C    basis set group =>   1
Atom  60C    basis set group =>   1
Atom  61C    basis set group =>   1
Atom  62C    basis set group =>   1
Atom  63S    basis set group =>   2
Atom  64C    basis set group =>   1
Atom  65O    basis set group =>   3
Atom  66O    basis set group =>   3
Atom  67C    basis set group =>   1
Atom  68C    basis set group =>   1
Atom  69C    basis set group =>   1
Atom  70C    basis set group =>   1
Atom  71S    basis set group =>   2
Atom  72C    basis set group =>   1
Atom  73C    basis set group =>   1
Atom  74C    basis set group =>   1
Atom  75C    basis set group =>   1
Atom  76S    basis set group =>   2
Atom  77C    basis set group =>   1
Atom  78O    basis set group =>   3
Atom  79O    basis set group =>   3
Atom  80C    basis set group =>   1
Atom  81C    basis set group =>   1
Atom  82C    basis set group =>   1
Atom  83C    basis set group =>   1
Atom  84C    basis set group =>   1
Atom  85S    basis set group =>   2
Atom  86C    basis set group =>   1
Atom  87Cl   basis set group =>   4
Atom  88H    basis set group =>   5
Atom  89H    basis set group =>   5
Atom  90H    basis set group =>   5
Atom  91H    basis set group =>   5
Atom  92H    basis set group =>   5
Atom  93H    basis set group =>   5
Atom  94H    basis set group =>   5
Atom  95H    basis set group =>   5
Atom  96H    basis set group =>   5
Atom  97H    basis set group =>   5
Atom  98H    basis set group =>   5
Atom  99H    basis set group =>   5
Atom 100H    basis set group =>   5
Atom 101H    basis set group =>   5
Atom 102H    basis set group =>   5
Atom 103H    basis set group =>   5
Atom 104H    basis set group =>   5
Atom 105H    basis set group =>   5
Atom 106H    basis set group =>   5
Atom 107H    basis set group =>   5
Atom 108H    basis set group =>   5
Atom 109H    basis set group =>   5
Atom 110H    basis set group =>   5
Atom 111H    basis set group =>   5
Atom 112H    basis set group =>   5
Atom 113H    basis set group =>   5
Atom 114H    basis set group =>   5
Atom 115H    basis set group =>   5
Atom 116H    basis set group =>   5
Atom 117H    basis set group =>   5
Atom 118H    basis set group =>   5
Atom 119H    basis set group =>   5
Atom 120H    basis set group =>   5
Atom 121H    basis set group =>   5
Atom 122H    basis set group =>   5
Atom 123H    basis set group =>   5
Atom 124H    basis set group =>   5
---------------------------------
AUXILIARY/J BASIS SET INFORMATION
---------------------------------
There are 5 groups of distinct atoms

 Group   1 Type C   : 12s5p4d2f1g contracted to 6s4p3d1f1g pattern {711111/2111/211/2/1}
 Group   2 Type S   : 14s5p5d2f1g contracted to 8s4p3d1f1g pattern {71111111/2111/311/2/1}
 Group   3 Type O   : 12s5p4d2f1g contracted to 6s4p3d1f1g pattern {711111/2111/211/2/1}
 Group   4 Type Cl  : 14s5p5d2f1g contracted to 8s4p3d1f1g pattern {71111111/2111/311/2/1}
 Group   5 Type H   : 5s2p1d contracted to 3s1p1d pattern {311/2/1}

Atom   0C    basis set group =>   1
Atom   1C    basis set group =>   1
Atom   2C    basis set group =>   1
Atom   3C    basis set group =>   1
Atom   4C    basis set group =>   1
Atom   5S    basis set group =>   2
Atom   6C    basis set group =>   1
Atom   7O    basis set group =>   3
Atom   8O    basis set group =>   3
Atom   9C    basis set group =>   1
Atom  10C    basis set group =>   1
Atom  11C    basis set group =>   1
Atom  12C    basis set group =>   1
Atom  13S    basis set group =>   2
Atom  14C    basis set group =>   1
Atom  15C    basis set group =>   1
Atom  16C    basis set group =>   1
Atom  17C    basis set group =>   1
Atom  18S    basis set group =>   2
Atom  19C    basis set group =>   1
Atom  20O    basis set group =>   3
Atom  21O    basis set group =>   3
Atom  22C    basis set group =>   1
Atom  23C    basis set group =>   1
Atom  24C    basis set group =>   1
Atom  25C    basis set group =>   1
Atom  26C    basis set group =>   1
Atom  27S    basis set group =>   2
Atom  28C    basis set group =>   1
Atom  29C    basis set group =>   1
Atom  30C    basis set group =>   1
Atom  31C    basis set group =>   1
Atom  32S    basis set group =>   2
Atom  33C    basis set group =>   1
Atom  34O    basis set group =>   3
Atom  35O    basis set group =>   3
Atom  36C    basis set group =>   1
Atom  37C    basis set group =>   1
Atom  38C    basis set group =>   1
Atom  39C    basis set group =>   1
Atom  40C    basis set group =>   1
Atom  41S    basis set group =>   2
Atom  42C    basis set group =>   1
Atom  43C    basis set group =>   1
Atom  44C    basis set group =>   1
Atom  45C    basis set group =>   1
Atom  46S    basis set group =>   2
Atom  47C    basis set group =>   1
Atom  48O    basis set group =>   3
Atom  49O    basis set group =>   3
Atom  50C    basis set group =>   1
Atom  51C    basis set group =>   1
Atom  52Cl   basis set group =>   4
Atom  53Cl   basis set group =>   4
Atom  54C    basis set group =>   1
Atom  55S    basis set group =>   2
Atom  56C    basis set group =>   1
Atom  57C    basis set group =>   1
Atom  58C    basis set group =>   1
Atom  59C    basis set group =>   1
Atom  60C    basis set group =>   1
Atom  61C    basis set group =>   1
Atom  62C    basis set group =>   1
Atom  63S    basis set group =>   2
Atom  64C    basis set group =>   1
Atom  65O    basis set group =>   3
Atom  66O    basis set group =>   3
Atom  67C    basis set group =>   1
Atom  68C    basis set group =>   1
Atom  69C    basis set group =>   1
Atom  70C    basis set group =>   1
Atom  71S    basis set group =>   2
Atom  72C    basis set group =>   1
Atom  73C    basis set group =>   1
Atom  74C    basis set group =>   1
Atom  75C    basis set group =>   1
Atom  76S    basis set group =>   2
Atom  77C    basis set group =>   1
Atom  78O    basis set group =>   3
Atom  79O    basis set group =>   3
Atom  80C    basis set group =>   1
Atom  81C    basis set group =>   1
Atom  82C    basis set group =>   1
Atom  83C    basis set group =>   1
Atom  84C    basis set group =>   1
Atom  85S    basis set group =>   2
Atom  86C    basis set group =>   1
Atom  87Cl   basis set group =>   4
Atom  88H    basis set group =>   5
Atom  89H    basis set group =>   5
Atom  90H    basis set group =>   5
Atom  91H    basis set group =>   5
Atom  92H    basis set group =>   5
Atom  93H    basis set group =>   5
Atom  94H    basis set group =>   5
Atom  95H    basis set group =>   5
Atom  96H    basis set group =>   5
Atom  97H    basis set group =>   5
Atom  98H    basis set group =>   5
Atom  99H    basis set group =>   5
Atom 100H    basis set group =>   5
Atom 101H    basis set group =>   5
Atom 102H    basis set group =>   5
Atom 103H    basis set group =>   5
Atom 104H    basis set group =>   5
Atom 105H    basis set group =>   5
Atom 106H    basis set group =>   5
Atom 107H    basis set group =>   5
Atom 108H    basis set group =>   5
Atom 109H    basis set group =>   5
Atom 110H    basis set group =>   5
Atom 111H    basis set group =>   5
Atom 112H    basis set group =>   5
Atom 113H    basis set group =>   5
Atom 114H    basis set group =>   5
Atom 115H    basis set group =>   5
Atom 116H    basis set group =>   5
Atom 117H    basis set group =>   5
Atom 118H    basis set group =>   5
Atom 119H    basis set group =>   5
Atom 120H    basis set group =>   5
Atom 121H    basis set group =>   5
Atom 122H    basis set group =>   5
Atom 123H    basis set group =>   5
Atom 124H    basis set group =>   5
------------------------------------------------------------------------------
                           ORCA GTO INTEGRAL CALCULATION
                           -- RI-GTO INTEGRALS CHOSEN --
------------------------------------------------------------------------------

                         BASIS SET STATISTICS AND STARTUP INFO

Gaussian basis set:
 # of primitive gaussian shells          ... 1331
 # of primitive gaussian functions       ... 2551
 # of contracted shells                  ...  669
 # of contracted basis functions         ... 1477
 Highest angular momentum                ...    2
 Maximum contraction depth               ...    5
Auxiliary gaussian basis set:
 # of primitive gaussian shells          ... 2453
 # of primitive gaussian functions       ... 6857
 # of contracted shells                  ... 1535
 # of contracted aux-basis functions     ... 4749
 Highest angular momentum                ...    4
 Maximum contraction depth               ...    7
Ratio of auxiliary to basis functions    ...  3.22
Integral package used                  ... LIBINT
 One Electron integrals                  ... done
 Ordering auxiliary basis shells         ... done
 Integral threshhold             Thresh  ...  2.500e-11
 Primitive cut-off               TCut    ...  2.500e-12
 Pre-screening matrix                    ... done
 Shell pair data                         ... 
 Ordering of the shell pairs             ... done (   0.011 sec) 48173 of 224115 pairs
 Determination of significant pairs      ... done (   0.000 sec)
 Creation of shell pair data             ... done (   0.007 sec)
 Storage of shell pair data              ... done (   0.012 sec)
 Shell pair data done in (   0.030 sec)
 Computing two index integrals           ... done
 Cholesky decomposition of the V-matrix  ... done


Timings:
 Total evaluation time                   ...   3.237 sec (  0.054 min)
 One electron matrix time                ...   0.765 sec (  0.013 min) = 23.6%
 Schwartz matrix evaluation time         ...   1.097 sec (  0.018 min) = 33.9%
 Two index repulsion integral time       ...   0.537 sec (  0.009 min) = 16.6%
 Cholesky decomposition of V             ...   0.789 sec (  0.013 min) = 24.4%
 Three index repulsion integral time     ...   0.000 sec (  0.000 min) =  0.0%

-------------------------------------------------------------------------------
                                 ORCA SCF
-------------------------------------------------------------------------------

------------
SCF SETTINGS
------------
Hamiltonian:
 Density Functional     Method          .... DFT(GTOs)
 Exchange Functional    Exchange        .... WB88
 Correlation Functional Correlation     .... LYP
 LDA part of GGA corr.  LDAOpt          .... VWN-5
 Gradients option       PostSCFGGA      .... off
 Hybrid DFT is turned on
   Fraction HF Exchange ScalHFX         ....  0.190000
   Scaling of DF-GGA-X  ScalDFX         ....  0.350000
   Scaling of DF-GGA-C  ScalDFC         ....  0.810000
   Scaling of DF-LDA-C  ScalLDAC        ....  1.000000
   Perturbative correction              ....  0.000000
   Density functional embedding theory  .... OFF
 Long-range corrected/Screened/Range-Separated Hybrid DFT is turned on
   Amount of maximum screened exact exchange              ....  0.460000
   Range separation parameter mu (erf(mu*r12)/r12)        ....  0.330000
 RI-approximation to the Coulomb term is turned on
   Number of auxiliary basis functions  .... 4749
   RIJ-COSX (HFX calculated with COS-X)).... on


General Settings:
 Integral files         IntName         .... PDCBT-Cl_hexamer
 Hartree-Fock type      HFTyp           .... RHF
 Total Charge           Charge          ....    0
 Multiplicity           Mult            ....    1
 Number of Electrons    NEL             ....  742
 Basis Dimension        Dim             .... 1477
 Nuclear Repulsion      ENuc            ....  16345.0732007347 Eh

Convergence Acceleration:
 DIIS                   CNVDIIS         .... on
   Start iteration      DIISMaxIt       ....    12
   Startup error        DIISStart       ....  0.200000
   # of expansion vecs  DIISMaxEq       ....     5
   Bias factor          DIISBfac        ....   1.050
   Max. coefficient     DIISMaxC        ....  10.000
 Newton-Raphson         CNVNR           .... off
 SOSCF                  CNVSOSCF        .... on
   Start iteration      SOSCFMaxIt      ....   150
   Startup grad/error   SOSCFStart      ....  0.003300
 Level Shifting         CNVShift        .... on
   Level shift para.    LevelShift      ....    0.2500
   Turn off err/grad.   ShiftErr        ....    0.0010
 Zerner damping         CNVZerner       .... off
 Static damping         CNVDamp         .... on
   Fraction old density DampFac         ....    0.7000
   Max. Damping (<1)    DampMax         ....    0.9800
   Min. Damping (>=0)   DampMin         ....    0.0000
   Turn off err/grad.   DampErr         ....    0.1000
 Fernandez-Rico         CNVRico         .... off

SCF Procedure:
 Maximum # iterations   MaxIter         ....   125
 SCF integral mode      SCFMode         .... Direct
   Integral package                     .... LIBINT
 Reset frequency        DirectResetFreq ....    20
 Integral Threshold     Thresh          ....  2.500e-11 Eh
 Primitive CutOff       TCut            ....  2.500e-12 Eh

Convergence Tolerance:
 Convergence Check Mode ConvCheckMode   .... Total+1el-Energy
 Convergence forced     ConvForced      .... 1
 Energy Change          TolE            ....  1.000e-08 Eh
 1-El. energy change                    ....  1.000e-05 Eh
 Orbital Gradient       TolG            ....  1.000e-05
 Orbital Rotation angle TolX            ....  1.000e-05
 DIIS Error             TolErr          ....  5.000e-07


Diagonalization of the overlap matrix:
Smallest eigenvalue                        ... 3.334e-04
Time for diagonalization                   ...    0.605 sec
Threshold for overlap eigenvalues          ... 1.000e-08
Number of eigenvalues below threshold      ... 0
Time for construction of square roots      ...    0.261 sec
Total time needed                          ...    0.873 sec

-------------------
DFT GRID GENERATION
-------------------

General Integration Accuracy     IntAcc      ...  4.670
Radial Grid Type                 RadialGrid  ... Gauss-Chebyshev
Angular Grid (max. acc.)         AngularGrid ... Lebedev-302
Angular grid pruning method      GridPruning ... 3 (G Style)
Weight generation scheme         WeightScheme... Becke
Basis function cutoff            BFCut       ...    1.0000e-11
Integration weight cutoff        WCut        ...    1.0000e-14
Grids for H and He will be reduced by one unit

# of grid points (after initial pruning)     ... 681420 (   1.7 sec)
# of grid points (after weights+screening)   ... 593764 (  41.8 sec)
nearest neighbour list constructed           ...    0.0 sec
Grid point re-assignment to atoms done       ...    0.1 sec
Grid point division into batches done        ...    2.2 sec
Reduced shell lists constructed in    9.2 sec

Total number of grid points                  ...   593764
Total number of batches                      ...     9337
Average number of points per batch           ...       63
Average number of grid points per atom       ...     4750
Average number of shells per batch           ...    78.73 (11.77%)
Average number of basis functions per batch  ...   165.75 (11.22%)
Average number of large shells per batch     ...    49.14 (62.42%)
Average number of large basis fcns per batch ...   104.99 (63.34%)
Maximum spatial batch extension              ...  17.78, 21.83, 23.02 au
Average spatial batch extension              ...   2.03,  2.15,  2.44 au

Time for grid setup =   52.720 sec

------------------------------
INITIAL GUESS: MODEL POTENTIAL
------------------------------
Loading Hartree-Fock densities                     ... done
Calculating cut-offs                               ... done
Setting up the integral package                    ... done
Initializing the effective Hamiltonian             ... done
Starting the Coulomb interaction                   ... done (  11.4 sec)
Reading the grid                                   ... done
Mapping shells                                     ... done
Starting the XC term evaluation                    ... done (   8.3 sec)
  promolecular density results
     # of electrons  =    741.981742409
     EX              =   -802.431474689
     EC              =    -26.605511994
     EX+EC           =   -829.036986683
Transforming the Hamiltonian                       ... done (   0.2 sec)
Diagonalizing the Hamiltonian                      ... done (   0.6 sec)
Back transforming the eigenvectors                 ... done (   0.1 sec)
Now organizing SCF variables                       ... done
                      ------------------
                      INITIAL GUESS DONE (  73.8 sec)
                      ------------------
--------------------
COSX GRID GENERATION
--------------------

General Integration Accuracy     IntAcc      ...  3.340
Radial Grid Type                 RadialGrid  ... Gauss-Chebyshev
Angular Grid (max. acc.)         AngularGrid ... Lebedev-50
Angular grid pruning method      GridPruning ... 3 (G Style)
Weight generation scheme         WeightScheme... Becke
Basis function cutoff            BFCut       ...    1.0000e-11
Integration weight cutoff        WCut        ...    1.0000e-14
Grids for H and He will be reduced by one unit

# of grid points (after initial pruning)     ...  64770 (   0.1 sec)
# of grid points (after weights+screening)   ...  58830 (   4.0 sec)
nearest neighbour list constructed           ...    0.0 sec
Grid point re-assignment to atoms done       ...    0.0 sec
Grid point division into batches done        ...    0.0 sec
Reduced shell lists constructed in    1.0 sec

Total number of grid points                  ...    58830
Total number of batches                      ...      982
Average number of points per batch           ...       59
Average number of grid points per atom       ...      471
Average number of shells per batch           ...    96.66 (14.45%)
Average number of basis functions per batch  ...   205.43 (13.91%)
Average number of large shells per batch     ...    60.72 (62.82%)
Average number of large basis fcns per batch ...   131.64 (64.08%)
Maximum spatial batch extension              ...  16.94, 22.22, 35.81 au
Average spatial batch extension              ...   3.77,  4.18,  6.18 au

Overlap Fitting                  UseSFitting ... on
Constructing numerical overlap ... done (      0.5 sec)
Inverting numerical overlap    ... done (      0.1 sec)
Obtaining analytic overlap     ... done (      0.0 sec)
Final contraction and storage  ... done (      0.1 sec)


General Integration Accuracy     IntAcc      ...  3.670
Radial Grid Type                 RadialGrid  ... Gauss-Chebyshev
Angular Grid (max. acc.)         AngularGrid ... Lebedev-50
Angular grid pruning method      GridPruning ... 3 (G Style)
Weight generation scheme         WeightScheme... Becke
Basis function cutoff            BFCut       ...    1.0000e-11
Integration weight cutoff        WCut        ...    1.0000e-14
Grids for H and He will be reduced by one unit

# of grid points (after initial pruning)     ...  80936 (   0.1 sec)
# of grid points (after weights+screening)   ...  73239 (   4.9 sec)
nearest neighbour list constructed           ...    0.0 sec
Grid point re-assignment to atoms done       ...    0.0 sec
Grid point division into batches done        ...    0.0 sec
Reduced shell lists constructed in    1.1 sec

Total number of grid points                  ...    73239
Total number of batches                      ...     1209
Average number of points per batch           ...       60
Average number of grid points per atom       ...      586
Average number of shells per batch           ...    94.68 (14.15%)
Average number of basis functions per batch  ...   201.04 (13.61%)
Average number of large shells per batch     ...    59.34 (62.67%)
Average number of large basis fcns per batch ...   128.46 (63.90%)
Maximum spatial batch extension              ...  18.30, 23.49, 39.19 au
Average spatial batch extension              ...   3.49,  3.89,  5.64 au

Overlap Fitting                  UseSFitting ... on
Constructing numerical overlap ... done (      0.6 sec)
Inverting numerical overlap    ... done (      0.1 sec)
Obtaining analytic overlap     ... done (      0.0 sec)
Final contraction and storage  ... done (      0.1 sec)


General Integration Accuracy     IntAcc      ...  4.010
Radial Grid Type                 RadialGrid  ... Gauss-Chebyshev
Angular Grid (max. acc.)         AngularGrid ... Lebedev-110
Angular grid pruning method      GridPruning ... 3 (G Style)
Weight generation scheme         WeightScheme... Becke
Basis function cutoff            BFCut       ...    1.0000e-11
Integration weight cutoff        WCut        ...    1.0000e-14
Grids for H and He will be reduced by one unit

# of grid points (after initial pruning)     ... 155880 (   0.3 sec)
# of grid points (after weights+screening)   ... 139452 (   9.5 sec)
nearest neighbour list constructed           ...    0.0 sec
Grid point re-assignment to atoms done       ...    0.0 sec
Grid point division into batches done        ...    0.1 sec
Reduced shell lists constructed in    2.0 sec

Total number of grid points                  ...   139452
Total number of batches                      ...     2241
Average number of points per batch           ...       62
Average number of grid points per atom       ...     1116
Average number of shells per batch           ...    89.45 (13.37%)
Average number of basis functions per batch  ...   189.56 (12.83%)
Average number of large shells per batch     ...    56.32 (62.97%)
Average number of large basis fcns per batch ...   121.44 (64.06%)
Maximum spatial batch extension              ...  17.48, 20.16, 24.29 au
Average spatial batch extension              ...   3.02,  3.29,  4.26 au

Overlap Fitting                  UseSFitting ... on
Constructing numerical overlap ... done (      1.0 sec)
Inverting numerical overlap    ... done (      0.1 sec)
Obtaining analytic overlap     ... done (      0.0 sec)
Final contraction and storage  ... done (      0.1 sec)

Time for X-Grid setup             =   25.686 sec
--------------
SCF ITERATIONS
--------------
ITER       Energy         Delta-E        Max-DP      RMS-DP      [F,P]     Damp
               ***  Starting incremental Fock matrix formation  ***
  0  -9400.7424130593   0.000000000000 0.08318857  0.00083539  0.2480993 0.7000
  1  -9401.5618942327  -0.819481173439 0.05203412  0.00057967  0.1111508 0.7000
                               ***Turning on DIIS***
  2  -9401.9143574364  -0.352463203628 0.10005482  0.00101022  0.0417186 0.0000
  3  -9402.4456401763  -0.531282739918 0.04068486  0.00043158  0.0584527 0.0000
  4  -9402.5727091153  -0.127068939037 0.01011384  0.00012834  0.0108787 0.0000
  5  -9402.5788554104  -0.006146295098 0.00627398  0.00005451  0.0109288 0.0000
                      *** Initiating the SOSCF procedure ***
                           *** Shutting down DIIS ***
                      *** Re-Reading the Fockian *** 
                      *** Removing any level shift *** 
ITER      Energy       Delta-E        Grad      Rot      Max-DP    RMS-DP
  6  -9402.58050774  -0.0016523322  0.001221  0.001221  0.002788  0.000026
               *** Restarting incremental Fock matrix formation ***
  7  -9402.58082850  -0.0003207603  0.000749  0.003509  0.001590  0.000022
  8  -9402.58099165  -0.0001631435  0.000260  0.003638  0.002030  0.000024
  9  -9402.58101426  -0.0000226167  0.000289  0.001120  0.000763  0.000009
 10  -9402.58104436  -0.0000300943  0.000077  0.000310  0.000430  0.000004
 11  -9402.58104366   0.0000006992  0.000105  0.000231  0.000226  0.000002
 12  -9402.58104609  -0.0000024296  0.000012  0.000056  0.000084  0.000001
 13  -9402.58104609  -0.0000000053  0.000013  0.000027  0.000044  0.000000
 14  -9402.58104621  -0.0000001153  0.000003  0.000023  0.000015  0.000000
 15  -9402.58104623  -0.0000000171  0.000003  0.000010  0.000008  0.000000
                  ***Gradient check signals convergence***
              ***Rediagonalizing the Fockian in SOSCF/NRSCF***

               *****************************************************
               *                     SUCCESS                       *
               *           SCF CONVERGED AFTER  16 CYCLES          *
               *****************************************************

Setting up the final grid:

General Integration Accuracy     IntAcc      ...  5.010
Radial Grid Type                 RadialGrid  ... Gauss-Chebyshev
Angular Grid (max. acc.)         AngularGrid ... Lebedev-434
Angular grid pruning method      GridPruning ... 3 (G Style)
Weight generation scheme         WeightScheme... Becke
Basis function cutoff            BFCut       ...    1.0000e-11
Integration weight cutoff        WCut        ...    1.0000e-14
Grids for H and He will be reduced by one unit

# of grid points (after initial pruning)     ... 1206818 (   2.4 sec)
# of grid points (after weights+screening)   ... 1049084 (  74.9 sec)
nearest neighbour list constructed           ...    0.0 sec
Grid point re-assignment to atoms done       ...    0.2 sec
Grid point division into batches done        ...    7.2 sec
Reduced shell lists constructed in   18.8 sec

Total number of grid points                  ...  1049084
Total number of batches                      ...    16458
Average number of points per batch           ...       63
Average number of grid points per atom       ...     8393
Average number of shells per batch           ...    75.82 (11.33%)
Average number of basis functions per batch  ...   159.24 (10.78%)
Average number of large shells per batch     ...    47.21 (62.26%)
Average number of large basis fcns per batch ...   100.55 (63.14%)
Maximum spatial batch extension              ...  19.78, 22.54, 24.04 au
Average spatial batch extension              ...   1.68,  1.76,  1.95 au

Final grid set up in   96.1 sec
Final integration                            ... done (  22.2 sec)
Change in XC energy                          ...    -0.000202020
Integrated number of electrons               ...   741.999964882
Previous integrated no of electrons          ...   741.999907392
Old exchange energy                            =   -212.782985321 Eh
New exchange energy                            =   -212.776943628 Eh
Exchange energy change after final integration =      0.006041693 Eh
Total energy after final integration           =  -9402.575206582 Eh
Final COS-X integration done in                =   478.775 sec

----------------
TOTAL SCF ENERGY
----------------

Total Energy       :        -9402.57520658 Eh         -255857.07889 eV

Components:
Nuclear Repulsion  :        16345.07320073 Eh          444772.05357 eV
Electronic Energy  :       -25747.64840732 Eh         -700629.13246 eV
One Electron Energy:       -45514.95495062 Eh        -1238524.88959 eV
Two Electron Energy:        19767.30654330 Eh          537895.75714 eV

Virial components:
Potential Energy   :       -18762.08019582 Eh         -510542.15759 eV
Kinetic Energy     :         9359.50498924 Eh          254685.07870 eV
Virial Ratio       :            2.00460176


DFT components:
N(Alpha)           :      370.999982440809 electrons
N(Beta)            :      370.999982440809 electrons
N(Total)           :      741.999964881618 electrons
E(XC)              :     -627.214386669639 Eh       
DFET-embed. en.    :        0.000000000000 Eh       

---------------
SCF CONVERGENCE
---------------

  Last Energy change         ...   -2.9435e-08  Tolerance :   1.0000e-08
  Last MAX-Density change    ...    1.0658e-14  Tolerance :   1.0000e-07
  Last RMS-Density change    ...    3.9077e-17  Tolerance :   5.0000e-09
  Last Orbital Gradient      ...    1.2553e-06  Tolerance :   1.0000e-05
  Last Orbital Rotation      ...    1.0804e-05  Tolerance :   1.0000e-05

             **** THE GBW FILE WAS UPDATED (PDCBT-Cl_hexamer.gbw) ****
             **** DENSITY FILE WAS UPDATED (PDCBT-Cl_hexamer.scfp) ****
             **** ENERGY FILE WAS UPDATED (PDCBT-Cl_hexamer.en.tmp) ****
             **** THE GBW FILE WAS UPDATED (PDCBT-Cl_hexamer.gbw) ****
             **** DENSITY FILE WAS UPDATED (PDCBT-Cl_hexamer.scfp) ****
----------------
ORBITAL ENERGIES
----------------

  NO   OCC          E(Eh)            E(eV) 
   0   2.0000    -101.596363     -2764.5776 
   1   2.0000    -101.596334     -2764.5768 
   2   2.0000    -101.587349     -2764.3323 
   3   2.0000     -88.964974     -2420.8600 
   4   2.0000     -88.964462     -2420.8461 
   5   2.0000     -88.964358     -2420.8433 
   6   2.0000     -88.964209     -2420.8392 
   7   2.0000     -88.962005     -2420.7792 
   8   2.0000     -88.961830     -2420.7745 
   9   2.0000     -88.961395     -2420.7626 
  10   2.0000     -88.960289     -2420.7325 
  11   2.0000     -88.959981     -2420.7241 
  12   2.0000     -88.955604     -2420.6050 
  13   2.0000     -88.954933     -2420.5868 
  14   2.0000     -88.952366     -2420.5169 
  15   2.0000     -19.269319      -524.3448 
  16   2.0000     -19.268307      -524.3173 
  17   2.0000     -19.265424      -524.2388 
  18   2.0000     -19.262388      -524.1562 
  19   2.0000     -19.259861      -524.0875 
  20   2.0000     -19.258567      -524.0522 
  21   2.0000     -19.205083      -522.5969 
  22   2.0000     -19.205040      -522.5957 
  23   2.0000     -19.201564      -522.5011 
  24   2.0000     -19.200022      -522.4592 
  25   2.0000     -19.198874      -522.4279 
  26   2.0000     -19.197481      -522.3900 
  27   2.0000     -10.404672      -283.1255 
  28   2.0000     -10.404173      -283.1119 
  29   2.0000     -10.401594      -283.0418 
  30   2.0000     -10.399410      -282.9823 
  31   2.0000     -10.398353      -282.9536 
  32   2.0000     -10.396261      -282.8967 
  33   2.0000     -10.328848      -281.0622 
  34   2.0000     -10.328450      -281.0514 
  35   2.0000     -10.327836      -281.0347 
  36   2.0000     -10.327744      -281.0322 
  37   2.0000     -10.327334      -281.0210 
  38   2.0000     -10.325989      -280.9845 
  39   2.0000     -10.324834      -280.9530 
  40   2.0000     -10.323926      -280.9283 
  41   2.0000     -10.323122      -280.9064 
  42   2.0000     -10.322934      -280.9013 
  43   2.0000     -10.321599      -280.8650 
  44   2.0000     -10.321354      -280.8583 
  45   2.0000     -10.320773      -280.8425 
  46   2.0000     -10.318600      -280.7834 
  47   2.0000     -10.318499      -280.7806 
  48   2.0000     -10.317985      -280.7667 
  49   2.0000     -10.314960      -280.6843 
  50   2.0000     -10.313234      -280.6374 
  51   2.0000     -10.313078      -280.6331 
  52   2.0000     -10.312301      -280.6120 
  53   2.0000     -10.311614      -280.5933 
  54   2.0000     -10.311544      -280.5914 
  55   2.0000     -10.310028      -280.5501 
  56   2.0000     -10.309979      -280.5488 
  57   2.0000     -10.308373      -280.5051 
  58   2.0000     -10.307786      -280.4891 
  59   2.0000     -10.306841      -280.4634 
  60   2.0000     -10.305749      -280.4337 
  61   2.0000     -10.305129      -280.4168 
  62   2.0000     -10.305077      -280.4154 
  63   2.0000     -10.304676      -280.4045 
  64   2.0000     -10.302883      -280.3557 
  65   2.0000     -10.292078      -280.0617 
  66   2.0000     -10.291164      -280.0368 
  67   2.0000     -10.290029      -280.0059 
  68   2.0000     -10.288313      -279.9592 
  69   2.0000     -10.287095      -279.9261 
  70   2.0000     -10.287012      -279.9238 
  71   2.0000     -10.286748      -279.9167 
  72   2.0000     -10.285266      -279.8763 
  73   2.0000     -10.282262      -279.7946 
  74   2.0000     -10.280537      -279.7476 
  75   2.0000     -10.279258      -279.7128 
  76   2.0000     -10.279155      -279.7100 
  77   2.0000     -10.279098      -279.7085 
  78   2.0000     -10.277706      -279.6706 
  79   2.0000     -10.277316      -279.6600 
[...]
B( 61-C , 62-C ) :   1.5080 B( 61-C ,113-H ) :   1.0016 B( 62-C , 63-S ) :   1.0980 
B( 62-C , 75-C ) :   1.1394 B( 64-C , 65-O ) :   1.1919 B( 64-C , 66-O ) :   2.1304 
B( 65-O , 67-C ) :   0.9085 B( 67-C ,114-H ) :   0.9826 B( 67-C ,115-H ) :   0.9682 
B( 67-C ,116-H ) :   0.9745 B( 68-C , 69-C ) :   1.4574 B( 68-C , 71-S ) :   1.1195 
B( 68-C , 72-C ) :   1.1610 B( 69-C , 70-C ) :   1.2715 B( 69-C ,117-H ) :   0.9912 
B( 70-C , 86-C ) :   1.5202 B( 70-C , 87-Cl) :   1.0259 B( 71-S , 86-C ) :   1.1049 
B( 72-C , 73-C ) :   1.4654 B( 72-C , 76-S ) :   1.1464 B( 73-C , 74-C ) :   1.2402 
B( 73-C , 77-C ) :   0.9329 B( 74-C , 75-C ) :   1.5112 B( 74-C ,118-H ) :   1.0019 
B( 75-C , 76-S ) :   1.0979 B( 77-C , 78-O ) :   1.1860 B( 77-C , 79-O ) :   2.1314 
B( 78-O , 80-C ) :   0.9060 B( 80-C ,119-H ) :   0.9829 B( 80-C ,120-H ) :   0.9761 
B( 80-C ,121-H ) :   0.9700 B( 81-C , 82-C ) :   1.5738 B( 81-C , 85-S ) :   1.1563 
B( 81-C ,122-H ) :   0.9741 B( 82-C , 83-C ) :   1.2511 B( 82-C ,123-H ) :   0.9945 
B( 83-C , 84-C ) :   1.5446 B( 83-C ,124-H ) :   0.9884 B( 84-C , 85-S ) :   1.1274 
B( 84-C , 86-C ) :   1.1282 

-------
TIMINGS
-------

Total SCF time: 0 days 1 hours 13 min 46 sec 

Total time                  ....    4426.949 sec
Sum of individual times     ....    4419.084 sec  ( 99.8%)

Fock matrix formation       ....    4202.579 sec  ( 94.9%)
  Split-RI-J                ....     419.420 sec  ( 10.0% of F)
  Chain of spheres X        ....    3587.279 sec  ( 85.4% of F)
  COS-X 1 center corr.      ....       0.000 sec  (  0.0% of F)
  XC integration            ....     193.746 sec  (  4.6% of F)
    Basis function eval.    ....      56.600 sec  ( 29.2% of XC)
    Density eval.           ....      40.999 sec  ( 21.2% of XC)
    XC-Functional eval.     ....      54.674 sec  ( 28.2% of XC)
    XC-Potential eval.      ....      35.688 sec  ( 18.4% of XC)
Diagonalization             ....       6.737 sec  (  0.2%)
Density matrix formation    ....       4.932 sec  (  0.1%)
Population analysis         ....       0.565 sec  (  0.0%)
Initial guess               ....      21.099 sec  (  0.5%)
Orbital Transformation      ....       0.000 sec  (  0.0%)
Orbital Orthonormalization  ....       0.000 sec  (  0.0%)
DIIS solution               ....       2.261 sec  (  0.1%)
SOSCF solution              ....       6.374 sec  (  0.1%)
Grid generation             ....     174.538 sec  (  3.9%)

---------------------------------------------------------------------------------

                       ORCA sTD-DFT CALCULATION

                       please cite in your paper           
 orginal sTDA method:  S. Grimme, J. Chem. Phys. 138, 244104 (2013)           
 range-separated sTDA: T. Risthaus, A. Hansen, S. Grimme, Phys. Chem. Chem. Phys.
                       16, 14408-14419 (2014) 
 sTD-DFT approach:     C. Bannwarth, S. Grimme, Comp. Theor. Chem. 
                       1040-1041, 45-53 (2014)

---------------------------------------------------------------------------------


spectral range up to (eV)      ...    5.000000
occ. MO cut-off (eV)           ...   -14.965103
virt. MO cut-off (eV)          ...    6.899076
perturbation threshold         ...   1.000e-04 
MOs in sTD-DFT                 ...         215 
occ. MOs in sTD-DFT            ...         117 
virt. in sTD-DFT               ...          98 
calculate triplets           ...   no  

Calculating the dipole lengths integrals ... 
Transforming integrals ... 
Calculating the dipole velocity integrals ... 
Transforming integrals ... 
Calculating magnetic dipole integrals ... 
Transforming integrals ... 

SCF atom population (using active MOs):

   2.707   2.102   1.948   2.145   2.057   3.651   1.257   2.542   4.315   1.805
   1.978   2.149   2.003   3.512   2.011   1.940   2.180   2.036   3.668   1.176
   2.217   3.964   1.703   2.077   2.208   2.164   2.061   3.523   2.003   1.950
   2.179   2.032   3.660   1.222   2.367   4.237   1.772   2.021   1.978   2.143
   2.005   3.511   1.996   1.945   2.183   2.030   3.654   1.188   2.202   4.027
   1.696   2.023   4.553   4.559   2.061   3.522   2.077   2.212   2.169   2.015
   1.953   2.190   2.042   3.668   1.224   2.392   4.225   1.782   1.975   2.161
   2.037   3.505   2.010   1.960   2.228   2.054   3.672   1.196   2.212   4.064
   1.714   2.259   2.167   2.156   2.104   3.633   2.028   4.630   0.625   0.624
   0.623   0.491   0.474   0.566   0.476   0.498   0.487   0.472   0.469   0.524
   0.472   0.433   0.506   0.472   0.485   0.545   0.495   0.494   0.470   0.474
   0.519   0.474   0.436   0.512   0.462   0.500   0.549   0.502   0.524   0.460
   0.524   0.493   0.435   0.447   0.452

Number of electrons in sTDA:  234.000

ax(DF)   :  0.3800
s^k      :  2.0000
beta  (J):  1.8600
alpha (K):  0.9000

hardness table read
setting up gammas ...
computing q(ij,n)
memory needed for q data:            16.5 MB 
memory available for q data:       2470.6 MB 

CSF included by energy:           19 
CSF considered in PT2:         11447 

ordered frontier orbitals
           eV         # centers 
 106      -8.707       5.4
 107      -8.693      15.1
 108      -8.629       7.9
 109      -8.613       9.7
 110      -8.440       4.9
 111      -8.229      39.5
 112      -7.741      40.7
 113      -7.253      37.0
 114      -6.817      37.1
 115      -6.405      41.1
 116      -6.141      40.9

 117      -1.925      42.3
 118      -1.673      46.6
 119      -1.361      32.9
 120      -0.933      43.1
 121      -0.632      43.2
 122      -0.184      11.5
 123       0.152      20.7
 124       0.373      33.4
 125       0.538      38.0
 126       0.622      29.6
 127       0.783      31.3

           eV        nm       excitation i->a                     eV 
   0      2.76     448.5   116 -> 117      gap,J,K:    4.216     1.695     0.122
   1      3.25     381.6   116 -> 118      gap,J,K:    4.468     1.479     0.130
   2      3.27     379.4   115 -> 117      gap,J,K:    4.480     1.452     0.120
   3      3.54     350.7   115 -> 118      gap,J,K:    4.732     1.492     0.147
   4      3.59     345.6   116 -> 119      gap,J,K:    4.779     1.461     0.135
   5      3.77     328.9   114 -> 117      gap,J,K:    4.892     1.374     0.126
   6      3.94     314.9   115 -> 119      gap,J,K:    5.044     1.376     0.135
   7      4.00     310.1   116 -> 120      gap,J,K:    5.208     1.510     0.151
   8      4.05     306.0   114 -> 118      gap,J,K:    5.144     1.341     0.124
   9      4.16     298.0   113 -> 117      gap,J,K:    5.328     1.442     0.137
  10      4.20     295.2   116 -> 121      gap,J,K:    5.509     1.635     0.163
  11      4.26     290.8   114 -> 119      gap,J,K:    5.455     1.545     0.176
  12      4.31     287.9   115 -> 120      gap,J,K:    5.472     1.462     0.148
  13      4.43     279.7   113 -> 118      gap,J,K:    5.580     1.420     0.136
  14      4.60     269.5   115 -> 121      gap,J,K:    5.773     1.401     0.114
  15      4.64     267.1   112 -> 117      gap,J,K:    5.816     1.463     0.144
  16      4.78     259.2   114 -> 120      gap,J,K:    5.883     1.310     0.105
  17      4.86     255.3   113 -> 119      gap,J,K:    5.892     1.228     0.097
  18      4.92     251.8   112 -> 118      gap,J,K:    6.068     1.398     0.127

average / max PT2 energy lowering (eV):       0.054       0.072

CSF included by PT:                    85 
total number of CSF included:         104 
 
sTD-DFT procedure...
setting up A+B and A-B matrices...  done
estimated time (min):    0.000
calculating (A-B)^0.5 ... done
calculating (A+B)*(A-B)^0.5 ... done
calculating (A-B)^0.5 *(A+B)*(A-B)^0.5 ... done
diagonalizing ...using LAPACKE_ssyevr ...done

   23 roots found, lowest/highest eigenvalue :     2.382     4.985

excitation energies, transition moments and amplitudes

molecular weight: 1453.034
state   eV        nm        fL         fV        Rl        RV
   0   2.382     520.5   4.076803   4.430874  36.584194  39.324943     0.77 ( 116-> 117)    0.14 ( 115-> 118)    0.03 ( 114-> 119)
   1   2.693     460.3   0.006300   0.005946   7.946800   7.908405     0.47 ( 116-> 118)    0.40 ( 115-> 117)    0.05 ( 115-> 119)
   2   3.047     407.0   0.462832   0.471368   1.513341   1.232498     0.44 ( 116-> 119)    0.28 ( 115-> 118)    0.13 ( 114-> 117)
   3   3.238     383.0   0.009047   0.008933  -1.714188  -1.693192     0.38 ( 115-> 117)    0.23 ( 116-> 118)    0.18 ( 115-> 119)
   4   3.406     364.0   0.009920   0.009740  -19.712275  -18.277873     0.27 ( 116-> 120)    0.16 ( 115-> 119)    0.15 ( 114-> 118)
   5   3.478     356.5   0.009916   0.009253  -2.373880  -1.512139     0.36 ( 114-> 117)    0.21 ( 116-> 119)    0.11 ( 114-> 118)
   6   3.670     337.8   0.009201   0.008645  -1.838496  -2.132049     0.30 ( 116-> 120)    0.28 ( 113-> 117)    0.16 ( 114-> 118)
   7   3.677     337.2   0.061163   0.058829  -10.600754  -15.680197     0.46 ( 116-> 121)    0.30 ( 115-> 120)    0.14 ( 114-> 119)
   8   3.823     324.3   0.142463   0.139632   7.096758   6.788893     0.26 ( 115-> 118)    0.17 ( 116-> 117)    0.15 ( 114-> 117)
   9   3.918     316.4   0.108850   0.098687  -8.959478  -7.098726     0.22 ( 113-> 118)    0.18 ( 114-> 119)    0.18 ( 112-> 117)
  10   4.136     299.8   0.000811   0.001134   4.216463   4.300418     0.35 ( 115-> 119)    0.13 ( 116-> 118)    0.09 ( 113-> 117)
  11   4.189     296.0   0.010603   0.008846  22.469074  20.102533     0.22 ( 113-> 119)    0.15 ( 114-> 120)    0.09 ( 113-> 117)
  12   4.222     293.6   0.008857   0.007363   8.452198   7.405097     0.28 ( 114-> 118)    0.16 ( 113-> 117)    0.14 ( 112-> 118)
  13   4.395     282.1   0.052711   0.045619   6.335628   5.720277     0.19 ( 115-> 120)    0.11 ( 116-> 121)    0.10 ( 116-> 122)
  14   4.435     279.5   0.003339   0.002233   3.246926   1.314476     0.15 ( 115-> 121)    0.11 ( 115-> 120)    0.09 ( 115-> 122)
  15   4.533     273.5   0.074864   0.066033   1.741563   2.251585     0.20 ( 114-> 119)    0.18 ( 112-> 117)    0.07 ( 112-> 118)
  16   4.543     272.9   0.046445   0.036019  -10.157009  -10.024542     0.32 ( 115-> 122)    0.15 ( 116-> 122)    0.08 ( 115-> 121)
  17   4.667     265.6   0.030903   0.027167   2.386007   3.160400     0.30 ( 113-> 118)    0.21 ( 112-> 117)    0.14 ( 114-> 117)
  18   4.687     264.5   0.028964   0.025340  -7.897262  -9.135280     0.21 ( 112-> 119)    0.15 ( 114-> 121)    0.14 ( 113-> 120)
  19   4.748     261.1   0.008107   0.005684  14.600201  12.505726     0.24 ( 115-> 123)    0.19 ( 116-> 123)    0.07 ( 116-> 124)
  20   4.864     254.9   0.006361   0.004138  23.253056  28.983321     0.17 ( 114-> 120)    0.09 ( 113-> 121)    0.09 ( 113-> 120)
  21   4.891     253.5   0.001694   0.003210  13.145143   6.460255     0.17 ( 113-> 119)    0.12 ( 116-> 124)    0.08 ( 116-> 123)
  22   4.985     248.7   0.013700   0.009394  -9.537968  -10.188977     0.16 ( 116-> 125)    0.13 ( 116-> 124)    0.08 ( 116-> 127)

-----------------------------------------------------------------------------
         ABSORPTION SPECTRUM VIA TRANSITION ELECTRIC DIPOLE MOMENTS
-----------------------------------------------------------------------------
State   Energy  Wavelength   fosc         T2         TX        TY        TZ  
        (cm-1)    (nm)                  (au**2)     (au)      (au)      (au) 
-----------------------------------------------------------------------------
   0   19211.3    520.5   4.076802804  69.86178   8.06559  -2.19022   0.10500
   1   21724.0    460.3   0.006299954   0.09547  -0.26554  -0.13427   0.08326
   2   24572.9    407.0   0.462832357   6.20072  -2.38154   0.72687   0.02566
   3   26112.3    383.0   0.009047254   0.11406  -0.29973   0.15564  -0.00157
   4   27473.8    364.0   0.009919518   0.11886  -0.29698  -0.16257   0.06508
   5   28051.2    356.5   0.009916032   0.11638   0.31304  -0.13559   0.00072
   6   29599.5    337.8   0.009200694   0.10233   0.31889  -0.02532  -0.00031
   7   29656.9    337.2   0.061163308   0.67895   0.80682  -0.15031  -0.07349
   8   30835.9    324.3   0.142463431   1.52098  -1.22621   0.12401  -0.04480
   9   31601.4    316.4   0.108849663   1.13396  -1.03947   0.22374   0.05836
  10   33357.5    299.8   0.000810859   0.00800   0.07240  -0.04300   0.03019
  11   33787.7    296.0   0.010603048   0.10331   0.10126   0.30503  -0.00401
  12   34055.5    293.6   0.008856901   0.08562  -0.25563  -0.14209   0.00918
  13   35445.9    282.1   0.052711198   0.48957   0.58007  -0.39102  -0.01387
  14   35772.7    279.5   0.003338609   0.03072   0.09936  -0.14440   0.00182
  15   36564.1    273.5   0.074864452   0.67406   0.79657  -0.19673   0.02883
  16   36641.1    272.9   0.046445447   0.41730  -0.53852   0.35449   0.04047
  17   37644.6    265.6   0.030903011   0.27026   0.47892  -0.20097   0.02253
  18   37805.8    264.5   0.028963919   0.25222   0.34720  -0.36027  -0.04328
  19   38292.3    261.1   0.008107115   0.06970   0.21582  -0.14257  -0.05286
  20   39233.1    254.9   0.006360823   0.05337   0.17103  -0.13463  -0.07746
  21   39450.7    253.5   0.001694405   0.01414   0.10922   0.03526   0.03110
  22   40204.0    248.7   0.013699723   0.11218   0.05870  -0.32890   0.02372

-----------------------------------------------------------------------------
         ABSORPTION SPECTRUM VIA TRANSITION VELOCITY DIPOLE MOMENTS
-----------------------------------------------------------------------------
State   Energy  Wavelength   fosc         P2         PX        PY        PZ  
        (cm-1)    (nm)                  (au**2)     (au)      (au)      (au) 
-----------------------------------------------------------------------------
   0   19211.3    520.5   4.430873649   0.58177   0.73602  -0.19987   0.01000
   1   21724.0    460.3   0.005945700   0.00088  -0.02462  -0.01417   0.00870
   2   24572.9    407.0   0.471367902   0.07916  -0.26908   0.08217   0.00245
   3   26112.3    383.0   0.008933197   0.00159  -0.03540   0.01847  -0.00027
   4   27473.8    364.0   0.009739545   0.00183  -0.03654  -0.02091   0.00749
   5   28051.2    356.5   0.009252849   0.00177   0.03969  -0.01409   0.00030
   6   29599.5    337.8   0.008644656   0.00175   0.04176  -0.00225  -0.00021
   7   29656.9    337.2   0.058829276   0.01192   0.10568  -0.02557  -0.01013
   8   30835.9    324.3   0.139631829   0.02943  -0.17020   0.02056  -0.00608
   9   31601.4    316.4   0.098687122   0.02131  -0.14263   0.03029   0.00742
  10   33357.5    299.8   0.001133561   0.00026   0.01349  -0.00742   0.00463
  11   33787.7    296.0   0.008846430   0.00204   0.01186   0.04361  -0.00079
  12   34055.5    293.6   0.007362833   0.00171  -0.03617  -0.02008   0.00150
  13   35445.9    282.1   0.045618615   0.01105   0.09010  -0.05413  -0.00214
  14   35772.7    279.5   0.002232884   0.00055   0.01863  -0.01408   0.00090
  15   36564.1    273.5   0.066032999   0.01650   0.12401  -0.03325   0.00411
  16   36641.1    272.9   0.036018594   0.00902  -0.07636   0.05606   0.00689
  17   37644.6    265.6   0.027166861   0.00699   0.07562  -0.03547   0.00371
  18   37805.8    264.5   0.025339739   0.00655   0.05337  -0.06044  -0.00684
  19   38292.3    261.1   0.005684258   0.00149   0.03090  -0.02158  -0.00818
  20   39233.1    254.9   0.004138119   0.00111   0.02721  -0.01445  -0.01266
  21   39450.7    253.5   0.003209712   0.00087   0.02209   0.01862   0.00554
  22   40204.0    248.7   0.009394482   0.00258   0.00809  -0.04996   0.00440

-------------------------------------------------------------------
                             CD SPECTRUM
-------------------------------------------------------------------
State   Energy Wavelength       R         MX        MY        MZ   
        (cm-1)   (nm)       (1e40*cgs)   (au)      (au)      (au)  
-------------------------------------------------------------------
   0   19211.3    520.5     36.58419   0.07852   0.31001  -1.04293
   1   21724.0    460.3      7.94680   0.07227   0.16990   0.09958
   2   24572.9    407.0      1.51334   0.03351   0.11160  -0.30167
   3   26112.3    383.0     -1.71419  -0.00363   0.04071   0.09694
   4   27473.8    364.0    -19.71228   0.02356  -0.06449   1.23138
   5   28051.2    356.5     -2.37388  -0.03458  -0.15358   0.09876
   6   29599.5    337.8     -1.83850   0.03099   0.08966  -0.61451
   7   29656.9    337.2    -10.60075  -0.10219  -0.45763  -0.79786
   8   30835.9    324.3      7.09676  -0.01967  -0.00834   1.18729
   9   31601.4    316.4     -8.95948   0.11382   0.37676   1.23414
  10   33357.5    299.8      4.21646   0.09480   0.30986  -0.37852
  11   33787.7    296.0     22.46907  -0.07054  -0.30800  -1.43837
  12   34055.5    293.6      8.45220   0.05134   0.22266   0.97054
  13   35445.9    282.1      6.33563  -0.00295   0.03743   0.75942
  14   35772.7    279.5      3.24693   0.04457   0.12668   0.04904
  15   36564.1    273.5      1.74156   0.05727   0.21854  -0.34749
  16   36641.1    272.9    -10.15701   0.06257   0.27873  -0.54428
  17   37644.6    265.6      2.38601   0.06263   0.18118  -0.16446
  18   37805.8    264.5     -7.89726  -0.13166  -0.33680   0.97344
  19   38292.3    261.1     14.60020  -0.27461  -0.74352   2.05597
  20   39233.1    254.9     23.25306  -0.31797  -0.80644   1.97297
  21   39450.7    253.5     13.14514   0.12106   0.37953  -2.64853
  22   40204.0    248.7     -9.53797  -0.02113   0.03097   2.18758

sTD-DFT done

Total run time:        7.400 sec

           *** ORCA-CIS/TD-DFT FINISHED WITHOUT ERROR ***

-------------------------   --------------------
FINAL SINGLE POINT ENERGY     -9402.575206581614
-------------------------   --------------------


                            ***************************************
                            *     ORCA property calculations      *
                            ***************************************

                                    ---------------------
                                    Active property flags
                                    ---------------------
   (+) Dipole Moment


------------------------------------------------------------------------------
                       ORCA ELECTRIC PROPERTIES CALCULATION
------------------------------------------------------------------------------

Dipole Moment Calculation                       ... on
Quadrupole Moment Calculation                   ... off
Polarizability Calculation                      ... off
GBWName                                         ... PDCBT-Cl_hexamer.gbw
Electron density file                           ... PDCBT-Cl_hexamer.scfp
The origin for moment calculation is the CENTER OF MASS  = (40.048121, -12.502686  0.361304)

-------------
DIPOLE MOMENT
-------------
                                X             Y             Z
Electronic contribution:     83.56922      -6.79971       5.30201
Nuclear contribution   :    -85.50020       6.26883      -6.27317
                        -----------------------------------------
Total Dipole Moment    :     -1.93097      -0.53088      -0.97116
                        -----------------------------------------
Magnitude (a.u.)       :      2.22568
Magnitude (Debye)      :      5.65723



--------------------
Rotational spectrum 
--------------------
 
Rotational constants in cm-1:     0.002455     0.000063     0.000061 
Rotational constants in MHz :    73.586839     1.883825     1.838247 

 Dipole components along the rotational axes: 
x,y,z [a.u.] :     1.665855    -1.156123    -0.917583 
x,y,z [Debye]:     4.234268    -2.938630    -2.332310 

 

Timings for individual modules:

Sum of individual times         ...     4437.747 sec (=  73.962 min)
GTO integral calculation        ...        3.276 sec (=   0.055 min)   0.1 %
SCF iterations                  ...     4426.997 sec (=  73.783 min)  99.8 %
CIS module                      ...        7.474 sec (=   0.125 min)   0.2 %
                             ****ORCA TERMINATED NORMALLY****
TOTAL RUN TIME: 0 days 1 hours 13 minutes 58 seconds 454 msec
