
                                 *****************
                                 * O   R   C   A *
                                 *****************

           --- An Ab Initio, DFT and Semiempirical electronic structure package ---

                  #######################################################
                  #                        -***-                        #
                  #          Department of theory and spectroscopy      #
                  #               Directorship: Frank Neese             #
                  #        Max Planck Institute fuer Kohlenforschung    #
                  #                Kaiser Wilhelm Platz 1               #
                  #                 D-45470 Muelheim/Ruhr               #
                  #                      Germany                        #
                  #                                                     #
                  #                  All rights reserved                #
                  #                        -***-                        #
                  #######################################################


                         Program Version 4.2.0 -  RELEASE  -


 With contributions from (in alphabetic order):
   Daniel Aravena         : Magnetic Suceptibility
   Michael Atanasov       : Ab Initio Ligand Field Theory (pilot matlab implementation)
   Alexander A. Auer      : GIAO ZORA, VPT2
   Ute Becker             : Parallelization
   Giovanni Bistoni       : ED, misc. LED, open-shell LED, HFLED
   Martin Brehm           : Molecular dynamics
   Dmytro Bykov           : SCF Hessian
   Vijay G. Chilkuri      : MRCI spin determinant printing, contributions to CSF-ICE
   Dipayan Datta          : RHF DLPNO-CCSD density
   Achintya Kumar Dutta   : EOM-CC, STEOM-CC
   Dmitry Ganyushin       : Spin-Orbit,Spin-Spin,Magnetic field MRCI
   Miquel Garcia          : C-PCM Hessian, Gaussian charge scheme
   Yang Guo               : DLPNO-NEVPT2, CIM, IAO-localization
   Andreas Hansen         : Spin unrestricted coupled pair/coupled cluster methods
   Benjamin Helmich-Paris : CASSCF linear response (MC-RPA)
   Lee Huntington         : MR-EOM, pCC
   Robert Izsak           : Overlap fitted RIJCOSX, COSX-SCS-MP3, EOM
   Christian Kollmar      : KDIIS, OOCD, Brueckner-CCSD(T), CCSD density
   Simone Kossmann        : Meta GGA functionals, TD-DFT gradient, OOMP2, MP2 Hessian
   Martin Krupicka        : AUTO-CI
   Lucas Lang             : DCDCAS
   Dagmar Lenk            : GEPOL surface, SMD
   Dimitrios Liakos       : Extrapolation schemes; Compound Job, initial MDCI parallelization
   Dimitrios Manganas     : Further ROCIS development; embedding schemes
   Dimitrios Pantazis     : SARC Basis sets
   Taras Petrenko         : DFT Hessian,TD-DFT gradient, ASA, ECA, R-Raman, ABS, FL, XAS/XES, NRVS
   Peter Pinski           : DLPNO-MP2, DLPNO-MP2 Gradient
   Christoph Reimann      : Effective Core Potentials
   Marius Retegan         : Local ZFS, SOC
   Christoph Riplinger    : Optimizer, TS searches, QM/MM, DLPNO-CCSD(T), (RO)-DLPNO pert. Triples
   Tobias Risthaus        : Range-separated hybrids, TD-DFT gradient, RPA, STAB
   Michael Roemelt        : Original ROCIS implementation
   Masaaki Saitow         : Open-shell DLPNO-CCSD energy and density
   Barbara Sandhoefer     : DKH picture change effects
   Avijit Sen             : IP-ROCIS
   Kantharuban Sivalingam : CASSCF convergence, NEVPT2, FIC-MRCI
   Bernardo de Souza      : ESD, SOC TD-DFT
   Georgi Stoychev        : AutoAux, RI-MP2 NMR
   Willem Van den Heuvel  : Paramagnetic NMR
   Boris Wezisla          : Elementary symmetry handling
   Frank Wennmohs         : Technical directorship


 We gratefully acknowledge several colleagues who have allowed us to
 interface, adapt or use parts of their codes:
   Stefan Grimme, W. Hujo, H. Kruse,             : VdW corrections, initial TS optimization,
                  C. Bannwarth                     DFT functionals, gCP, sTDA/sTD-DF
   Ed Valeev, F. Pavosevic, A. Kumar             : LibInt (2-el integral package), F12 methods
   Garnet Chan, S. Sharma, J. Yang, R. Olivares  : DMRG
   Ulf Ekstrom                                   : XCFun DFT Library
   Mihaly Kallay                                 : mrcc  (arbitrary order and MRCC methods)
   Andreas Klamt, Michael Diedenhofen            : otool_cosmo (COSMO solvation model)
   Jiri Pittner, Ondrej Demel                    : Mk-CCSD
   Frank Weinhold                                : gennbo (NPA and NBO analysis)
   Christopher J. Cramer and Donald G. Truhlar   : smd solvation model
   Lars Goerigk                                  : TD-DFT with DH, B97 family of functionals
   V. Asgeirsson, H. Jonsson                     : NEB implementation
   FAccTs GmbH                                   : IRC, NEB, NEB-TS, Multilevel, MM, QM/MM, CI optimization
   S Lehtola, MJT Oliveira, MAL Marques          : LibXC Library


 Your calculation uses the libint2 library for the computation of 2-el integrals
 For citations please refer to: http://libint.valeyev.net

 Your ORCA version has been built with support for libXC version: 4.2.3
 For citations please refer to: https://tddft.org/programs/libxc/

 This ORCA versions uses:
   CBLAS   interface :  Fast vector & matrix operations
   LAPACKE interface :  Fast linear algebra routines
   SCALAPACK package :  Parallel linear algebra routines


XCFun DFT library Copyright 2009-2010 Ulf Ekstrom and contributors.
See http://admol.org/xcfun for more information. This is free soft-
ware; see the source code for copying conditions. There is ABSOLUTELY
NO WARRANTY; not even for MERCHANTABILITY or FITNESS FOR A PARTICULAR
PURPOSE. For details see the documentation. Scientific users of this 
library should cite U. Ekstrom, L. Visscher, R. Bast, A. J. Thorvald-
sen and K. Ruud; J.Chem.Theor.Comp. 2010, DOI: 10.1021/ct100117s
XCFun Version 0.99 
----- Orbital basis set information -----
Your calculation utilizes the basis: def2-SVP
   F. Weigend and R. Ahlrichs, Phys. Chem. Chem. Phys. 7, 3297 (2005).

----- AuxJ basis set information -----
Your calculation utilizes the auxiliary basis: def2/J
   F. Weigend, Phys. Chem. Chem. Phys. 8, 1057 (2006).

================================================================================
                                        WARNINGS
                       Please study these warnings very carefully!
================================================================================

INFO   : Checking CIS options ...

WARNING: CIS/ROCIS methods need fully converged wavefunctions
  ===> : Setting SCFConvForced true
         You can overwrite this default with %scf ConvForced false 


INFO   : the flag for use of LIBINT has been found!

================================================================================
                                       INPUT FILE
================================================================================
NAME = PFBDB-T.inp
|  1> # ORCA input file
|  2> # SCF done       -460.635063992070          0.000942829728
|  3> ! CAM-B3LYP def2-SVP def2/J RIJCOSX Grid4 TightSCF
|  4> %maxcore 5000
|  5> %tddft
|  6>     Mode sTDDFT
|  7>     Ethresh 5.0
|  8>     maxcore 5000
|  9> end
| 10> * xyz 0 1
| 11>    C        0.90008         1.11414        -0.30314
| 12>    C        1.79537         0.03452        -0.41067
| 13>    C        1.30823        -1.27793        -0.61439
| 14>    C       -0.04374        -1.59350        -0.75365
| 15>    C       -0.94121        -0.50416        -0.67782
| 16>    C       -0.45259         0.80322        -0.43292
| 17>    C        3.21864         0.06575        -0.34285
| 18>    C        3.80428        -1.13873        -0.51762
| 19>    S        2.62973        -2.40920        -0.74342
| 20>    C       -2.35112        -0.51568        -0.82779
| 21>    C       -2.92447         0.71960        -0.73692
| 22>    S       -1.74756         1.96880        -0.40288
| 23>    C        1.32472         2.49060        -0.15286
| 24>    C       -0.48105        -2.95558        -0.96967
| 25>    C        0.66917         3.50640         0.48929
| 26>    C        1.26390         4.76783         0.29538
| 27>    C        2.37738         4.72954        -0.48705
| 28>    S        2.72831         3.11011        -0.98140
| 29>    C        0.10191        -4.10993        -0.51265
| 30>    C       -0.58233        -5.27629        -0.89760
| 31>    C       -1.68368        -5.03391        -1.66259
| 32>    S       -1.88881        -3.34045        -1.92171
| 33>    C        3.26214         5.85657        -0.89688
| 34>    C        4.33705         6.13191         0.15577
| 35>    C       -2.64570        -6.01667        -2.23929
| 36>    C       -4.03599        -5.41814        -2.43167
| 37>    C        5.25196        -1.46250        -0.50516
| 38>    C       -4.29951         1.05918        -0.88550
| 39>    C       -5.35894         0.27375        -1.30267
| 40>    C       -6.59561         0.91729        -1.37241
| 41>    C       -6.52075         2.24039        -1.00073
| 42>    S       -4.87365         2.66009        -0.56994
| 43>    C       -7.48638         3.28744        -0.92742
| 44>    S       -6.83108         4.85249        -0.54886
| 45>    C       -8.39267         5.61311        -0.58138
| 46>    C       -9.38083         4.68270        -0.85438
| 47>    C       -8.86954         3.35999        -1.05881
| 48>    C      -10.81630         4.99944        -0.84612
| 49>    C      -11.67631         3.82417        -0.89208
| 50>    C      -11.17411         2.50800        -1.13354
| 51>    C       -9.75863         2.23226        -1.37501
| 52>    C      -13.03795         3.85714        -0.71019
| 53>    S      -13.70547         2.26445        -0.80564
| 54>    C      -12.15792         1.55212        -1.11814
| 55>    C       -8.37307         7.01677        -0.31203
| 56>    C       -9.16923         8.07618        -0.67431
| 57>    C       -8.61829         9.31036        -0.29575
| 58>    S       -6.95850         7.57684         0.54058
| 59>    O      -11.25420         6.13767        -0.77186
| 60>    O       -9.37150         1.16046        -1.81066
| 61>    C      -13.89070         5.04712        -0.46087
| 62>    C      -15.30699         4.69554        -0.02927
| 63>    C      -12.04690         0.08942        -1.35001
| 64>    C      -12.12820        -0.22772        -2.84619
| 65>    F       -5.21235        -1.01687        -1.63285
| 66>    F       -9.21933        10.47467        -0.57642
| 67>    C       -3.16701        10.75644         2.31766
| 68>    C       -4.43897        10.88511         1.73888
| 69>    C       -4.86584        12.10243         1.16294
| 70>    C       -4.05904        13.23987         1.13838
| 71>    C       -2.77198        13.11381         1.71029
| 72>    C       -2.36417        11.87898         2.28388
| 73>    C       -5.37665         9.84955         1.56550
| 74>    C       -6.46783        10.20887         0.82925
| 75>    S       -6.43325        11.90688         0.40166
| 76>    C       -1.72272        14.06740         1.74850
| 77>    C       -0.55672        13.58136         2.27102
| 78>    S       -0.71492        11.92574         2.82868
| 79>    C       -2.75462         9.45419         2.82830
| 80>    C       -4.52761        14.45262         0.50155
| 81>    C       -2.52632         9.05972         4.11029
| 82>    C       -2.30618         7.66854         4.23067
| 83>    C       -2.34789         7.00511         3.04248
| 84>    S       -2.66165         8.09949         1.73472
| 85>    C       -5.80098        14.95400         0.51038
| 86>    C       -5.94526        16.12712        -0.25355
| 87>    C       -4.79550        16.51928        -0.86834
| 88>    S       -3.49375        15.44330        -0.49066
| 89>    C       -2.17413         5.54974         2.76991
| 90>    C       -3.48058         4.90088         2.30808
| 91>    C       -4.55697        17.71618        -1.72192
| 92>    C       -3.75401        18.78033        -0.97021
| 93>    C       -7.41248         9.24407         0.36846
| 94>    C        0.73627        14.18067         2.30022
| 95>    C        1.16453        15.44331         1.93311
| 96>    C        2.54928        15.63816         1.94006
| 97>    C        3.23677        14.50540         2.31403
| 98>    S        2.11616        13.21786         2.70479
| 99>    C        4.61771        14.14206         2.33571
|100>    S        4.88465        12.43178         2.46786
|101>    C        6.61208        12.59601         2.39183
|102>    C        6.96235        13.93023         2.26678
|103>    C        5.83252        14.81241         2.23939
|104>    C        8.35135        14.40199         2.21597
|105>    C        8.48342        15.85294         2.24483
|106>    C        7.36183        16.74017         2.21267
|107>    C        5.97817        16.27079         2.15052
|108>    C        9.68931        16.50892         2.30987
|109>    S        9.45368        18.22116         2.34483
|110>    C        7.73168        18.06132         2.26343
|111>    C        7.30620        11.34842         2.46232
|112>    C        8.52508        10.87490         2.03866
|113>    C        8.62947         9.47945         2.16512
|114>    S        6.32991        10.04095         3.07797
|115>    O        9.31356        13.64950         2.16952
|116>    O        5.03053        17.03485         2.04571
|117>    C       11.04581        15.90624         2.34978
|118>    C       12.15376        16.92299         2.58108
|119>    C        6.87927        19.27688         2.21342
|120>    C        6.55025        19.64637         0.76383
|121>    F        0.31019        16.41264         1.57142
|122>    F        9.72432         8.81237         1.77276
|123>    C        4.27021         5.28463         3.60035
|124>    C        5.53863         5.82863         3.32328
|125>    C        6.57703         5.04022         2.77499
|126>    C        6.42122         3.68120         2.50412
|127>    C        5.15112         3.12392         2.78599
|128>    C        4.10923         3.94301         3.29183
|129>    C        5.87945         7.19103         3.36512
|130>    C        7.11525         7.48463         2.86418
|131>    S        7.96410         6.03687         2.36815
|132>    C        4.71925         1.78254         2.62777
|133>    C        3.40400         1.59227         2.94673
|134>    S        2.62589         3.06017         3.48615
|135>    C        3.17380         6.11123         4.05773
|136>    C        7.49564         2.91633         1.91080
|137>    C        1.88294         6.09029         3.60859
|138>    C        1.08312         7.10670         4.16184
|139>    C        1.73957         7.88881         5.06040
|140>    S        3.38318         7.37377         5.24266
|141>    C        8.83998         3.04901         2.12760
|142>    C        9.62258         2.17779         1.34664
|143>    C        8.89098         1.38883         0.51266
|144>    S        7.19865         1.70412         0.69445
|145>    C        1.24325         9.09920         5.76998
|146>    C        1.83121        10.36868         5.14878
|147>    C        9.36382         0.31914        -0.40979
|148>    C        9.26857        -1.05745         0.25400
|149>    C        7.52306         8.84032         2.68492
|150>    C        2.61229         0.41362         2.84769
|151>    C        2.98248        -0.90283         2.65625
|152>    C        1.93062        -1.81209         2.54657
|153>    C        0.69765        -1.20562         2.65150
|154>    S        0.88744         0.51199         2.91815
|155>    C       -0.63499        -1.68009         2.48042
|156>    S       -1.86118        -0.45163         2.44861
|157>    C       -3.11028        -1.57875         2.02061
|158>    C       -2.59269        -2.86409         1.92508
|159>    C       -1.19692        -2.93116         2.24784
|160>    C       -3.33578        -4.05617         1.48881
|161>    C       -2.65408        -5.31698         1.74915
|162>    C       -1.30670        -5.39200         2.21550
|163>    C       -0.48984        -4.20313         2.44365
|164>    C       -3.24231        -6.54965         1.59518
|165>    S       -2.14033        -7.80891         2.03081
|166>    C       -0.88598        -6.68138         2.42342
|167>    C       -4.42382        -1.01905         1.91123
|168>    C       -5.60809        -1.51539         1.42964
|169>    C       -6.65250        -0.58019         1.53624
|170>    S       -4.63817         0.62455         2.48642
|171>    O       -4.42448        -4.02001         0.93465
|172>    O        0.66714        -4.27767         2.83005
|173>    C       -4.62737        -6.85502         1.15399
|174>    C       -5.02214        -8.30971         1.36381
|175>    C        0.43398        -7.18243         2.88762
|176>    C        1.39687        -7.38099         1.71364
|177>    C       -6.29897         0.61730         2.08100
|178>    F        4.26734        -1.28341         2.58306
|179>    F       -7.90209        -0.84584         1.13417
|180>    H        3.78733         0.95977        -0.16515
|181>    H       -2.93689        -1.39912        -0.99095
|182>    H       -0.19387         3.34878         1.11079
|183>    H        0.86537         5.68474         0.69344
|184>    H        0.97329        -4.12521         0.11478
|185>    H       -0.27062        -6.26571        -0.61384
|186>    H        2.65361         6.75351        -1.03366
|187>    H        3.74078         5.61592        -1.84810
|188>    H        3.87599         6.41615         1.09828
|189>    H        4.98873         6.93917        -0.16948
|190>    H        4.94189         5.24273         0.32050
|191>    H       -2.69083        -6.88436        -1.57461
|192>    H       -2.26724        -6.36871        -3.20565
|193>    H       -4.39458        -4.97461        -1.50483
|194>    H       -4.73855        -6.18317        -2.75419
|195>    H       -4.00913        -4.63595        -3.18712
|196>    H        5.83277        -0.54431        -0.45992
|197>    H        5.52808        -2.02113        -1.39839
|198>    H        5.49276        -2.07704         0.36227
|199>    H       -7.50094         0.43313        -1.68739
|200>    H      -10.10117         7.97791        -1.19759
|201>    H      -13.91539         5.64964        -1.37511
|202>    H      -13.39911         5.66939         0.29308
|203>    H      -15.81023         4.11572        -0.80053
|204>    H      -15.87969         5.60165         0.14932
|205>    H      -15.29335         4.10892         0.88690
|206>    H      -12.85011        -0.42694        -0.82031
|207>    H      -11.08322        -0.25695        -0.97144
|208>    H      -13.06213         0.14026        -3.26619
|209>    H      -12.07348        -1.30188        -2.99903
|210>    H      -11.29603         0.23967        -3.36542
|211>    H       -5.23985         8.85323         1.94420
|212>    H       -1.80815        15.07118         1.37686
|213>    H       -2.54561         9.73876         4.94435
|214>    H       -2.13108         7.17863         5.17306
|215>    H       -6.60344        14.51728         1.07706
|216>    H       -6.87486        16.65953        -0.34901
|217>    H       -1.81685         5.05942         3.67810
|218>    H       -1.42173         5.41334         1.98941
|219>    H       -4.24842         5.00803         3.07079
|220>    H       -3.32704         3.84228         2.11506
|221>    H       -3.83534         5.36972         1.39279
|222>    H       -5.52139        18.12800        -2.02666
|223>    H       -4.00894        17.42402        -2.62121
|224>    H       -4.28758        19.09506        -0.07618
|225>    H       -3.59373        19.64881        -1.60395
|226>    H       -2.78631        18.38262        -0.67297
|227>    H        3.02323        16.56211         1.66705
|228>    H        9.30378        11.49564         1.63711
|229>    H       11.21224        15.37262         1.40815
|230>    H       11.05712        15.13962         3.13088
|231>    H       12.16857        17.66265         1.78317
|232>    H       13.11909        16.42476         2.60695
|233>    H       12.00708        17.44090         3.52653
|234>    H        7.39823        20.10761         2.69576
|235>    H        5.94612        19.07597         2.74293
|236>    H        7.46212        19.81487         0.19475
|237>    H        5.94987        20.55149         0.74026
|238>    H        5.98548        18.84312         0.29856
|239>    H        5.20811         7.95768         3.70225
|240>    H        5.34833         0.97968         2.29241
|241>    H        1.53164         5.39600         2.86822
|242>    H        0.05592         7.26318         3.89182
|243>    H        9.25572         3.72520         2.85249
|244>    H       10.69621         2.14117         1.39851
|245>    H        1.51821         9.05370         6.82656
|246>    H        0.15470         9.12625         5.69399
|247>    H        2.91617        10.36180         5.22475
|248>    H        1.45170        11.24973         5.65856
|249>    H        1.55960        10.43567         4.09825
|250>    H       10.40119         0.52147        -0.68440
|251>    H        8.75994         0.32222        -1.32005
|252>    H        9.88632        -1.08819         1.14840
|253>    H        9.60840        -1.82981        -0.43121
|254>    H        8.24039        -1.27044         0.53677
|255>    H        2.07301        -2.86640         2.40840
|256>    H       -5.72245        -2.49240         1.00047
|257>    H       -4.72253        -6.59300         0.09647
|258>    H       -5.31124        -6.18913         1.68929
|259>    H       -4.37239        -8.97014         0.79274
|260>    H       -6.04658        -8.46908         1.03804
|261>    H       -4.94784        -8.58098         2.41479
|262>    H        0.29755        -8.13178         3.41016
|263>    H        0.86353        -6.45061         3.57371
|264>    H        0.98395        -8.08487         0.99325
|265>    H        2.34445        -7.77041         2.07561
|266>    H        1.58012        -6.43130         1.21882
|267>    H       -6.91591         1.47492         2.25680
|268> *
|269> 
|270>                          ****END OF INPUT****
================================================================================

                       ****************************
                       * Single Point Calculation *
                       ****************************

---------------------------------
CARTESIAN COORDINATES (ANGSTROEM)
---------------------------------
  C      0.900080    1.114140   -0.303140
  C      1.795370    0.034520   -0.410670
  C      1.308230   -1.277930   -0.614390
  C     -0.043740   -1.593500   -0.753650
  C     -0.941210   -0.504160   -0.677820
  C     -0.452590    0.803220   -0.432920
  C      3.218640    0.065750   -0.342850
  C      3.804280   -1.138730   -0.517620
  S      2.629730   -2.409200   -0.743420
  C     -2.351120   -0.515680   -0.827790
  C     -2.924470    0.719600   -0.736920
  S     -1.747560    1.968800   -0.402880
  C      1.324720    2.490600   -0.152860
  C     -0.481050   -2.955580   -0.969670
  C      0.669170    3.506400    0.489290
  C      1.263900    4.767830    0.295380
  C      2.377380    4.729540   -0.487050
  S      2.728310    3.110110   -0.981400
  C      0.101910   -4.109930   -0.512650
  C     -0.582330   -5.276290   -0.897600
  C     -1.683680   -5.033910   -1.662590
  S     -1.888810   -3.340450   -1.921710
  C      3.262140    5.856570   -0.896880
  C      4.337050    6.131910    0.155770
  C     -2.645700   -6.016670   -2.239290
  C     -4.035990   -5.418140   -2.431670
  C      5.251960   -1.462500   -0.505160
  C     -4.299510    1.059180   -0.885500
  C     -5.358940    0.273750   -1.302670
  C     -6.595610    0.917290   -1.372410
  C     -6.520750    2.240390   -1.000730
  S     -4.873650    2.660090   -0.569940
  C     -7.486380    3.287440   -0.927420
  S     -6.831080    4.852490   -0.548860
  C     -8.392670    5.613110   -0.581380
  C     -9.380830    4.682700   -0.854380
  C     -8.869540    3.359990   -1.058810
  C    -10.816300    4.999440   -0.846120
  C    -11.676310    3.824170   -0.892080
  C    -11.174110    2.508000   -1.133540
  C     -9.758630    2.232260   -1.375010
  C    -13.037950    3.857140   -0.710190
  S    -13.705470    2.264450   -0.805640
  C    -12.157920    1.552120   -1.118140
  C     -8.373070    7.016770   -0.312030
  C     -9.169230    8.076180   -0.674310
  C     -8.618290    9.310360   -0.295750
  S     -6.958500    7.576840    0.540580
  O    -11.254200    6.137670   -0.771860
  O     -9.371500    1.160460   -1.810660
  C    -13.890700    5.047120   -0.460870
  C    -15.306990    4.695540   -0.029270
  C    -12.046900    0.089420   -1.350010
  C    -12.128200   -0.227720   -2.846190
  F     -5.212350   -1.016870   -1.632850
  F     -9.219330   10.474670   -0.576420
  C     -3.167010   10.756440    2.317660
  C     -4.438970   10.885110    1.738880
  C     -4.865840   12.102430    1.162940
  C     -4.059040   13.239870    1.138380
  C     -2.771980   13.113810    1.710290
  C     -2.364170   11.878980    2.283880
  C     -5.376650    9.849550    1.565500
  C     -6.467830   10.208870    0.829250
  S     -6.433250   11.906880    0.401660
  C     -1.722720   14.067400    1.748500
  C     -0.556720   13.581360    2.271020
  S     -0.714920   11.925740    2.828680
  C     -2.754620    9.454190    2.828300
  C     -4.527610   14.452620    0.501550
  C     -2.526320    9.059720    4.110290
  C     -2.306180    7.668540    4.230670
  C     -2.347890    7.005110    3.042480
  S     -2.661650    8.099490    1.734720
  C     -5.800980   14.954000    0.510380
  C     -5.945260   16.127120   -0.253550
  C     -4.795500   16.519280   -0.868340
  S     -3.493750   15.443300   -0.490660
  C     -2.174130    5.549740    2.769910
  C     -3.480580    4.900880    2.308080
  C     -4.556970   17.716180   -1.721920
  C     -3.754010   18.780330   -0.970210
  C     -7.412480    9.244070    0.368460
  C      0.736270   14.180670    2.300220
  C      1.164530   15.443310    1.933110
  C      2.549280   15.638160    1.940060
  C      3.236770   14.505400    2.314030
  S      2.116160   13.217860    2.704790
  C      4.617710   14.142060    2.335710
  S      4.884650   12.431780    2.467860
  C      6.612080   12.596010    2.391830
  C      6.962350   13.930230    2.266780
  C      5.832520   14.812410    2.239390
  C      8.351350   14.401990    2.215970
  C      8.483420   15.852940    2.244830
  C      7.361830   16.740170    2.212670
  C      5.978170   16.270790    2.150520
  C      9.689310   16.508920    2.309870
  S      9.453680   18.221160    2.344830
  C      7.731680   18.061320    2.263430
  C      7.306200   11.348420    2.462320
  C      8.525080   10.874900    2.038660
  C      8.629470    9.479450    2.165120
  S      6.329910   10.040950    3.077970
  O      9.313560   13.649500    2.169520
  O      5.030530   17.034850    2.045710
  C     11.045810   15.906240    2.349780
  C     12.153760   16.922990    2.581080
  C      6.879270   19.276880    2.213420
  C      6.550250   19.646370    0.763830
  F      0.310190   16.412640    1.571420
  F      9.724320    8.812370    1.772760
  C      4.270210    5.284630    3.600350
  C      5.538630    5.828630    3.323280
  C      6.577030    5.040220    2.774990
  C      6.421220    3.681200    2.504120
  C      5.151120    3.123920    2.785990
  C      4.109230    3.943010    3.291830
  C      5.879450    7.191030    3.365120
  C      7.115250    7.484630    2.864180
  S      7.964100    6.036870    2.368150
  C      4.719250    1.782540    2.627770
  C      3.404000    1.592270    2.946730
  S      2.625890    3.060170    3.486150
  C      3.173800    6.111230    4.057730
  C      7.495640    2.916330    1.910800
  C      1.882940    6.090290    3.608590
  C      1.083120    7.106700    4.161840
  C      1.739570    7.888810    5.060400
  S      3.383180    7.373770    5.242660
  C      8.839980    3.049010    2.127600
  C      9.622580    2.177790    1.346640
  C      8.890980    1.388830    0.512660
  S      7.198650    1.704120    0.694450
  C      1.243250    9.099200    5.769980
  C      1.831210   10.368680    5.148780
  C      9.363820    0.319140   -0.409790
  C      9.268570   -1.057450    0.254000
  C      7.523060    8.840320    2.684920
  C      2.612290    0.413620    2.847690
  C      2.982480   -0.902830    2.656250
  C      1.930620   -1.812090    2.546570
  C      0.697650   -1.205620    2.651500
  S      0.887440    0.511990    2.918150
  C     -0.634990   -1.680090    2.480420
  S     -1.861180   -0.451630    2.448610
  C     -3.110280   -1.578750    2.020610
  C     -2.592690   -2.864090    1.925080
  C     -1.196920   -2.931160    2.247840
  C     -3.335780   -4.056170    1.488810
  C     -2.654080   -5.316980    1.749150
  C     -1.306700   -5.392000    2.215500
  C     -0.489840   -4.203130    2.443650
  C     -3.242310   -6.549650    1.595180
  S     -2.140330   -7.808910    2.030810
  C     -0.885980   -6.681380    2.423420
  C     -4.423820   -1.019050    1.911230
  C     -5.608090   -1.515390    1.429640
  C     -6.652500   -0.580190    1.536240
  S     -4.638170    0.624550    2.486420
  O     -4.424480   -4.020010    0.934650
  O      0.667140   -4.277670    2.830050
  C     -4.627370   -6.855020    1.153990
  C     -5.022140   -8.309710    1.363810
  C      0.433980   -7.182430    2.887620
  C      1.396870   -7.380990    1.713640
  C     -6.298970    0.617300    2.081000
  F      4.267340   -1.283410    2.583060
  F     -7.902090   -0.845840    1.134170
  H      3.787330    0.959770   -0.165150
  H     -2.936890   -1.399120   -0.990950
  H     -0.193870    3.348780    1.110790
  H      0.865370    5.684740    0.693440
  H      0.973290   -4.125210    0.114780
  H     -0.270620   -6.265710   -0.613840
  H      2.653610    6.753510   -1.033660
  H      3.740780    5.615920   -1.848100
  H      3.875990    6.416150    1.098280
  H      4.988730    6.939170   -0.169480
  H      4.941890    5.242730    0.320500
  H     -2.690830   -6.884360   -1.574610
  H     -2.267240   -6.368710   -3.205650
  H     -4.394580   -4.974610   -1.504830
  H     -4.738550   -6.183170   -2.754190
  H     -4.009130   -4.635950   -3.187120
  H      5.832770   -0.544310   -0.459920
  H      5.528080   -2.021130   -1.398390
  H      5.492760   -2.077040    0.362270
  H     -7.500940    0.433130   -1.687390
  H    -10.101170    7.977910   -1.197590
  H    -13.915390    5.649640   -1.375110
  H    -13.399110    5.669390    0.293080
  H    -15.810230    4.115720   -0.800530
  H    -15.879690    5.601650    0.149320
  H    -15.293350    4.108920    0.886900
  H    -12.850110   -0.426940   -0.820310
  H    -11.083220   -0.256950   -0.971440
  H    -13.062130    0.140260   -3.266190
  H    -12.073480   -1.301880   -2.999030
  H    -11.296030    0.239670   -3.365420
  H     -5.239850    8.853230    1.944200
  H     -1.808150   15.071180    1.376860
  H     -2.545610    9.738760    4.944350
  H     -2.131080    7.178630    5.173060
  H     -6.603440   14.517280    1.077060
  H     -6.874860   16.659530   -0.349010
  H     -1.816850    5.059420    3.678100
  H     -1.421730    5.413340    1.989410
  H     -4.248420    5.008030    3.070790
  H     -3.327040    3.842280    2.115060
  H     -3.835340    5.369720    1.392790
  H     -5.521390   18.128000   -2.026660
  H     -4.008940   17.424020   -2.621210
  H     -4.287580   19.095060   -0.076180
  H     -3.593730   19.648810   -1.603950
  H     -2.786310   18.382620   -0.672970
  H      3.023230   16.562110    1.667050
  H      9.303780   11.495640    1.637110
  H     11.212240   15.372620    1.408150
  H     11.057120   15.139620    3.130880
  H     12.168570   17.662650    1.783170
  H     13.119090   16.424760    2.606950
  H     12.007080   17.440900    3.526530
  H      7.398230   20.107610    2.695760
  H      5.946120   19.075970    2.742930
  H      7.462120   19.814870    0.194750
  H      5.949870   20.551490    0.740260
  H      5.985480   18.843120    0.298560
  H      5.208110    7.957680    3.702250
  H      5.348330    0.979680    2.292410
  H      1.531640    5.396000    2.868220
  H      0.055920    7.263180    3.891820
  H      9.255720    3.725200    2.852490
  H     10.696210    2.141170    1.398510
  H      1.518210    9.053700    6.826560
  H      0.154700    9.126250    5.693990
  H      2.916170   10.361800    5.224750
  H      1.451700   11.249730    5.658560
  H      1.559600   10.435670    4.098250
  H     10.401190    0.521470   -0.684400
  H      8.759940    0.322220   -1.320050
  H      9.886320   -1.088190    1.148400
  H      9.608400   -1.829810   -0.431210
  H      8.240390   -1.270440    0.536770
  H      2.073010   -2.866400    2.408400
  H     -5.722450   -2.492400    1.000470
  H     -4.722530   -6.593000    0.096470
  H     -5.311240   -6.189130    1.689290
  H     -4.372390   -8.970140    0.792740
  H     -6.046580   -8.469080    1.038040
  H     -4.947840   -8.580980    2.414790
  H      0.297550   -8.131780    3.410160
  H      0.863530   -6.450610    3.573710
  H      0.983950   -8.084870    0.993250
  H      2.344450   -7.770410    2.075610
  H      1.580120   -6.431300    1.218820
  H     -6.915910    1.474920    2.256800

----------------------------
CARTESIAN COORDINATES (A.U.)
----------------------------
  NO LB      ZA    FRAG     MASS         X           Y           Z
   0 C     6.0000    0    12.011    1.700905    2.105419   -0.572852
   1 C     6.0000    0    12.011    3.392758    0.065233   -0.776054
   2 C     6.0000    0    12.011    2.472196   -2.414938   -1.161029
   3 C     6.0000    0    12.011   -0.082657   -3.011279   -1.424192
   4 C     6.0000    0    12.011   -1.778629   -0.952724   -1.280894
   5 C     6.0000    0    12.011   -0.855271    1.517866   -0.818100
   6 C     6.0000    0    12.011    6.082348    0.124249   -0.647893
   7 C     6.0000    0    12.011    7.189047   -2.151888   -0.978160
   8 S    16.0000    0    32.060    4.969470   -4.552728   -1.404860
   9 C     6.0000    0    12.011   -4.442973   -0.974494   -1.564296
  10 C     6.0000    0    12.011   -5.526447    1.359847   -1.392577
  11 S    16.0000    0    32.060   -3.302410    3.720493   -0.761333
  12 C     6.0000    0    12.011    2.503358    4.706552   -0.288864
  13 C     6.0000    0    12.011   -0.909053   -5.585237   -1.832411
  14 C     6.0000    0    12.011    1.264548    6.626136    0.924624
  15 C     6.0000    0    12.011    2.388425    9.009893    0.558187
  16 C     6.0000    0    12.011    4.492597    8.937535   -0.920391
  17 S    16.0000    0    32.060    5.155759    5.877256   -1.854577
  18 C     6.0000    0    12.011    0.192582   -7.766642   -0.968768
  19 C     6.0000    0    12.011   -1.100444   -9.970743   -1.696218
  20 C     6.0000    0    12.011   -3.181694   -9.512711   -3.141840
  21 S    16.0000    0    32.060   -3.569334   -6.312536   -3.631506
  22 C     6.0000    0    12.011    6.164551   11.067313   -1.694858
  23 C     6.0000    0    12.011    8.195837   11.587631    0.294363
  24 C     6.0000    0    12.011   -4.999648  -11.369859   -4.231645
  25 C     6.0000    0    12.011   -7.626916  -10.238801   -4.595190
  26 C     6.0000    0    12.011    9.924766   -2.763724   -0.954614
  27 C     6.0000    0    12.011   -8.124896    2.001560   -1.673352
  28 C     6.0000    0    12.011  -10.126929    0.517313   -2.461690
  29 C     6.0000    0    12.011  -12.463897    1.733427   -2.593479
  30 C     6.0000    0    12.011  -12.322432    4.233724   -1.891106
  31 S    16.0000    0    32.060   -9.209864    5.026842   -1.077031
  32 C     6.0000    0    12.011  -14.147208    6.212361   -1.752570
  33 S    16.0000    0    32.060  -12.908870    9.169877   -1.037195
  34 C     6.0000    0    12.011  -15.859848   10.607241   -1.098649
  35 C     6.0000    0    12.011  -17.727200    8.849021   -1.614544
  36 C     6.0000    0    12.011  -16.761002    6.349461   -2.000861
  37 C     6.0000    0    12.011  -20.439845    9.447572   -1.598935
  38 C     6.0000    0    12.011  -22.065028    7.226634   -1.685787
  39 C     6.0000    0    12.011  -21.116008    4.739433   -2.142080
  40 C     6.0000    0    12.011  -18.441138    4.218360   -2.598392
  41 C     6.0000    0    12.011  -24.638155    7.288938   -1.342065
  42 S    16.0000    0    32.060  -25.899585    4.279190   -1.522439
  43 C     6.0000    0    12.011  -22.975139    2.933082   -2.112978
  44 C     6.0000    0    12.011  -15.822809   13.259774   -0.589651
  45 C     6.0000    0    12.011  -17.327334   15.261768   -1.274261
  46 C     6.0000    0    12.011  -16.286208   17.594031   -0.558887
  47 S    16.0000    0    32.060  -13.149659   14.318153    1.021548
  48 O     8.0000    0    15.999  -21.267356   11.598515   -1.458604
  49 O     8.0000    0    15.999  -17.709568    2.192952   -3.421652
  50 C     6.0000    0    12.011  -26.249619    9.537675   -0.870918
  51 C     6.0000    0    12.011  -28.926019    8.873285   -0.055312
  52 C     6.0000    0    12.011  -22.765342    0.168979   -2.551149
  53 C     6.0000    0    12.011  -22.918976   -0.430328   -5.378520
  54 F     9.0000    0    18.998   -9.849914   -1.921606   -3.085639
  55 F     9.0000    0    18.998  -17.422009   19.794258   -1.089276
  56 C     6.0000    0    12.011   -5.984782   20.326726    4.379743
  57 C     6.0000    0    12.011   -8.388438   20.569877    3.286007
  58 C     6.0000    0    12.011   -9.195105   22.870278    2.197638
  59 C     6.0000    0    12.011   -7.670474   25.019728    2.151226
  60 C     6.0000    0    12.011   -5.238283   24.781509    3.231980
  61 C     6.0000    0    12.011   -4.467634   22.448019    4.315908
  62 C     6.0000    0    12.011  -10.160396   18.612952    2.958366
  63 C     6.0000    0    12.011  -12.222427   19.291968    1.567055
  64 S    16.0000    0    32.060  -12.157081   22.500742    0.759027
  65 C     6.0000    0    12.011   -3.255469   26.583533    3.304186
  66 C     6.0000    0    12.011   -1.052048   25.665051    4.291606
  67 S    16.0000    0    32.060   -1.351003   22.536383    5.345431
  68 C     6.0000    0    12.011   -5.205477   17.865830    5.344712
  69 C     6.0000    0    12.011   -8.555943   27.311494    0.947792
  70 C     6.0000    0    12.011   -4.774053   17.120390    7.767322
  71 C     6.0000    0    12.011   -4.358049   14.491440    7.994808
  72 C     6.0000    0    12.011   -4.436869   13.237739    5.749454
  73 S    16.0000    0    32.060   -5.029790   15.305818    3.278146
  74 C     6.0000    0    12.011  -10.962264   28.258965    0.964478
  75 C     6.0000    0    12.011  -11.234913   30.475840   -0.479140
  76 C     6.0000    0    12.011   -9.062182   31.216915   -1.640925
  77 S    16.0000    0    32.060   -6.602231   29.183608   -0.927213
  78 C     6.0000    0    12.011   -4.108510   10.487489    5.234371
  79 C     6.0000    0    12.011   -6.577343    9.261321    4.361639
  80 C     6.0000    0    12.011   -8.611425   33.478728   -3.253957
  81 C     6.0000    0    12.011   -7.094051   35.489680   -1.833431
  82 C     6.0000    0    12.011  -14.007557   17.468761    0.696288
  83 C     6.0000    0    12.011    1.391349   26.797583    4.346786
  84 C     6.0000    0    12.011    2.200643   29.183627    3.653048
  85 C     6.0000    0    12.011    4.817441   29.551840    3.666182
  86 C     6.0000    0    12.011    6.116609   27.411233    4.372883
  87 S    16.0000    0    32.060    3.998963   24.978135    5.111312
  88 C     6.0000    0    12.011    8.726207   26.724620    4.413852
  89 S    16.0000    0    32.060    9.230651   23.492660    4.663580
  90 C     6.0000    0    12.011   12.495020   23.803009    4.519904
  91 C     6.0000    0    12.011   13.156935   26.324320    4.283593
  92 C     6.0000    0    12.011   11.021865   27.991398    4.231834
  93 C     6.0000    0    12.011   15.781764   27.215817    4.187576
  94 C     6.0000    0    12.011   16.031340   29.957715    4.242114
  95 C     6.0000    0    12.011   13.911843   31.634337    4.181340
  96 C     6.0000    0    12.011   11.297104   30.747337    4.063894
  97 C     6.0000    0    12.011   18.310142   31.197338    4.365022
  98 S    16.0000    0    32.060   17.864866   34.433002    4.431087
  99 C     6.0000    0    12.011   14.610758   34.130948    4.277263
 100 C     6.0000    0    12.011   13.806717   21.445406    4.653110
 101 C     6.0000    0    12.011   16.110066   20.550583    3.852509
 102 C     6.0000    0    12.011   16.307335   17.913564    4.091484
 103 S    16.0000    0    32.060   11.961796   18.974646    5.816520
 104 O     8.0000    0    15.999   17.600078   25.793817    4.099799
 105 O     8.0000    0    15.999    9.506324   32.191201    3.865832
 106 C     6.0000    0    12.011   20.873556   30.058437    4.440441
 107 C     6.0000    0    12.011   22.967278   31.979816    4.877534
 108 C     6.0000    0    12.011   12.999936   36.428024    4.182758
 109 C     6.0000    0    12.011   12.378179   37.126259    1.443430
 110 F     9.0000    0    18.998    0.586174   31.015395    2.969553
 111 F     9.0000    0    18.998   18.376302   16.652966    3.350031
 112 C     6.0000    0    12.011    8.069527    9.986503    6.803675
 113 C     6.0000    0    12.011   10.466494   11.014514    6.280089
 114 C     6.0000    0    12.011   12.428785    9.524635    5.243971
 115 C     6.0000    0    12.011   12.134347    6.956460    4.732101
 116 C     6.0000    0    12.011    9.734206    5.903353    5.264758
 117 C     6.0000    0    12.011    7.765319    7.451209    6.220657
 118 C     6.0000    0    12.011   11.110550   13.589077    6.359155
 119 C     6.0000    0    12.011   13.445874   14.143901    5.412516
 120 S    16.0000    0    32.060   15.049968   11.408031    4.475155
 121 C     6.0000    0    12.011    8.918090    3.368512    4.965766
 122 C     6.0000    0    12.011    6.432628    3.008954    5.568513
 123 S    16.0000    0    32.060    4.962213    5.782883    6.587869
 124 C     6.0000    0    12.011    5.997613   11.548551    7.667998
 125 C     6.0000    0    12.011   14.164707    5.511065    3.610889
 126 C     6.0000    0    12.011    3.558241   11.508980    6.819247
 127 C     6.0000    0    12.011    2.046800   13.429717    7.864738
 128 C     6.0000    0    12.011    3.287311   14.907690    9.562770
 129 S    16.0000    0    32.060    6.393284   13.934406    9.907192
 130 C     6.0000    0    12.011   16.705141    5.761794    4.020581
 131 C     6.0000    0    12.011   18.184041    4.115427    2.544781
 132 C     6.0000    0    12.011   16.801517    2.624508    0.968787
 133 S    16.0000    0    32.060   13.603477    3.220320    1.312320
 134 C     6.0000    0    12.011    2.349402   17.194996   10.903682
 135 C     6.0000    0    12.011    3.460485   19.593966    9.729784
 136 C     6.0000    0    12.011   17.695055    0.603087   -0.774391
 137 C     6.0000    0    12.011   17.515059   -1.998291    0.479990
 138 C     6.0000    0    12.011   14.216523   16.705784    5.073763
 139 C     6.0000    0    12.011    4.936513    0.781629    5.381354
 140 C     6.0000    0    12.011    5.636070   -1.706101    5.019585
 141 C     6.0000    0    12.011    3.648343   -3.424354    4.812320
 142 C     6.0000    0    12.011    1.318367   -2.278292    5.010609
 143 S    16.0000    0    32.060    1.677019    0.967521    5.514504
 144 C     6.0000    0    12.011   -1.199957   -3.174910    4.687314
 145 S    16.0000    0    32.060   -3.517120   -0.853457    4.627202
 146 C     6.0000    0    12.011   -5.877577   -2.983405    3.818400
 147 C     6.0000    0    12.011   -4.899474   -5.412346    3.637874
 148 C     6.0000    0    12.011   -2.261851   -5.539090    4.247802
 149 C     6.0000    0    12.011   -6.303711   -7.665050    2.813443
 150 C     6.0000    0    12.011   -5.015484  -10.047636    3.305414
 151 C     6.0000    0    12.011   -2.469305  -10.189403    4.186688
 152 C     6.0000    0    12.011   -0.925663   -7.942765    4.617829
 153 C     6.0000    0    12.011   -6.127078  -12.377045    3.014453
 154 S    16.0000    0    32.060   -4.044638  -14.756701    3.837675
 155 C     6.0000    0    12.011   -1.674260  -12.625978    4.579600
 156 C     6.0000    0    12.011   -8.359808   -1.925725    3.611701
 157 C     6.0000    0    12.011  -10.597754   -2.863672    2.701628
 158 C     6.0000    0    12.011  -12.571403   -1.096400    2.903073
 159 S    16.0000    0    32.060   -8.764871    1.180228    4.698653
 160 O     8.0000    0    15.999   -8.361055   -7.596718    1.766233
 161 O     8.0000    0    15.999    1.260712   -8.083625    5.348019
 162 C     6.0000    0    12.011   -8.744462  -12.954110    2.180725
 163 C     6.0000    0    12.011   -9.490469  -15.703076    2.577227
 164 C     6.0000    0    12.011    0.820103  -13.572826    5.456811
 165 C     6.0000    0    12.011    2.639702  -13.948050    3.238310
 166 C     6.0000    0    12.011  -11.903328    1.166528    3.932520
 167 F     9.0000    0    18.998    8.064104   -2.425293    4.881276
 168 F     9.0000    0    18.998  -14.932786   -1.598406    2.143271
 169 H     1.0000    0     1.008    7.157016    1.813702   -0.312088
 170 H     1.0000    0     1.008   -5.549918   -2.643954   -1.872624
 171 H     1.0000    0     1.008   -0.366361    6.328277    2.099089
 172 H     1.0000    0     1.008    1.635312   10.742602    1.310412
 173 H     1.0000    0     1.008    1.839252   -7.795517    0.216903
 174 H     1.0000    0     1.008   -0.511398  -11.840476   -1.159989
 175 H     1.0000    0     1.008    5.014596   12.762284   -1.953334
 176 H     1.0000    0     1.008    7.069050   10.612551   -3.492403
 177 H     1.0000    0     1.008    7.324560   12.124766    2.075448
 178 H     1.0000    0     1.008    9.427333   13.113131   -0.320271
 179 H     1.0000    0     1.008    9.338819    9.907324    0.605657
 180 H     1.0000    0     1.008   -5.084932  -13.009555   -2.975582
 181 H     1.0000    0     1.008   -4.284463  -12.035118   -6.057801
 182 H     1.0000    0     1.008   -8.304553   -9.400651   -2.843717
 183 H     1.0000    0     1.008   -8.954562  -11.684498   -5.204665
 184 H     1.0000    0     1.008   -7.576158   -8.760676   -6.022784
 185 H     1.0000    0     1.008   11.022338   -1.028597   -0.869123
 186 H     1.0000    0     1.008   10.446557   -3.819382   -2.642574
 187 H     1.0000    0     1.008   10.379812   -3.925037    0.684591
 188 H     1.0000    0     1.008  -14.174722    0.818497   -3.188705
 189 H     1.0000    0     1.008  -19.088445   15.076065   -2.263117
 190 H     1.0000    0     1.008  -26.296276   10.676272   -2.598581
 191 H     1.0000    0     1.008  -25.320648   10.713594    0.553841
 192 H     1.0000    0     1.008  -29.877005    7.777584   -1.512782
 193 H     1.0000    0     1.008  -30.008265   10.585584    0.282174
 194 H     1.0000    0     1.008  -28.900243    7.764734    1.675998
 195 H     1.0000    0     1.008  -24.283189   -0.806800   -1.550161
 196 H     1.0000    0     1.008  -20.944250   -0.485565   -1.835756
 197 H     1.0000    0     1.008  -24.683848    0.265053   -6.172205
 198 H     1.0000    0     1.008  -22.815571   -2.460197   -5.667345
 199 H     1.0000    0     1.008  -21.346403    0.452911   -6.359722
 200 H     1.0000    0     1.008   -9.901881   16.730180    3.674006
 201 H     1.0000    0     1.008   -3.416908   28.480403    2.601888
 202 H     1.0000    0     1.008   -4.810506   18.403589    9.343467
 203 H     1.0000    0     1.008   -4.027158   13.565645    9.775667
 204 H     1.0000    0     1.008  -12.478693   27.433683    2.035348
 205 H     1.0000    0     1.008  -12.991603   31.481949   -0.659533
 206 H     1.0000    0     1.008   -3.433349    9.560918    6.950602
 207 H     1.0000    0     1.008   -2.686680   10.229730    3.759440
 208 H     1.0000    0     1.008   -8.028350    9.463805    5.802952
 209 H     1.0000    0     1.008   -6.287194    7.260857    3.996884
 210 H     1.0000    0     1.008   -7.247742   10.147300    2.631992
 211 H     1.0000    0     1.008  -10.433915   34.256955   -3.829832
 212 H     1.0000    0     1.008   -7.575799   32.926626   -4.953369
 213 H     1.0000    0     1.008   -8.102352   36.084434   -0.143959
 214 H     1.0000    0     1.008   -6.791165   37.130870   -3.031026
 215 H     1.0000    0     1.008   -5.265363   34.738117   -1.271729
 216 H     1.0000    0     1.008    5.713077   31.297852    3.150268
 217 H     1.0000    0     1.008   17.581596   21.723611    3.093690
 218 H     1.0000    0     1.008   21.188063   29.050042    2.661018
 219 H     1.0000    0     1.008   20.894929   28.609736    5.916506
 220 H     1.0000    0     1.008   22.995265   33.377571    3.369703
 221 H     1.0000    0     1.008   24.791487   31.038298    4.926422
 222 H     1.0000    0     1.008   22.690093   32.958525    6.664176
 223 H     1.0000    0     1.008   13.980629   37.997876    5.094248
 224 H     1.0000    0     1.008   11.236538   36.048359    5.183387
 225 H     1.0000    0     1.008   14.101363   37.444678    0.368024
 226 H     1.0000    0     1.008   11.243625   38.836688    1.398889
 227 H     1.0000    0     1.008   11.310918   35.608336    0.564197
 228 H     1.0000    0     1.008    9.841902   15.037836    6.996239
 229 H     1.0000    0     1.008   10.106879    1.851327    4.332027
 230 H     1.0000    0     1.008    2.894380   10.196962    5.420150
 231 H     1.0000    0     1.008    0.105673   13.725421    7.354474
 232 H     1.0000    0     1.008   17.490776    7.039608    5.390425
 233 H     1.0000    0     1.008   20.212908    4.046225    2.642801
 234 H     1.0000    0     1.008    2.869001   17.109013   12.900329
 235 H     1.0000    0     1.008    0.292341   17.246113   10.760082
 236 H     1.0000    0     1.008    5.510763   19.580964    9.873347
 237 H     1.0000    0     1.008    2.743315   21.258909   10.693129
 238 H     1.0000    0     1.008    2.947217   19.720558    7.744570
 239 H     1.0000    0     1.008   19.655401    0.985435   -1.293329
 240 H     1.0000    0     1.008   16.553888    0.608908   -2.494533
 241 H     1.0000    0     1.008   18.682437   -2.056381    2.170161
 242 H     1.0000    0     1.008   18.157245   -3.457840   -0.814869
 243 H     1.0000    0     1.008   15.572080   -2.400784    1.014348
 244 H     1.0000    0     1.008    3.917421   -5.416711    4.551216
 245 H     1.0000    0     1.008  -10.813863   -4.709953    1.890614
 246 H     1.0000    0     1.008   -8.924288  -12.458964    0.182302
 247 H     1.0000    0     1.008  -10.036789  -11.695761    3.192295
 248 H     1.0000    0     1.008   -8.262620  -16.951108    1.498061
 249 H     1.0000    0     1.008  -11.426380  -16.004242    1.961611
 250 H     1.0000    0     1.008   -9.350063  -16.215702    4.563292
 251 H     1.0000    0     1.008    0.562288  -15.366837    6.444268
 252 H     1.0000    0     1.008    1.631835  -12.189886    6.753333
 253 H     1.0000    0     1.008    1.859396  -15.278190    1.876970
 254 H     1.0000    0     1.008    4.430368  -14.683947    3.922334
 255 H     1.0000    0     1.008    2.985994  -12.153396    2.303236
 256 H     1.0000    0     1.008  -13.069176    2.787195    4.264734

--------------------------------
INTERNAL COORDINATES (ANGSTROEM)
--------------------------------
 C      0   0   0     0.000000000000     0.00000000     0.00000000
 C      1   0   0     1.406657822429     0.00000000     0.00000000
 C      2   1   0     1.414684495038   120.25743557     0.00000000
 C      3   2   1     1.395277984274   123.90761322     1.61897080
 C      4   3   2     1.413458250321   115.82197440   359.91475535
 C      1   2   3     1.393997928155   116.05881987   358.90468858
 C      2   1   3     1.425227125128   127.96184984   179.87704503
 C      7   2   1     1.350663108588   114.03539742   181.67161058
 S      3   2   1     1.744357418593   110.57571226   178.81534903
 C      5   4   3     1.417910405985   128.27435576   177.66311827
 C     10   5   4     1.364882506958   113.78511991   181.88559097
 S      6   1   2     1.742534487148   124.77277426   182.60477120
 C      1   2   3     1.448290488680   123.41923749   182.78615206
 C      4   3   2     1.446778007470   121.38020092   179.56008095
 C     13   1   2     1.368923688523   127.84348531   209.74540186
 C     15  13   1     1.408016514782   113.44783288   188.30055712
 C     16  15  13     1.361433266598   113.54141666   359.70588718
 S     17  16  15     1.729186893398   110.89304353   359.04588935
 C     14   4   3     1.371580681003   127.88853063    31.49278561
 C     19  14   4     1.405975294840   113.58498140   179.70631244
 C     20  19  14     1.362692036742   113.54567565     0.68765220
 S     21  20  19     1.725406694927   110.79161171     0.10541433
 C     17  16  15     1.490287726380   128.48682846   180.38391267
 C     23  17  16     1.529482149683   111.35296677    85.87775926
 C     21  20  19     1.491268784626   128.40826724   180.38841996
 C     25  21  20     1.525829121953   112.21289164   152.26594451
 C      8   7   2     1.483495752235   128.07309900   180.12913259
 C     11  10   5     1.424122745553   127.91236443   177.71977459
 C     28  11  10     1.383229199627   129.46316243   351.74335358
 C     29  28  11     1.395836698221   115.58513862   181.45904122
 C     30  29  28     1.376351572819   112.42812344   359.86048231
 S     28  11  10     1.729776772101   121.47507265   173.36919705
 C     31  30  29     1.426229068383   133.06208691   179.00141139
 S     33  31  30     1.738420911661   114.63913475   186.29341454
 C     34  33  31     1.737286292728    92.93780439   180.78777551
 C     35  34  33     1.384431996777   110.55055172     0.90473903
 C     33  31  30     1.391279418449   134.95314030     8.12263252
 C     36  35  34     1.470022644758   123.44088477   175.12302815
 C     38  36  35     1.457048075597   113.72788788   191.77198385
 C     39  38  36     1.429269477915   122.73261481   350.73938922
 C     40  39  38     1.462164128578   122.80012760   359.03770932
 C     39  38  36     1.374130445991   124.14904673   170.69358462
 S     42  39  38     1.729553436295   110.67345506   181.10427483
 C     40  39  38     1.371796577667   112.81660203   179.29111162
 C     35  34  33     1.429403714176   114.46158114   180.20402859
 C     45  35  34     1.373851189940   134.39494142   151.90508775
 C     46  45  35     1.403582142092   112.30036234   188.27823491
 S     45  35  34     1.744027093224   114.74593050   338.84616317
 O     38  36  35     1.221817699373   123.43861615     9.92447328
 O     41  40  39     1.220006475147   122.12935563   193.30550889
 C     42  39  38     1.485057381147   127.62199501     1.04545552
 C     51  42  39     1.521763588899   113.38501806   191.68180640
 C     44  40  39     1.485119667670   129.11840389   178.69238924
 C     53  44  40     1.531581555778   110.63986915   274.02861535
 F     29  28  11     1.340226639379   122.50231506     0.79740319
 F     47  46  45     1.340015860578   122.10411355   178.63194005
 C     48  45  35     5.257686364410   160.79579775   155.64143468
 C     57  48  45     1.403361856009    42.47598515    18.36512389
 C     58  57  48     1.412725331726   121.40004414   197.50690173
 C     59  58  57     1.394739827782   122.35145756   359.80150908
 C     60  59  58     1.414035224208   116.53155329     0.68540072
 C     57  48  45     1.380503243604   154.53606945   338.68753697
 C     58  57  48     1.407724731757   125.94973125    12.43325608
 C     63  58  57     1.364495774013   113.91701084   187.61925910
 S     64  63  58     1.751361454583   111.79333723   356.07912702
 C     61  60  59     1.418358360852   128.63090822   175.61917503
 C     66  61  60     1.367047194504   113.71800777   185.82046587
 S     62  57  48     1.737532474545   124.48693768   213.49489001
 C     57  48  45     1.458311963950    77.42271383   185.76549458
 C     60  59  58     1.447712974419   120.24398254   178.19788465
 C     69  57  48     1.360597600689   129.51465566   237.66837356
 C     71  69  57     1.413624687249   113.05957375   172.31227343
 C     72  71  69     1.361497177779   113.60662818     0.85095969
 S     73  72  71     1.733882677577   110.86796437     0.07901404
 C     70  60  59     1.368550704285   127.24412888    37.66301417
 C     75  70  60     1.407343702761   113.40777847   182.58022383
 C     76  75  70     1.361508085654   113.49259462     1.02914610
 S     77  76  75     1.730586087226   110.95210265   359.21030740
 C     73  72  71     1.490834926945   129.17381389   180.46794531
 C     79  73  72     1.530071191481   111.69406287   111.39021976
 C     77  76  75     1.489316953271   128.72121248   181.63923799
 C     81  77  76     1.530433895404   111.18153924   105.59141001
 C     47  46  45     1.378240561114   115.53761353   359.37106412
 C     67  66  61     1.425429148081   129.20017892   170.63652734
 C     84  67  66     1.382908583132   131.25005427     6.67997335
 C     85  84  67     1.398408877081   115.62985518   187.72667932
 C     86  85  84     1.376822892968   112.40593564     0.30381941
 S     84  67  66     1.730542225171   119.61434828   193.55401174
 C     87  86  85     1.428104079400   134.12967374   171.77559552
 S     89  87  86     1.736023693531   113.60887596   196.94537476
 C     90  89  87     1.736884123567    93.23571320   178.19212810
 C     91  90  89     1.385088294586   110.27606016   359.92192781
 C     89  87  86     1.390830687395   136.13042637    14.68380717
 C     92  91  90     1.467807941694   123.50670859   178.18374836
 C     94  92  91     1.457234122233   113.89723282   187.02124822
 C     95  94  92     1.430445897823   123.09748229   355.04805826
 C     96  95  94     1.462427845229   122.93818515     0.12752804
 C     95  94  92     1.374303697914   123.76040873   174.82203371
 S     98  95  94     1.728730608308   110.73968924   180.66059713
 C     96  95  94     1.372881248543   112.63223250   179.36116158
 C     91  90  89     1.429423737945   113.46983173   180.34229438
 C    101  91  90     1.374546267101   135.73109129   154.44793074
 C    102 101  91     1.405051638268   112.35097411   190.37156199
 S    101  91  90     1.744031217467   113.57159360   342.61885175
 O     94  92  91     1.222393916338   123.25403860     6.20345282
 O     97  96  95     1.221799651866   122.46378867   184.32683827
 C     98  95  94     1.484893343139   127.52631547     0.58918271
 C    107  98  95     1.521457674403   113.45950931   186.62783118
 C    100  96  95     1.485493157776   129.16993733   178.06039646
 C    109 100  96     1.531694548074   110.64138646   276.59925059
 F     85  84  67     1.341758972618   122.27473799     6.62725652
 F    103 102 101     1.340760462760   121.90208801   178.09861726
 C     24  23  17     3.547884208990   127.73195565   337.72113235
 C    113  24  23     1.407690690919    72.52081809   174.73226266
 C    114 113  24     1.414385666005   121.49470784   277.07416846
 C    115 114 113     1.394482941237   122.44667731   358.57328270
 C    116 115 114     1.415332365665   116.44348843     1.04323975
 C    113  24  23     1.386017090515    90.98770481    57.94977932
 C    114 113  24     1.405006269737   125.97586375    87.71436053
 C    119 114 113     1.365409639486   114.65354677   189.31464209
 S    120 119 114     1.750028885762   111.41422659   357.45210203
 C    117 116 115     1.418042865960   128.57506566   180.88906989
 C    122 117 116     1.366682376048   113.49981250   182.48361718
 S    118 113  24     1.737084996078   124.48775473   253.33728518
 C    113  24  23     1.447266013040   100.64386198   294.72674846
 C    116 115 114     1.446178784141   120.80524301   178.37683020
 C    125 113  24     1.366925295252   127.07262789    58.56934715
 C    127 125 113     1.406729143439   113.36793171   185.86577615
 C    128 127 125     1.360159081946   113.63310394   358.37404855
 S    129 128 127     1.732033123615   110.88655525   359.94139979
 C    126 116 115     1.368157979913   127.85765243    35.89369532
 C    131 126 116     1.407616982705   113.47557427   182.40596893
 C    132 131 126     1.361329894625   113.56578724     1.00910363
 S    133 132 131     1.731021726351   110.82449279   359.41362395
 C    129 128 127     1.488247718258   128.43932050   175.68827124
 C    135 129 128     1.530740301945   110.66505513   256.20427743
 C    133 132 131     1.489539648415   128.68113583   182.79512943
 C    137 133 132     1.531237981079   110.94064326    95.15498995
 C    103 102 101     1.379428245687   115.75268700   359.70860955
 C    123 122 117     1.423316362654   129.37245203   176.43708744
 C    140 123 122     1.380844130306   130.54218329    14.01474001
 C    141 140 123     1.394701727826   115.48344981   182.78060071
 C    142 141 140     1.378053404880   112.45021395     0.07051206
 S    140 123 122     1.729089006095   120.32685586   196.03661307
 C    143 142 141     1.424892808916   132.93000580   173.09178886
 S    145 143 142     1.735991867435   115.28798657   190.44329015
 C    146 145 143     1.736039833760    93.05519564   172.89378817
 C    147 146 145     1.388929193516   110.46613180     0.79263771
 C    145 143 142     1.391055328231   134.21536888     5.81116222
 C    148 147 146     1.470907538698   125.60067961   184.66735550
 C    150 148 147     1.456754496029   114.33141171   192.54318576
 C    151 150 148     1.427775608175   123.05584458   351.74177816
 C    152 151 150     1.460385072164   122.41874562   358.68397024
 C    151 150 148     1.374480491931   123.77320600   170.58594470
 S    154 151 150     1.729123814219   110.61949738   181.29585186
 C    152 151 150     1.372128576045   112.84391190   178.41312310
 C    147 146 145     1.431996999299   115.15465481   177.83707844
 C    157 147 146     1.371414509403   132.64639794   169.62548361
 C    158 157 147     1.405971140564   111.96936034   179.75906556
 S    157 147 146     1.754482949076   116.94763782   349.65448890
 O    150 148 147     1.222157330788   124.09269121    13.60343435
 O    153 152 151     1.222073603348   121.95774691   180.75696591
 C    154 151 150     1.485358763599   128.07667798     0.00000000
 C    163 154 151     1.521837961611   113.41892863   191.55034056
 C    156 152 151     1.486212348253   129.52752658   179.35301004
 C    165 156 152     1.531277984593   111.26797073   272.58172871
 C    159 158 157     1.362251525453   114.97685784     0.21465106
 F    141 140 123     1.342036933955   122.31597154     2.90383711
 F    159 158 157     1.339292863977   122.57394557   180.28675929
 H      7   2   1     1.074363703082   123.69040554     1.91362808
 H     10   5   4     1.072480261870   124.46371460     2.31767374
 H     15  13   1     1.075148527414   123.14652281    10.47797942
 H     16  15  13     1.076104954268   123.77851568   177.63414252
 H     19  14   4     1.073873822989   123.47274699     2.20947650
 H     20  19  14     1.075469570978   123.36048179   180.90345356
 H     23  17  16     1.092482902795   108.94305710   325.30686736
 H     23  17  16     1.091708825878   109.46300928   206.89882792
 H     24  23  17     1.087057404786   110.22544685   298.60236671
 H     24  23  17     1.087264039919   110.42704620   178.56936170
 H     24  23  17     1.087937714623   110.35252119    58.49584132
 H     25  21  20     1.093947967410   108.32175328    30.01412753
 H     25  21  20     1.095908656230   109.26385136   273.58008314
 H     26  25  21     1.088272959602   110.65401310   306.78298637
 H     26  25  21     1.087603146787   110.49068169   185.90410699
 H     26  25  21     1.087771739934   110.31202511    66.04827609
 H     27   8   7     1.087409669720   109.71196615   352.51707237
 H     27   8   7     1.089114118998   110.63797192   231.74827657
 H     27   8   7     1.089990301104   110.20125868   112.49364539
 H     30  29  28     1.073892785570   123.62122887   179.48316008
 H     46  45  35     1.073308490090   124.13471816     7.58580000
 H     51  42  39     1.095205334218   108.27818678    69.25379344
 H     51  42  39     1.094221770712   108.26391239   314.97682861
 H     52  51  42     1.088248003720   110.63850127   299.29410402
 H     52  51  42     1.086699135088   110.14829517   179.35751063
 H     52  51  42     1.087968999053   110.59351114    59.39136887
 H     53  44  40     1.091950568341   109.57343696   152.96176685
 H     53  44  40     1.091772212597   108.92392159    33.40247002
 H     54  53  44     1.088133505274   110.64613298   301.78413441
 H     54  53  44     1.086358158988   109.84680823   181.56459923
 H     54  53  44     1.086535831853   109.70042743    62.21999372
 H     63  58  57     1.074607589960   123.63054092     5.55327700
 H     66  61  60     1.073773189691   124.07753397     3.89720719
 H     71  69  57     1.075696755271   122.99361876   354.21404012
 H     72  71  69     1.076462135981   123.21395451   181.37692137
 H     75  70  60     1.075077965731   123.30433501     4.90677206
 H     76  75  70     1.075513449335   123.32799134   180.62082775
 H     79  73  72     1.092186695076   108.92632031   349.84631920
 H     79  73  72     1.092653179193   109.43398794   231.71463661
 H     80  79  73     1.087559622366   110.44915127   300.03998745
 H     80  79  73     1.086952258381   110.24269461   179.92333975
 H     80  79  73     1.087851730384   110.46531841    60.08450052
 H     81  77  76     1.092047671304   108.75719650   344.61821215
 H     81  77  76     1.092893796579   109.69899082   226.33365874
 H     82  81  77     1.087677138999   110.33745742   300.42002369
 H     82  81  77     1.087002105058   110.27597929   180.34304843
 H     82  81  77     1.087643393627   110.29053808    60.30134673
 H     86  85  84     1.073706973573   123.76184835   179.25722250
 H    102 101  91     1.073747754410   124.00037409     9.18183112
 H    107  98  95     1.095041691535   108.27127230    63.93449350
 H    107  98  95     1.094509639291   108.23437343   309.79205287
 H    108 107  98     1.088106897230   110.65268086   299.56869708
 H    108 107  98     1.086629835178   110.12902677   179.63393066
 H    108 107  98     1.087943699371   110.61345948    59.70107995
 H    109 100  96     1.091825851544   109.57168304   155.55286518
 H    109 100  96     1.091565202221   108.88100005    35.94433237
 H    110 109 100     1.088003305739   110.63042005   301.74548822
 H    110 109 100     1.086394911485   109.89035188   181.54644297
 H    110 109 100     1.086578063602   109.78957501    62.13194892
 H    119 114 113     1.073362126684   123.38244016     5.53253196
 H    122 117 116     1.073681589485   124.31534730     2.54373609
 H    127 125 113     1.074056809950   123.04340624     2.89936573
 H    128 127 125     1.073562588208   123.39508660   177.47367351
 H    131 126 116     1.074959615893   123.22140696     4.72157157
 H    132 131 126     1.075505880133   123.32050069   180.69499693
 H    135 129 128     1.092718878761   110.07431214   135.29679724
 H    135 129 128     1.091534371928   108.63529171    16.48176663
 H    136 135 129     1.087638256453   110.46066033   299.21520475
 H    136 135 129     1.086348282550   110.36386500   178.96627942
 H    136 135 129     1.087139794645   110.32167185    59.15588090
 H    137 133 132     1.092009431232   108.91907787   334.49325765
 H    137 133 132     1.092361574022   109.78765843   215.98433080
 H    138 137 133     1.087433386512   110.28093121   299.59153524
 H    138 137 133     1.086985346083   110.24743022   179.53702100
 H    138 137 133     1.087417916626   110.34230471    59.47603677
 H    142 141 140     1.072816590616   123.41652341   180.79144056
 H    158 157 147     1.073225809697   124.18827538   358.40247980
 H    163 154 151     1.093644574988   108.60824726    69.10331665
 H    163 154 151     1.094364545752   108.19930429   314.66356363
 H    164 163 154     1.088330736633   110.66117099   299.00513156
 H    164 163 154     1.086739252719   110.08305148   179.13540329
 H    164 163 154     1.087964550571   110.72029716    59.16121382
 H    165 156 152     1.092211801346   109.36143453   151.57666918
 H    165 156 152     1.091234714899   108.65603781    32.28464971
 H    166 165 156     1.088536509677   110.65220412   301.33947416
 H    166 165 156     1.086544096528   109.84394464   181.40152260
 H    166 165 156     1.086433841060   109.99238416    61.99750207
 H    167 159 158     1.070996110170   128.32086016   179.73596364

---------------------------
INTERNAL COORDINATES (A.U.)
---------------------------
 C      0   0   0     0.000000000000     0.00000000     0.00000000
 C      1   0   0     2.658198048528     0.00000000     0.00000000
 C      2   1   0     2.673366261526   120.25743557     0.00000000
 C      3   2   1     2.636693270968   123.90761322     1.61897080
 C      4   3   2     2.671048994838   115.82197440   359.91475535
 C      1   2   3     2.634274315466   116.05881987   358.90468858
 C      2   1   3     2.693288945127   127.96184984   179.87704503
 C      7   2   1     2.552383374422   114.03539742   181.67161058
 S      3   2   1     3.296357800814   110.57571226   178.81534903
 C      5   4   3     2.679462349748   128.27435576   177.66311827
 C     10   5   4     2.579254143131   113.78511991   181.88559097
 S      6   1   2     3.292912959623   124.77277426   182.60477120
 C      1   2   3     2.736872385968   123.41923749   182.78615206
 C      4   3   2     2.734014210699   121.38020092   179.56008095
 C     13   1   2     2.586890869546   127.84348531   209.74540186
 C     15  13   1     2.660765604977   113.44783288   188.30055712
 C     16  15  13     2.572736023480   113.54141666   359.70588718
 S     17  16  15     3.267689662889   110.89304353   359.04588935
 C     14   4   3     2.591911857672   127.88853063    31.49278561
 C     19  14   4     2.656908258306   113.58498140   179.70631244
 C     20  19  14     2.575114754318   113.54567565     0.68765220
 S     21  20  19     3.260546123047   110.79161171     0.10541433
 C     17  16  15     2.816235663603   128.48682846   180.38391267
 C     23  17  16     2.890302389623   111.35296677    85.87775926
 C     21  20  19     2.818089595009   128.40826724   180.38841996
 C     25  21  20     2.883399167653   112.21289164   152.26594451
 C      8   7   2     2.803400692560   128.07309900   180.12913259
 C     11  10   5     2.691201970182   127.91236443   177.71977459
 C     28  11  10     2.613924367738   129.46316243   351.74335358
 C     29  28  11     2.637749087314   115.58513862   181.45904122
 C     30  29  28     2.600927536619   112.42812344   359.86048231
 S     28  11  10     3.268804372089   121.47507265   173.36919705
 C     31  30  29     2.695182343481   133.06208691   179.00141139
 S     33  31  30     3.285139428521   114.63913475   186.29341454
 C     34  33  31     3.282995309471    92.93780439   180.78777551
 C     35  34  33     2.616197324946   110.55055172     0.90473903
 C     33  31  30     2.629137076630   134.95314030     8.12263252
 C     36  35  34     2.777940209254   123.44088477   175.12302815
 C     38  36  35     2.753421826835   113.72788788   191.77198385
 C     39  38  36     2.700927884832   122.73261481   350.73938922
 C     40  39  38     2.763089765856   122.80012760   359.03770932
 C     39  38  36     2.596730215206   124.14904673   170.69358462
 S     42  39  38     3.268382328580   110.67345506   181.10427483
 C     40  39  38     2.592319843242   112.81660203   179.29111162
 C     35  34  33     2.701181554602   114.46158114   180.20402859
 C     45  35  34     2.596202497749   134.39494142   151.90508775
 C     46  45  35     2.652385855017   112.30036234   188.27823491
 S     45  35  34     3.295733576332   114.74593050   338.84616317
 O     38  36  35     2.308900837392   123.43861615     9.92447328
 O     41  40  39     2.305478119638   122.12935563   193.30550889
 C     42  39  38     2.806351743527   127.62199501     1.04545552
 C     51  42  39     2.875716423593   113.38501806   191.68180640
 C     44  40  39     2.806469447996   129.11840389   178.69238924
 C     53  44  40     2.894269692186   110.63986915   274.02861535
 F     29  28  11     2.532661305811   122.50231506     0.79740319
 F     47  46  45     2.532262991603   122.10411355   178.63194005
 C     48  45  35     9.935587326786   160.79579775   155.64143468
 C     57  48  45     2.651969574648    42.47598515    18.36512389
 C     58  57  48     2.669663979415   121.40004414   197.50690173
 C     59  58  57     2.635676302580   122.35145756   359.80150908
 C     60  59  58     2.672139317470   116.53155329     0.68540072
 C     57  48  45     2.608773057401   154.53606945   338.68753697
 C     58  57  48     2.660214214968   125.94973125    12.43325608
 C     63  58  57     2.578523323778   113.91701084   187.61925910
 S     64  63  58     3.309593510668   111.79333723   356.07912702
 C     61  60  59     2.680308861769   128.63090822   175.61917503
 C     66  61  60     2.583344809757   113.71800777   185.82046587
 S     62  57  48     3.283460525685   124.48693768   213.49489001
 C     57  48  45     2.755810229687    77.42271383   185.76549458
 C     60  59  58     2.735781042176   120.24398254   178.19788465
 C     69  57  48     2.571156843772   129.51465566   237.66837356
 C     71  69  57     2.671363515051   113.05957375   172.31227343
 C     72  71  69     2.572856798109   113.60662818     0.85095969
 S     73  72  71     3.276563408970   110.86796437     0.07901404
 C     70  60  59     2.586186031484   127.24412888    37.66301417
 C     75  70  60     2.659494174516   113.40777847   182.58022383
 C     76  75  70     2.572877411005   113.49259462     1.02914610
 S     77  76  75     3.270333756031   110.95210265   359.21030740
 C     73  72  71     2.817269722811   129.17381389   180.46794531
 C     79  73  72     2.891415517302   111.69406287   111.39021976
 C     77  76  75     2.814401168288   128.72121248   181.63923799
 C     81  77  76     2.892100928383   111.18153924   105.59141001
 C     47  46  45     2.604497207168   115.53761353   359.37106412
 C     67  66  61     2.693670713182   129.20017892   170.63652734
 C     84  67  66     2.613318490368   131.25005427     6.67997335
 C     85  84  67     2.642609800928   115.62985518   187.72667932
 C     86  85  84     2.601818202622   112.40593564     0.30381941
 S     84  67  66     3.270250868760   119.61434828   193.55401174
 C     87  86  85     2.698725600802   134.12967374   171.77559552
 S     89  87  86     3.280609342771   113.60887596   196.94537476
 C     90  89  87     3.282235319898    93.23571320   178.19212810
 C     91  90  89     2.617437548068   110.27606016   359.92192781
 C     89  87  86     2.628289097830   136.13042637    14.68380717
 C     92  91  90     2.773755026996   123.50670859   178.18374836
 C     94  92  91     2.753773404025   113.89723282   187.02124822
 C     95  94  92     2.703150996277   123.09748229   355.04805826
 C     96  95  94     2.763588118103   122.93818515     0.12752804
 C     95  94  92     2.597057613893   123.76040873   174.82203371
 S     98  95  94     3.266827409029   110.73968924   180.66059713
 C     96  95  94     2.594369574141   112.63223250   179.36116158
 C     91  90  89     2.701219394042   113.46983173   180.34229438
 C    101  91  90     2.597516003224   135.73109129   154.44793074
 C    102 101  91     2.655162800344   112.35097411   190.37156199
 S    101  91  90     3.295741370022   113.57159360   342.61885175
 O     94  92  91     2.309989729650   123.25403860     6.20345282
 O     97  96  95     2.308866732547   122.46378867   184.32683827
 C     98  95  94     2.806041756616   127.52631547     0.58918271
 C    107  98  95     2.875138328975   113.45950931   186.62783118
 C    100  96  95     2.807175242011   129.16993733   178.06039646
 C    109 100  96     2.894483216680   110.64138646   276.59925059
 F     85  84  67     2.535556995979   122.27473799     6.62725652
 F    103 102 101     2.533670085806   121.90208801   178.09861726
 C     24  23  17     6.704529509855   127.73195565   337.72113235
 C    113  24  23     2.660149887107    72.52081809   174.73226266
 C    114 113  24     2.672801556493   121.49470784   277.07416846
 C    115 114 113     2.635190857362   122.44667731   358.57328270
 C    116 115 114     2.674590559582   116.44348843     1.04323975
 C    113  24  23     2.619192718008    90.98770481    57.94977932
 C    114 113  24     2.655077066245   125.97586375    87.71436053
 C    119 114 113     2.580250279244   114.65354677   189.31464209
 S    120 119 114     3.307075320541   111.41422659   357.45210203
 C    117 116 115     2.679712662825   128.57506566   180.88906989
 C    122 117 116     2.582655402787   113.49981250   182.48361718
 S    118 113  24     3.282614913931   124.48775473   253.33728518
 C    113  24  23     2.734936407577   100.64386198   294.72674846
 C    116 115 114     2.732881842714   120.80524301   178.37683020
 C    125 113  24     2.583114453556   127.07262789    58.56934715
 C    127 125 113     2.658332825705   113.36793171   185.86577615
 C    128 127 125     2.570328163444   113.63310394   358.37404855
 S    129 128 127     3.273068258513   110.88655525   359.94139979
 C    126 116 115     2.585443889975   127.85765243    35.89369532
 C    131 126 116     2.660010598769   113.47557427   182.40596893
 C    132 131 126     2.572540678761   113.56578724     1.00910363
 S    133 132 131     3.271156994671   110.82449279   359.41362395
 C    129 128 127     2.812380606941   128.43932050   175.68827124
 C    135 129 128     2.892679952833   110.66505513   256.20427743
 C    133 132 131     2.814822001122   128.68113583   182.79512943
 C    137 133 132     2.893620430098   110.94064326    95.15498995
 C    103 102 101     2.606741605744   115.75268700   359.70860955
 C    123 122 117     2.689678127346   129.37245203   176.43708744
 C    140 123 122     2.609417239911   130.54218329    14.01474001
 C    141 140 123     2.635604304097   115.48344981   182.78060071
 C    142 141 140     2.604143533140   112.45021395     0.07051206
 S    140 123 122     3.267504682694   120.32685586   196.03661307
 C    143 142 141     2.692657179045   132.93000580   173.09178886
 S    145 143 142     3.280549200166   115.28798657   190.44329015
 C    146 145 143     3.280639843384    93.05519564   172.89378817
 C    147 146 145     2.624695795153   110.46613180     0.79263771
 C    145 143 142     2.628713607489   134.21536888     5.81116222
 C    148 147 146     2.779612416460   125.60067961   184.66735550
 C    150 148 147     2.752867041853   114.33141171   192.54318576
 C    151 150 148     2.698104880144   123.05584458   351.74177816
 C    152 151 150     2.759727836457   122.41874562   358.68397024
 C    151 150 148     2.597391706168   123.77320600   170.58594470
 S    154 151 150     3.267570460516   110.61949738   181.29585186
 C    152 151 150     2.592947229253   112.84391190   178.41312310
 C    147 146 145     2.706082153271   115.15465481   177.83707844
 C    157 147 146     2.591597838857   132.64639794   169.62548361
 C    158 157 147     2.656900407864   111.96936034   179.75906556
 S    157 147 146     3.315492280389   116.94763782   349.65448890
 O    150 148 147     2.309542647754   124.09269121    13.60343435
 O    153 152 151     2.309384425822   121.95774691   180.75696591
 C    154 151 150     2.806921273822   128.07667798     0.00000000
 C    163 154 151     2.875856967650   113.41892863   191.55034056
 C    156 152 151     2.808534315050   129.52752658   179.35301004
 C    165 156 152     2.893696025784   111.26797073   272.58172871
 C    159 158 157     2.574282308623   114.97685784     0.21465106
 F    141 140 123     2.536082266783   122.31597154     2.90383711
 F    159 158 157     2.530896726032   122.57394557   180.28675929
[...]
  80   35011.6    285.6   0.014913303   0.00357   0.05596   0.01388  -0.01564
  81   35058.7    285.2   0.020580933   0.00493  -0.06773   0.00117   0.01853
  82   35150.2    284.5   0.024881746   0.00598   0.03646  -0.06800  -0.00500
  83   35173.2    284.3   0.046659480   0.01122   0.04092   0.09753  -0.00545
  84   35238.4    283.8   0.017788251   0.00428  -0.02244  -0.05745  -0.02192
  85   35493.8    281.7   0.014796414   0.00359   0.01212  -0.04499  -0.03767
  86   35546.5    281.3   0.012763777   0.00310  -0.04705  -0.01899   0.02295
  87   35680.0    280.3   0.031420096   0.00766  -0.07215   0.04440  -0.02204
  88   35944.3    278.2   0.013711025   0.00337   0.01064   0.04852   0.03001
  89   35994.0    277.8   0.048965340   0.01205   0.02384   0.10658  -0.01082
  90   36155.7    276.6   0.014434693   0.00357   0.05402  -0.02328  -0.01034
  91   36224.6    276.1   0.030842050   0.00764  -0.08322  -0.02543  -0.00794
  92   36282.8    275.6   0.038557953   0.00956   0.03125   0.09240   0.00683
  93   36335.4    275.2   0.048501636   0.01204   0.08017  -0.07270  -0.01822
  94   36404.6    274.7   0.040882431   0.01017   0.06623   0.07451  -0.01530
  95   36455.4    274.3   0.019248208   0.00480   0.03026   0.06220  -0.00337
  96   36552.3    273.6   0.034986239   0.00874   0.04136   0.08293   0.01231
  97   36581.1    273.4   0.012230336   0.00306   0.00571   0.01115   0.05386
  98   36783.7    271.9   0.024404006   0.00614  -0.07018   0.03474  -0.00175
  99   36792.5    271.8   0.024527005   0.00617  -0.07252   0.02416  -0.01804
 100   36853.5    271.3   0.014089326   0.00355  -0.02589  -0.05261   0.01050
 101   36939.2    270.7   0.025989769   0.00656   0.07996   0.01168   0.00555
 102   37024.1    270.1   0.017794619   0.00450  -0.04669  -0.00828  -0.04748
 103   37103.4    269.5   0.002651713   0.00067  -0.01630   0.01998  -0.00275
 104   37117.5    269.4   0.007335902   0.00186   0.04058   0.00242   0.01445
 105   37200.0    268.8   0.002530748   0.00064   0.01994   0.01566   0.00057
 106   37258.3    268.4   0.022806923   0.00581  -0.06981   0.01383   0.02726
 107   37303.6    268.1   0.065213336   0.01663  -0.07339  -0.09682  -0.04320
 108   37366.0    267.6   0.004830980   0.00123  -0.02673  -0.01689  -0.01530
 109   37432.7    267.1   0.015741482   0.00403  -0.05167   0.00794   0.03598
 110   37538.6    266.4   0.013709040   0.00352   0.05796   0.01013   0.00741
 111   37583.2    266.1   0.011099028   0.00285  -0.04025   0.03489   0.00367
 112   37682.1    265.4   0.009846775   0.00254   0.00102  -0.04769  -0.01614
 113   37747.9    264.9   0.049177102   0.01269   0.06006  -0.08790  -0.03681
 114   37816.9    264.4   0.030436840   0.00787  -0.05747   0.06682  -0.00993
 115   37895.3    263.9   0.025369547   0.00657  -0.02072  -0.07667   0.01620
 116   37943.4    263.6   0.005178386   0.00134  -0.01803   0.01874  -0.02582
 117   38029.9    263.0   0.025549956   0.00664  -0.02730   0.07589  -0.01169
 118   38073.6    262.6   0.024028875   0.00625  -0.03966  -0.06831   0.00373
 119   38128.3    262.3   0.033047513   0.00861  -0.08856   0.02684   0.00702
 120   38253.4    261.4   0.026680005   0.00698  -0.08208  -0.01014  -0.01167
 121   38304.6    261.1   0.001768729   0.00046   0.02027  -0.00576   0.00438
 122   38341.2    260.8   0.006436277   0.00169   0.00569  -0.03970   0.00883
 123   38408.5    260.4   0.015371176   0.00403   0.05493   0.01529  -0.02800
 124   38461.1    260.0   0.043975975   0.01156   0.10464   0.01434   0.02012
 125   38504.6    259.7   0.029044055   0.00764  -0.08308  -0.02719   0.00143
 126   38561.9    259.3   0.007913154   0.00209  -0.03891   0.02006  -0.01300
 127   38579.3    259.2   0.008171633   0.00215   0.03863  -0.00187  -0.02567
 128   38640.0    258.8   0.041242787   0.01089  -0.08398  -0.06154   0.00719
 129   38675.7    258.6   0.021872134   0.00578   0.06614  -0.03625  -0.00966
 130   38745.2    258.1   0.039436087   0.01044  -0.05016   0.08234  -0.03386
 131   38809.5    257.7   0.012081093   0.00320   0.01155  -0.04462  -0.03286
 132   38897.3    257.1   0.035682752   0.00949  -0.01591   0.09216  -0.02719
 133   38920.9    256.9   0.001322572   0.00035   0.01283   0.01354  -0.00197
 134   38954.4    256.7   0.011373712   0.00303  -0.04964   0.02232  -0.00811
 135   38997.4    256.4   0.049327732   0.01315  -0.11159   0.02279  -0.01324
 136   39050.2    256.1   0.003055605   0.00082  -0.01596   0.00091  -0.02366
 137   39086.7    255.8   0.004333140   0.00116  -0.01485  -0.02900   0.00980
 138   39135.9    255.5   0.003733754   0.00100   0.01896  -0.02441   0.00660
 139   39268.8    254.7   0.021332233   0.00573  -0.01351   0.07396   0.00854
 140   39306.4    254.4   0.038443970   0.01033  -0.09201  -0.03228  -0.02861
 141   39340.8    254.2   0.002804812   0.00075   0.01749  -0.01968   0.00780
 142   39390.3    253.9   0.049351792   0.01329   0.11252  -0.02278   0.01035
 143   39409.1    253.7   0.002233393   0.00060   0.02079  -0.01233  -0.00414
 144   39436.8    253.6   0.029780800   0.00803  -0.06991  -0.05590   0.00374
 145   39505.1    253.1   0.013419168   0.00362  -0.04266  -0.04242  -0.00180
 146   39544.9    252.9   0.004595613   0.00124  -0.01729   0.02567   0.01686
 147   39602.9    252.5   0.062170791   0.01683   0.12905  -0.01266  -0.00372
 148   39627.7    252.3   0.014365310   0.00389   0.00220  -0.05857   0.02134
 149   39757.1    251.5   0.007997891   0.00217  -0.02989  -0.03574   0.00154
 150   39780.2    251.4   0.014139402   0.00384   0.04780  -0.03929   0.00391
 151   39826.3    251.1   0.016382701   0.00446  -0.01190  -0.06094  -0.02456
 152   39878.9    250.8   0.011206436   0.00305  -0.01929   0.04714   0.02145
 153   39936.8    250.4   0.003496717   0.00095   0.02332   0.00432  -0.01979
 154   39977.4    250.1   0.001521121   0.00042   0.01110   0.01709   0.00059
 155   40055.9    249.7   0.023591199   0.00646   0.03832  -0.07063   0.00103
 156   40061.2    249.6   0.001110500   0.00030  -0.00929  -0.00023   0.01475
 157   40121.5    249.2   0.011555176   0.00317   0.01838   0.05011   0.01788
 158   40133.6    249.2   0.033602247   0.00922   0.08567  -0.04205   0.01047
 159   40239.5    248.5   0.021805418   0.00600  -0.03664  -0.06769   0.00851

-------------------------------------------------------------------
                             CD SPECTRUM
-------------------------------------------------------------------
State   Energy Wavelength       R         MX        MY        MZ   
        (cm-1)   (nm)       (1e40*cgs)   (au)      (au)      (au)  
-------------------------------------------------------------------
   0   17862.5    559.8     -3.16857   0.02066  -0.42443  -1.00647
   1   18402.4    543.4    -1857.19231  -2.91530  -0.26216  10.73127
   2   19950.7    501.2    2523.61560   0.18591  -2.59563   4.29737
   3   20868.1    479.2    -1023.30626  -0.00813   2.06631  -6.56488
   4   21836.8    457.9    312.05268  -0.19346  -0.42645   3.35133
   5   22017.3    454.2    -195.52520  -0.99643  -0.34860   1.80914
   6   23042.8    434.0    -138.89146   0.18205  -0.47171   0.16819
   7   23424.1    426.9    -10.87921   0.57979   0.19199  -0.17070
   8   23557.2    424.5    -43.09699   0.98302  -0.25334  -0.92278
   9   24050.8    415.8    223.04538   0.37603   0.08533  -2.38480
  10   24296.2    411.6    -76.33546  -0.08917  -0.38940   0.31923
  11   24835.1    402.7    220.62238   0.39902  -0.06588   2.60368
  12   24908.4    401.5    293.26299   1.38675   0.06552   1.02696
  13   25403.7    393.6    -106.24687  -0.08082   0.15527   1.60198
  14   25471.0    392.6    -86.55078  -0.11545   0.16167  -1.77599
  15   25911.0    385.9    -34.04229   0.27911  -0.03622  -1.18485
  16   26229.4    381.3    -146.17871   0.28947  -0.05635   3.55813
  17   26989.4    370.5    132.29988   0.04664   0.30188  -0.91094
  18   27070.2    369.4    -24.08195   0.88105  -0.30976   1.29779
  19   27558.1    362.9    -139.02221   0.85595  -0.22436   0.84206
  20   27894.6    358.5    -50.46347  -0.43686  -1.47271   2.81791
  21   28027.3    356.8     -8.57101  -0.07150   0.38815  -0.18401
  22   28250.9    354.0     65.39309   0.22007  -0.51352   1.02271
  23   28456.5    351.4    -25.84953   0.07193  -0.24277   0.39655
  24   28578.4    349.9     39.77038   0.77478   0.59633  -1.22671
  25   28914.2    345.9     80.80483  -0.42131   0.21461   0.65343
  26   28970.3    345.2     90.02937   0.15426   0.57540  -0.91144
  27   29112.2    343.5    -157.39893   0.22255  -1.00674   0.75523
  28   29733.0    336.3     36.25863   0.59788   0.30532   0.08114
  29   29838.8    335.1    -137.53204  -1.46809  -0.83886   1.40467
  30   29992.2    333.4    -34.30449  -0.66357  -0.75138   2.03137
  31   30261.2    330.5    233.94410  -0.89482  -0.56198  -0.04915
  32   30367.2    329.3     12.61640   1.19815  -0.24547   0.34552
  33   30450.4    328.4    -62.86537   0.29451  -0.57273   0.46799
  34   30564.7    327.2    -108.70023   0.18096   0.32021   0.49380
  35   30976.8    322.8     17.00894   0.57408   0.03010   0.43732
  36   31188.8    320.6      2.09204  -0.37272  -0.54345   1.71659
  37   31248.4    320.0    -16.71741  -0.39838  -0.14673   0.51672
  38   31441.2    318.1     57.06698   0.06908  -0.06889  -0.61322
  39   31602.6    316.4     96.45600   0.78983   0.20394  -1.02209
  40   31960.6    312.9    -112.87021  -1.69300  -0.43274   1.75057
  41   32033.9    312.2      8.74963   0.41199   0.06845  -1.09457
  42   32122.1    311.3    -16.07052  -0.05012   0.14819  -0.42001
  43   32241.6    310.2    -33.61190   0.21672  -0.02301  -0.86464
  44   32270.8    309.9     28.98637   0.09503   1.00191  -0.86451
  45   32405.9    308.6     14.41574   0.02815  -0.11737  -0.21985
  46   32504.1    307.7     32.89888   0.36009  -0.19868   0.85628
  47   32565.1    307.1     -0.50974   0.02636  -0.12128  -0.51567
  48   32665.2    306.1    -81.01905  -0.73073  -0.49891  -0.35043
  49   32710.7    305.7    -48.49124   0.25320   0.16878   1.27673
  50   32893.8    304.0    -23.11660  -0.46463  -0.06332   0.33333
  51   32961.3    303.4    -11.29772   0.45456  -0.13105  -0.28013
  52   33052.2    302.6     60.66978  -0.11402   0.59863  -0.95208
  53   33083.0    302.3    -58.23575   0.00145  -0.22557   2.33376
  54   33198.0    301.2    -37.07828  -0.30488   0.09038  -0.70585
  55   33265.9    300.6    124.99131   0.35630  -0.25104   1.12466
  56   33347.9    299.9     18.97607   0.55787  -0.22537   2.36726
  57   33392.9    299.5     -9.19259   0.06488  -0.29825   0.48586
  58   33454.9    298.9     34.04404   0.22528   0.02724   1.27923
  59   33536.4    298.2     45.14583  -0.36276   0.18374   0.00799
  60   33555.2    298.0    -14.55707  -0.08737   0.26653   1.15653
  61   33653.4    297.1    109.88844  -0.70748   0.71305  -3.69774
  62   33678.5    296.9    -233.82688  -0.05465  -0.14644  -2.83396
  63   33756.9    296.2     51.81463   0.07066  -0.27435  -0.68730
  64   33815.6    295.7    115.56921  -0.21024   0.63441  -1.54964
  65   33901.0    295.0      2.70350  -0.12260  -0.06623   0.14329
  66   33959.2    294.5    -49.61355   1.00559  -0.32802   0.48660
  67   33999.7    294.1      7.26660  -0.08181   0.06797   1.19615
  68   34102.5    293.2    -81.81429   0.41055   0.24297  -0.35573
  69   34150.8    292.8     15.68824   0.43663  -0.02735  -0.17798
  70   34169.0    292.7    124.85814  -0.14437  -0.63173  -0.32437
  71   34276.7    291.7     23.10767  -0.65606  -0.13934   0.68852
  72   34372.8    290.9    -29.70445   0.16842  -0.03817  -0.43525
  73   34415.7    290.6      0.25248   0.39546   0.13987  -0.88205
  74   34536.7    289.5    107.79526   0.04347  -0.01968  -1.46617
  75   34602.0    289.0     -9.22227   1.23505   0.55169  -2.94710
  76   34648.2    288.6    -10.12824  -0.07483  -0.21203   0.43714
  77   34715.5    288.1    -20.49070   0.54452   0.16256  -0.81746
  78   34792.9    287.4    -14.53206  -0.19452  -0.16278   0.74740
  79   34939.9    286.2    -13.73137  -0.20797  -0.07773  -0.18944
  80   35011.6    285.6    -64.82228   0.29797   0.58381  -0.59715
  81   35058.7    285.2     42.95682   0.04844   0.24644  -1.07650
  82   35150.2    284.5     30.38964  -0.39971   0.09051  -0.27488
  83   35173.2    284.3    -142.06436   0.57050   0.61711   1.01583
  84   35238.4    283.8     -0.83606  -0.53192   0.11981   0.15319
  85   35493.8    281.7     -0.53623   0.00308  -0.04181   0.03388
  86   35546.5    281.3     42.59661   0.03591   0.01957  -1.06322
  87   35680.0    280.3    -35.55945  -0.03588   0.16686  -0.61971
  88   35944.3    278.2      7.37494  -0.03274   0.42542  -0.83498
  89   35994.0    277.8     -8.34219   0.41744   0.07987   1.15678
  90   36155.7    276.6     -4.94563   0.21198   0.10497   0.74327
  91   36224.6    276.1     15.19159   0.14830   0.13719  -0.61055
  92   36282.8    275.6    -72.85547   1.09160   0.07757   0.81836
  93   36335.4    275.2    -20.86245  -0.03644   0.05273  -1.12356
  94   36404.6    274.7      2.51538   0.17126   0.00678   0.76798
  95   36455.4    274.3    -23.43082   0.67940  -0.02359   1.11090
  96   36552.3    273.6    -37.15722   0.28171   0.06519   0.70530
  97   36581.1    273.4     24.40096  -0.56468  -0.14536  -0.15580
  98   36783.7    271.9      3.09312   0.33059   0.61737   0.26461
  99   36792.5    271.8     43.41848   0.83609   0.10753  -1.28470
 100   36853.5    271.3      1.96862  -0.08639  -0.01087  -0.33421
 101   36939.2    270.7     19.65772  -0.14997  -0.25005   0.22933
 102   37024.1    270.1    139.99178   0.74468   0.02312   1.19887
 103   37103.4    269.5     -5.29284   0.07867   0.15089  -0.78904
 104   37117.5    269.4      7.38865  -0.24750   0.11341   0.27755
 105   37200.0    268.8     -6.33657   0.25207   0.04650   0.36516
 106   37258.3    268.4    -12.39505  -0.12502   0.05975  -0.07456
 107   37303.6    268.1     36.72933   0.35728  -0.07237   0.09611
 108   37366.0    267.6     14.63426  -0.11253   0.42155   0.27199
 109   37432.7    267.1     26.04774  -0.37988   0.36949  -1.08258
 110   37538.6    266.4    -11.18656  -0.04085  -0.65288   1.08465
 111   37583.2    266.1    -41.00654  -0.03195   0.69161  -0.12367
 112   37682.1    265.4    -36.45409  -0.58567  -0.28148  -0.56267
 113   37747.9    264.9    -75.09853   0.33650   0.01715  -0.78182
 114   37816.9    264.4     48.66671   0.44752  -0.04647   0.59277
 115   37895.3    263.9    -26.82303  -0.39459   0.06498   0.80727
 116   37943.4    263.6    -37.94293   0.26599   0.13220  -0.99989
 117   38029.9    263.0    -10.24355   0.53395   0.35974   0.45535
 118   38073.6    262.6      4.70752  -0.26211   0.03343  -1.69046
 119   38128.3    262.3     63.73771   0.53324   0.41704  -0.97477
 120   38253.4    261.4     31.29561   0.25188   0.19675  -0.31836
 121   38304.6    261.1     -6.84201  -0.14998  -0.57934   0.58068
 122   38341.2    260.8     18.84185  -0.28689   0.18121  -0.45993
 123   38408.5    260.4      8.32108   0.72471   0.14819   1.61500
 124   38461.1    260.0     -4.72492  -0.17811  -0.15251   1.12004
 125   38504.6    259.7    -43.81216  -0.37015  -0.02470  -0.72881
 126   38561.9    259.3     21.59401   0.43559   0.19413  -0.01689
 127   38579.3    259.2     25.01671   0.20551   0.09870   0.87015
 128   38640.0    258.8    -49.05927  -0.56338   0.22202   0.14307
 129   38675.7    258.6    -34.06506   0.20830  -0.29364   0.19793
 130   38745.2    258.1    -11.96174   0.41555   0.30681  -0.12809
 131   38809.5    257.7    -32.59821   0.14870  -0.45880  -0.03876
 132   38897.3    257.1     61.88051   0.38864   0.00531   1.23643
 133   38920.9    256.9      8.35390   0.00695  -0.23618   0.62693
 134   38954.4    256.7      4.42640  -0.06642  -0.06967   0.52414
 135   38997.4    256.4      1.94103   0.25802   0.26462  -1.44701
 136   39050.2    256.1     13.60393   0.04362  -0.04105   0.35129
 137   39086.7    255.8     -6.53504  -0.37459   0.04980  -0.04140
 138   39135.9    255.5      2.64986  -0.27847  -0.01681   0.37076
 139   39268.8    254.7    -26.70160   0.24945   0.26948   0.14287
 140   39306.4    254.4    -18.11292  -0.14754   0.22583  -0.18453
 141   39340.8    254.2      6.50151  -0.21303   0.03465  -0.10812
 142   39390.3    253.9     74.43521  -0.57588  -0.40952   0.55086
 143   39409.1    253.7     21.81809  -0.41434   0.05296   0.88252
 144   39436.8    253.6    -24.70639  -0.05791  -0.21412   0.34461
 145   39505.1    253.1    -20.91129  -0.12112  -0.12217  -0.78154
 146   39544.9    252.9     14.71412   0.03868   0.51404  -1.18319
 147   39602.9    252.5     37.78818  -0.18633  -0.01731   1.64065
 148   39627.7    252.3     14.66759  -0.29705   0.02616  -0.31596
 149   39757.1    251.5      8.03626   0.00080  -0.01480  -1.54088
 150   39780.2    251.4     11.88985  -0.04442   0.06123  -0.60728
 151   39826.3    251.1      0.57731  -0.31416   0.15892  -0.25827
 152   39878.9    250.8      0.09263  -0.10069  -0.21052   0.41090
 153   39936.8    250.4    -22.66323   0.24920   0.16218  -0.39571
 154   39977.4    250.1      8.13429  -0.04772  -0.23313   0.14706
 155   40055.9    249.7     25.94551  -0.23751   0.11305   0.14761
 156   40061.2    249.6     12.70102  -0.05352   0.21816  -0.59901
 157   40121.5    249.2      9.79150  -0.24867   0.09360  -0.40856
 158   40133.6    249.2     14.66069  -0.32758  -0.07366   1.20823
 159   40239.5    248.5     35.51193  -0.18513   0.32049  -0.97544

sTD-DFT done

Total run time:       51.658 sec

           *** ORCA-CIS/TD-DFT FINISHED WITHOUT ERROR ***

-------------------------   --------------------
FINAL SINGLE POINT ENERGY    -15717.644859435271
-------------------------   --------------------


                            ***************************************
                            *     ORCA property calculations      *
                            ***************************************

                                    ---------------------
                                    Active property flags
                                    ---------------------
   (+) Dipole Moment


------------------------------------------------------------------------------
                       ORCA ELECTRIC PROPERTIES CALCULATION
------------------------------------------------------------------------------

Dipole Moment Calculation                       ... on
Quadrupole Moment Calculation                   ... off
Polarizability Calculation                      ... off
GBWName                                         ... PFBDB-T.gbw
Electron density file                           ... PFBDB-T.scfp
The origin for moment calculation is the CENTER OF MASS  = (-0.898352,  9.876774  2.218578)

-------------
DIPOLE MOMENT
-------------
                                X             Y             Z
Electronic contribution:    -15.95374      38.34719      21.66026
Nuclear contribution   :     15.87016     -38.60651     -21.63587
                        -----------------------------------------
Total Dipole Moment    :     -0.08358      -0.25932       0.02439
                        -----------------------------------------
Magnitude (a.u.)       :      0.27355
Magnitude (Debye)      :      0.69531



--------------------
Rotational spectrum 
--------------------
 
Rotational constants in cm-1:     0.000191     0.000111     0.000074 
Rotational constants in MHz :     5.735359     3.324779     2.215191 

 Dipole components along the rotational axes: 
x,y,z [a.u.] :    -0.261866     0.065288     0.044636 
x,y,z [Debye]:    -0.665611     0.165948     0.113457 

 

Timings for individual modules:

Sum of individual times         ...    23575.113 sec (= 392.919 min)
GTO integral calculation        ...       19.054 sec (=   0.318 min)   0.1 %
SCF iterations                  ...    23503.911 sec (= 391.732 min)  99.7 %
CIS module                      ...       52.148 sec (=   0.869 min)   0.2 %
                             ****ORCA TERMINATED NORMALLY****
TOTAL RUN TIME: 0 days 6 hours 32 minutes 57 seconds 377 msec
