
                                 *****************
                                 * O   R   C   A *
                                 *****************

           --- An Ab Initio, DFT and Semiempirical electronic structure package ---

                  #######################################################
                  #                        -***-                        #
                  #          Department of theory and spectroscopy      #
                  #               Directorship: Frank Neese             #
                  #        Max Planck Institute fuer Kohlenforschung    #
                  #                Kaiser Wilhelm Platz 1               #
                  #                 D-45470 Muelheim/Ruhr               #
                  #                      Germany                        #
                  #                                                     #
                  #                  All rights reserved                #
                  #                        -***-                        #
                  #######################################################


                         Program Version 4.2.0 -  RELEASE  -


 With contributions from (in alphabetic order):
   Daniel Aravena         : Magnetic Suceptibility
   Michael Atanasov       : Ab Initio Ligand Field Theory (pilot matlab implementation)
   Alexander A. Auer      : GIAO ZORA, VPT2
   Ute Becker             : Parallelization
   Giovanni Bistoni       : ED, misc. LED, open-shell LED, HFLED
   Martin Brehm           : Molecular dynamics
   Dmytro Bykov           : SCF Hessian
   Vijay G. Chilkuri      : MRCI spin determinant printing, contributions to CSF-ICE
   Dipayan Datta          : RHF DLPNO-CCSD density
   Achintya Kumar Dutta   : EOM-CC, STEOM-CC
   Dmitry Ganyushin       : Spin-Orbit,Spin-Spin,Magnetic field MRCI
   Miquel Garcia          : C-PCM Hessian, Gaussian charge scheme
   Yang Guo               : DLPNO-NEVPT2, CIM, IAO-localization
   Andreas Hansen         : Spin unrestricted coupled pair/coupled cluster methods
   Benjamin Helmich-Paris : CASSCF linear response (MC-RPA)
   Lee Huntington         : MR-EOM, pCC
   Robert Izsak           : Overlap fitted RIJCOSX, COSX-SCS-MP3, EOM
   Christian Kollmar      : KDIIS, OOCD, Brueckner-CCSD(T), CCSD density
   Simone Kossmann        : Meta GGA functionals, TD-DFT gradient, OOMP2, MP2 Hessian
   Martin Krupicka        : AUTO-CI
   Lucas Lang             : DCDCAS
   Dagmar Lenk            : GEPOL surface, SMD
   Dimitrios Liakos       : Extrapolation schemes; Compound Job, initial MDCI parallelization
   Dimitrios Manganas     : Further ROCIS development; embedding schemes
   Dimitrios Pantazis     : SARC Basis sets
   Taras Petrenko         : DFT Hessian,TD-DFT gradient, ASA, ECA, R-Raman, ABS, FL, XAS/XES, NRVS
   Peter Pinski           : DLPNO-MP2, DLPNO-MP2 Gradient
   Christoph Reimann      : Effective Core Potentials
   Marius Retegan         : Local ZFS, SOC
   Christoph Riplinger    : Optimizer, TS searches, QM/MM, DLPNO-CCSD(T), (RO)-DLPNO pert. Triples
   Tobias Risthaus        : Range-separated hybrids, TD-DFT gradient, RPA, STAB
   Michael Roemelt        : Original ROCIS implementation
   Masaaki Saitow         : Open-shell DLPNO-CCSD energy and density
   Barbara Sandhoefer     : DKH picture change effects
   Avijit Sen             : IP-ROCIS
   Kantharuban Sivalingam : CASSCF convergence, NEVPT2, FIC-MRCI
   Bernardo de Souza      : ESD, SOC TD-DFT
   Georgi Stoychev        : AutoAux, RI-MP2 NMR
   Willem Van den Heuvel  : Paramagnetic NMR
   Boris Wezisla          : Elementary symmetry handling
   Frank Wennmohs         : Technical directorship


 We gratefully acknowledge several colleagues who have allowed us to
 interface, adapt or use parts of their codes:
   Stefan Grimme, W. Hujo, H. Kruse,             : VdW corrections, initial TS optimization,
                  C. Bannwarth                     DFT functionals, gCP, sTDA/sTD-DF
   Ed Valeev, F. Pavosevic, A. Kumar             : LibInt (2-el integral package), F12 methods
   Garnet Chan, S. Sharma, J. Yang, R. Olivares  : DMRG
   Ulf Ekstrom                                   : XCFun DFT Library
   Mihaly Kallay                                 : mrcc  (arbitrary order and MRCC methods)
   Andreas Klamt, Michael Diedenhofen            : otool_cosmo (COSMO solvation model)
   Jiri Pittner, Ondrej Demel                    : Mk-CCSD
   Frank Weinhold                                : gennbo (NPA and NBO analysis)
   Christopher J. Cramer and Donald G. Truhlar   : smd solvation model
   Lars Goerigk                                  : TD-DFT with DH, B97 family of functionals
   V. Asgeirsson, H. Jonsson                     : NEB implementation
   FAccTs GmbH                                   : IRC, NEB, NEB-TS, Multilevel, MM, QM/MM, CI optimization
   S Lehtola, MJT Oliveira, MAL Marques          : LibXC Library


 Your calculation uses the libint2 library for the computation of 2-el integrals
 For citations please refer to: http://libint.valeyev.net

 Your ORCA version has been built with support for libXC version: 4.2.3
 For citations please refer to: https://tddft.org/programs/libxc/

 This ORCA versions uses:
   CBLAS   interface :  Fast vector & matrix operations
   LAPACKE interface :  Fast linear algebra routines
   SCALAPACK package :  Parallel linear algebra routines


XCFun DFT library Copyright 2009-2010 Ulf Ekstrom and contributors.
See http://admol.org/xcfun for more information. This is free soft-
ware; see the source code for copying conditions. There is ABSOLUTELY
NO WARRANTY; not even for MERCHANTABILITY or FITNESS FOR A PARTICULAR
PURPOSE. For details see the documentation. Scientific users of this 
library should cite U. Ekstrom, L. Visscher, R. Bast, A. J. Thorvald-
sen and K. Ruud; J.Chem.Theor.Comp. 2010, DOI: 10.1021/ct100117s
XCFun Version 0.99 
----- Orbital basis set information -----
Your calculation utilizes the basis: def2-SVP
   F. Weigend and R. Ahlrichs, Phys. Chem. Chem. Phys. 7, 3297 (2005).

----- AuxJ basis set information -----
Your calculation utilizes the auxiliary basis: def2/J
   F. Weigend, Phys. Chem. Chem. Phys. 8, 1057 (2006).

================================================================================
                                        WARNINGS
                       Please study these warnings very carefully!
================================================================================

INFO   : Checking CIS options ...

WARNING: CIS/ROCIS methods need fully converged wavefunctions
  ===> : Setting SCFConvForced true
         You can overwrite this default with %scf ConvForced false 


INFO   : the flag for use of LIBINT has been found!

================================================================================
                                       INPUT FILE
================================================================================
NAME = PffBT4T-2DT.inp
|  1> # ORCA input file
|  2> # SCF done       -290.400127052314          0.000180949117
|  3> ! CAM-B3LYP def2-SVP def2/J RIJCOSX Grid4 TightSCF
|  4> %maxcore 5000
|  5> %tddft
|  6>     Mode sTDDFT
|  7>     Ethresh 5.0
|  8>     maxcore 5000
|  9> end
| 10> * xyz 0 1
| 11>    C       -0.68887         1.90108         0.01548
| 12>    C        0.66116         1.67172        -0.10691
| 13>    S        1.02886        -0.00877        -0.17821
| 14>    C       -0.65787        -0.42943        -0.04211
| 15>    C       -1.42828         0.70792         0.05102
| 16>    C       -1.25896         3.28673         0.09545
| 17>    C       -1.10444        -1.79066        -0.03587
| 18>    C       -0.25014        -2.88064        -0.13278
| 19>    C       -0.67612        -4.21312        -0.12728
| 20>    C       -2.00473        -4.60488        -0.02478
| 21>    C       -2.92085        -3.51885         0.07655
| 22>    C       -2.48054        -2.14389         0.07151
| 23>    N       -4.24289        -3.61150         0.18560
| 24>    S       -4.87424        -2.13549         0.27297
| 25>    N       -3.50420        -1.30109         0.17698
| 26>    C       -2.42686        -5.97252        -0.01757
| 27>    S       -1.29019        -7.28318        -0.12653
| 28>    C       -2.56736        -8.46110        -0.04302
| 29>    C       -3.81240        -7.85213         0.06114
| 30>    C       -3.71528        -6.45747         0.07403
| 31>    C       -2.20527        -9.83312        -0.08180
| 32>    C       -0.91807       -10.32200        -0.19868
| 33>    C       -0.84123       -11.71007        -0.19633
| 34>    C       -2.06842       -12.32849        -0.07746
| 35>    S       -3.34502       -11.15008         0.02861
| 36>    C       -2.31722       -13.72429        -0.02858
| 37>    S       -0.98292       -14.83524        -0.11643
| 38>    C       -3.35839       -15.79474         0.12525
| 39>    C       -3.50802       -14.40594         0.09662
| 40>    C        1.74384         2.68785        -0.17733
| 41>    F        1.07806        -2.68349        -0.23992
| 42>    F        0.29061        -5.14515        -0.22957
| 43>    C       -5.09429        -8.62068         0.14752
| 44>    C       -2.76847         3.32155         0.29428
| 45>    C       -6.33731        -7.74551         0.24319
| 46>    C       -2.00327       -18.78180         0.01455
| 47>    C       -1.44992       -17.50516         0.02942
| 48>    S        0.28405       -17.56854         0.05282
| 49>    C        0.27558       -19.30501         0.03847
| 50>    C       -1.02150       -19.77799         0.01969
| 51>    C       -3.47839       -19.04928        -0.01598
| 52>    C        1.49340       -20.05376         0.04108
| 53>    C        2.74740       -19.45449         0.07179
| 54>    C        3.95201       -20.15913         0.06577
| 55>    C        4.04410       -21.54576         0.02628
| 56>    C        2.78252       -22.20661        -0.00103
| 57>    C        1.53531       -21.47710         0.00740
| 58>    N        2.58337       -23.52057        -0.03599
| 59>    S        1.00257       -23.81814        -0.05615
| 60>    N        0.48732       -22.29462        -0.02186
| 61>    C        5.29276       -22.24215         0.01078
| 62>    S        6.80198       -21.38139         0.04906
| 63>    C        7.70606       -22.86407        -0.00323
| 64>    C        6.86458       -23.96997        -0.04746
| 65>    C        5.51478       -23.60387        -0.03842
| 66>    C        9.12143       -22.75897         0.00306
| 67>    C        9.82735       -21.57173         0.05829
| 68>    C       11.20642       -21.73662         0.04697
| 69>    C       11.60179       -23.05668        -0.01788
| 70>    S       10.21894       -24.11396        -0.06377
| 71>    C       12.93722       -23.53319        -0.04890
| 72>    S       14.24675       -22.38979         0.00293
| 73>    C       14.81610       -24.89473        -0.13628
| 74>    C       13.42104       -24.82095        -0.12119
| 75>    C       -2.04674       -16.21198         0.02392
| 76>    F        2.85079       -18.11252         0.10878
| 77>    F        5.07099       -19.41042         0.09831
| 78>    C        7.37436       -25.37682        -0.09855
| 79>    C       -3.83782       -20.52290        -0.16346
| 80>    C        6.27739       -26.43294        -0.13258
| 81>    C       17.97639       -24.03984        -0.05477
| 82>    C       16.80923       -23.28254        -0.07266
| 83>    S       17.16018       -21.58148        -0.08502
| 84>    C       18.87084       -21.87904        -0.06361
| 85>    C       19.12092       -23.23689        -0.05020
| 86>    C       17.99886       -25.53899        -0.03373
| 87>    C       19.82005       -20.80948        -0.05623
| 88>    C       19.45654       -19.46760        -0.07023
| 89>    C       20.36866       -18.40964        -0.05461
| 90>    C       21.74868       -18.57225        -0.02274
| 91>    C       22.17042       -19.93333        -0.01263
| 92>    C       21.22739       -21.02681        -0.02928
| 93>    N       23.42641       -20.36920         0.01258
| 94>    S       23.43279       -21.97722         0.01509
| 95>    N       21.84130       -22.20617        -0.01536
| 96>    C       22.66950       -17.47826         0.00117
| 97>    S       22.13485       -15.82284        -0.00803
| 98>    C       23.77336       -15.24315         0.03826
| 99>    C       24.68286       -16.29445         0.05900
|100>    C       24.04729       -17.53915         0.03764
|101>    C       23.98472       -13.83810         0.04973
|102>    C       23.00482       -12.86602         0.02798
|103>    C       23.50162       -11.56387         0.04675
|104>    C       24.87591       -11.50311         0.08338
|105>    S       25.56483       -13.10032         0.09490
|106>    C       25.70796       -10.34798         0.10965
|107>    S       25.01554        -8.74869         0.09927
|108>    C       26.57842        -8.03594         0.14113
|109>    C       27.56908        -8.96632         0.16189
|110>    C       27.07839       -10.28401         0.14407
|111>    C       15.43692       -23.66303        -0.07591
|112>    F       18.15408       -19.12750        -0.09874
|113>    F       19.84165       -17.17040        -0.07000
|114>    C       26.16650       -16.09817         0.10045
|115>    C       19.39745       -26.13661         0.06289
|116>    C       26.96400       -17.39594         0.11670
|117>    H       -2.49557         0.65439         0.14196
|118>    H       -1.00116         3.82419        -0.82299
|119>    H       -0.77198         3.81715         0.91992
|120>    H       -4.55326        -5.79212         0.14900
|121>    H       -0.06395        -9.67353        -0.28094
|122>    H        0.07694       -12.26463        -0.27576
|123>    H       -4.19040       -16.46405         0.23190
|124>    H       -4.45623       -13.90244         0.16856
|125>    H        1.59251         3.34874        -1.03170
|126>    H        2.71288         2.20596        -0.27452
|127>    H        1.74748         3.30529         0.72189
|128>    H       -5.04904        -9.28083         1.02002
|129>    H       -5.17446        -9.26818        -0.73190
|130>    H       -3.27783         2.84454        -0.53938
|131>    H       -3.10959         4.35249         0.35932
|132>    H       -3.04637         2.80978         1.21247
|133>    H       -6.30400        -7.12385         1.13444
|134>    H       -7.22343        -8.37371         0.29682
|135>    H       -6.42533        -7.10319        -0.62951
|136>    H       -1.22437       -20.83154         0.00783
|137>    H       -3.91523       -18.48874        -0.84807
|138>    H       -3.92250       -18.66512         0.90796
|139>    H        4.69632       -24.29712        -0.06736
|140>    H        9.33829       -20.61502         0.10490
|141>    H       11.91237       -20.92601         0.08340
|142>    H       15.34387       -25.82687        -0.19806
|143>    H       12.77370       -25.67939        -0.16352
|144>    H        8.01608       -25.54823         0.77204
|145>    H        8.01087       -25.48638        -0.98287
|146>    H       -3.41110       -20.93397        -1.07495
|147>    H       -4.91902       -20.63318        -0.21115
|148>    H       -3.47393       -21.09717         0.68472
|149>    H        5.65120       -26.36736         0.75378
|150>    H        6.72402       -27.42404        -0.16385
|151>    H        5.65195       -26.31138        -1.01353
|152>    H       20.12561       -23.61259        -0.03548
|153>    H       17.51597       -25.90824        -0.94404
|154>    H       17.40342       -25.88327         0.81749
|155>    H       24.55908       -18.48170         0.04832
|156>    H       21.95711       -13.10790        -0.00082
|157>    H       22.88494       -10.68262         0.03421
|158>    H       26.66543        -6.96781         0.14775
|159>    H       28.61534        -8.71965         0.18887
|160>    H       27.69996       -11.16172         0.15581
|161>    H       26.41772       -15.50919         0.98869
|162>    H       26.46595       -15.50151        -0.76747
|163>    H       19.99891       -25.85503        -0.79770
|164>    H       19.33040       -27.22201         0.09193
|165>    H       19.89881       -25.80058         0.96706
|166>    H       26.71619       -17.99057         0.99247
|167>    H       28.02754       -17.17066         0.14564
|168>    H       26.76288       -17.98398        -0.77532
|169> *
|170> 
|171>                          ****END OF INPUT****
================================================================================

                       ****************************
                       * Single Point Calculation *
                       ****************************

---------------------------------
CARTESIAN COORDINATES (ANGSTROEM)
---------------------------------
  C     -0.688870    1.901080    0.015480
  C      0.661160    1.671720   -0.106910
  S      1.028860   -0.008770   -0.178210
  C     -0.657870   -0.429430   -0.042110
  C     -1.428280    0.707920    0.051020
  C     -1.258960    3.286730    0.095450
  C     -1.104440   -1.790660   -0.035870
  C     -0.250140   -2.880640   -0.132780
  C     -0.676120   -4.213120   -0.127280
  C     -2.004730   -4.604880   -0.024780
  C     -2.920850   -3.518850    0.076550
  C     -2.480540   -2.143890    0.071510
  N     -4.242890   -3.611500    0.185600
  S     -4.874240   -2.135490    0.272970
  N     -3.504200   -1.301090    0.176980
  C     -2.426860   -5.972520   -0.017570
  S     -1.290190   -7.283180   -0.126530
  C     -2.567360   -8.461100   -0.043020
  C     -3.812400   -7.852130    0.061140
  C     -3.715280   -6.457470    0.074030
  C     -2.205270   -9.833120   -0.081800
  C     -0.918070  -10.322000   -0.198680
  C     -0.841230  -11.710070   -0.196330
  C     -2.068420  -12.328490   -0.077460
  S     -3.345020  -11.150080    0.028610
  C     -2.317220  -13.724290   -0.028580
  S     -0.982920  -14.835240   -0.116430
  C     -3.358390  -15.794740    0.125250
  C     -3.508020  -14.405940    0.096620
  C      1.743840    2.687850   -0.177330
  F      1.078060   -2.683490   -0.239920
  F      0.290610   -5.145150   -0.229570
  C     -5.094290   -8.620680    0.147520
  C     -2.768470    3.321550    0.294280
  C     -6.337310   -7.745510    0.243190
  C     -2.003270  -18.781800    0.014550
  C     -1.449920  -17.505160    0.029420
  S      0.284050  -17.568540    0.052820
  C      0.275580  -19.305010    0.038470
  C     -1.021500  -19.777990    0.019690
  C     -3.478390  -19.049280   -0.015980
  C      1.493400  -20.053760    0.041080
  C      2.747400  -19.454490    0.071790
  C      3.952010  -20.159130    0.065770
  C      4.044100  -21.545760    0.026280
  C      2.782520  -22.206610   -0.001030
  C      1.535310  -21.477100    0.007400
  N      2.583370  -23.520570   -0.035990
  S      1.002570  -23.818140   -0.056150
  N      0.487320  -22.294620   -0.021860
  C      5.292760  -22.242150    0.010780
  S      6.801980  -21.381390    0.049060
  C      7.706060  -22.864070   -0.003230
  C      6.864580  -23.969970   -0.047460
  C      5.514780  -23.603870   -0.038420
  C      9.121430  -22.758970    0.003060
  C      9.827350  -21.571730    0.058290
  C     11.206420  -21.736620    0.046970
  C     11.601790  -23.056680   -0.017880
  S     10.218940  -24.113960   -0.063770
  C     12.937220  -23.533190   -0.048900
  S     14.246750  -22.389790    0.002930
  C     14.816100  -24.894730   -0.136280
  C     13.421040  -24.820950   -0.121190
  C     -2.046740  -16.211980    0.023920
  F      2.850790  -18.112520    0.108780
  F      5.070990  -19.410420    0.098310
  C      7.374360  -25.376820   -0.098550
  C     -3.837820  -20.522900   -0.163460
  C      6.277390  -26.432940   -0.132580
  C     17.976390  -24.039840   -0.054770
  C     16.809230  -23.282540   -0.072660
  S     17.160180  -21.581480   -0.085020
  C     18.870840  -21.879040   -0.063610
  C     19.120920  -23.236890   -0.050200
  C     17.998860  -25.538990   -0.033730
  C     19.820050  -20.809480   -0.056230
  C     19.456540  -19.467600   -0.070230
  C     20.368660  -18.409640   -0.054610
  C     21.748680  -18.572250   -0.022740
  C     22.170420  -19.933330   -0.012630
  C     21.227390  -21.026810   -0.029280
  N     23.426410  -20.369200    0.012580
  S     23.432790  -21.977220    0.015090
  N     21.841300  -22.206170   -0.015360
  C     22.669500  -17.478260    0.001170
  S     22.134850  -15.822840   -0.008030
  C     23.773360  -15.243150    0.038260
  C     24.682860  -16.294450    0.059000
  C     24.047290  -17.539150    0.037640
  C     23.984720  -13.838100    0.049730
  C     23.004820  -12.866020    0.027980
  C     23.501620  -11.563870    0.046750
  C     24.875910  -11.503110    0.083380
  S     25.564830  -13.100320    0.094900
  C     25.707960  -10.347980    0.109650
  S     25.015540   -8.748690    0.099270
  C     26.578420   -8.035940    0.141130
  C     27.569080   -8.966320    0.161890
  C     27.078390  -10.284010    0.144070
  C     15.436920  -23.663030   -0.075910
  F     18.154080  -19.127500   -0.098740
  F     19.841650  -17.170400   -0.070000
  C     26.166500  -16.098170    0.100450
  C     19.397450  -26.136610    0.062890
  C     26.964000  -17.395940    0.116700
  H     -2.495570    0.654390    0.141960
  H     -1.001160    3.824190   -0.822990
  H     -0.771980    3.817150    0.919920
  H     -4.553260   -5.792120    0.149000
  H     -0.063950   -9.673530   -0.280940
  H      0.076940  -12.264630   -0.275760
  H     -4.190400  -16.464050    0.231900
  H     -4.456230  -13.902440    0.168560
  H      1.592510    3.348740   -1.031700
  H      2.712880    2.205960   -0.274520
  H      1.747480    3.305290    0.721890
  H     -5.049040   -9.280830    1.020020
  H     -5.174460   -9.268180   -0.731900
  H     -3.277830    2.844540   -0.539380
  H     -3.109590    4.352490    0.359320
  H     -3.046370    2.809780    1.212470
  H     -6.304000   -7.123850    1.134440
  H     -7.223430   -8.373710    0.296820
  H     -6.425330   -7.103190   -0.629510
  H     -1.224370  -20.831540    0.007830
  H     -3.915230  -18.488740   -0.848070
  H     -3.922500  -18.665120    0.907960
  H      4.696320  -24.297120   -0.067360
  H      9.338290  -20.615020    0.104900
  H     11.912370  -20.926010    0.083400
  H     15.343870  -25.826870   -0.198060
  H     12.773700  -25.679390   -0.163520
  H      8.016080  -25.548230    0.772040
  H      8.010870  -25.486380   -0.982870
  H     -3.411100  -20.933970   -1.074950
  H     -4.919020  -20.633180   -0.211150
  H     -3.473930  -21.097170    0.684720
  H      5.651200  -26.367360    0.753780
  H      6.724020  -27.424040   -0.163850
  H      5.651950  -26.311380   -1.013530
  H     20.125610  -23.612590   -0.035480
  H     17.515970  -25.908240   -0.944040
  H     17.403420  -25.883270    0.817490
  H     24.559080  -18.481700    0.048320
  H     21.957110  -13.107900   -0.000820
  H     22.884940  -10.682620    0.034210
  H     26.665430   -6.967810    0.147750
  H     28.615340   -8.719650    0.188870
  H     27.699960  -11.161720    0.155810
  H     26.417720  -15.509190    0.988690
  H     26.465950  -15.501510   -0.767470
  H     19.998910  -25.855030   -0.797700
  H     19.330400  -27.222010    0.091930
  H     19.898810  -25.800580    0.967060
  H     26.716190  -17.990570    0.992470
  H     28.027540  -17.170660    0.145640
  H     26.762880  -17.983980   -0.775320

----------------------------
CARTESIAN COORDINATES (A.U.)
----------------------------
  NO LB      ZA    FRAG     MASS         X           Y           Z
   0 C     6.0000    0    12.011   -1.301776    3.592521    0.029253
   1 C     6.0000    0    12.011    1.249411    3.159093   -0.202031
   2 S    16.0000    0    32.060    1.944264   -0.016573   -0.336768
   3 C     6.0000    0    12.011   -1.243194   -0.811505   -0.079576
   4 C     6.0000    0    12.011   -2.699058    1.337775    0.096414
   5 C     6.0000    0    12.011   -2.379090    6.211020    0.180374
   6 C     6.0000    0    12.011   -2.087089   -3.383857   -0.067784
   7 C     6.0000    0    12.011   -0.472696   -5.443621   -0.250918
   8 C     6.0000    0    12.011   -1.277682   -7.961643   -0.240524
   9 C     6.0000    0    12.011   -3.788391   -8.701962   -0.046827
  10 C     6.0000    0    12.011   -5.519607   -6.649663    0.144659
  11 C     6.0000    0    12.011   -4.687541   -4.051365    0.135134
  12 N     7.0000    0    14.007   -8.017900   -6.824746    0.350733
  13 S    16.0000    0    32.060   -9.210979   -4.035491    0.515839
  14 N     7.0000    0    14.007   -6.621978   -2.458704    0.334444
  15 C     6.0000    0    12.011   -4.586101  -11.286427   -0.033202
  16 S    16.0000    0    32.060   -2.438106  -13.763216   -0.239107
  17 C     6.0000    0    12.011   -4.851607  -15.989162   -0.081296
  18 C     6.0000    0    12.011   -7.204392  -14.838375    0.115538
  19 C     6.0000    0    12.011   -7.020862  -12.202850    0.139896
  20 C     6.0000    0    12.011   -4.167356  -18.581904   -0.154580
  21 C     6.0000    0    12.011   -1.734901  -19.505753   -0.375451
  22 C     6.0000    0    12.011   -1.589694  -22.128825   -0.371010
  23 C     6.0000    0    12.011   -3.908747  -23.297470   -0.146378
  24 S    16.0000    0    32.060   -6.321172  -21.070598    0.054065
  25 C     6.0000    0    12.011   -4.378911  -25.935149   -0.054008
  26 S    16.0000    0    32.060   -1.857450  -28.034541   -0.220021
  27 C     6.0000    0    12.011   -6.346437  -29.847733    0.236688
  28 C     6.0000    0    12.011   -6.629197  -27.223281    0.182585
  29 C     6.0000    0    12.011    3.295380    5.079300   -0.335105
  30 F     9.0000    0    18.998    2.037238   -5.071061   -0.453383
  31 F     9.0000    0    18.998    0.549173   -9.722924   -0.433824
  32 C     6.0000    0    12.011   -9.626813  -16.290724    0.278772
  33 C     6.0000    0    12.011   -5.231650    6.276820    0.556109
  34 C     6.0000    0    12.011  -11.975780  -14.636893    0.459562
  35 C     6.0000    0    12.011   -3.785632  -35.492458    0.027496
  36 C     6.0000    0    12.011   -2.739952  -33.079958    0.055596
  37 S    16.0000    0    32.060    0.536777  -33.199729    0.099815
  38 C     6.0000    0    12.011    0.520771  -36.481182    0.072698
  39 C     6.0000    0    12.011   -1.930355  -37.374985    0.037209
  40 C     6.0000    0    12.011   -6.573204  -35.997922   -0.030198
  41 C     6.0000    0    12.011    2.822117  -37.896114    0.077630
  42 C     6.0000    0    12.011    5.191834  -36.763658    0.135663
  43 C     6.0000    0    12.011    7.468217  -38.095235    0.124287
  44 C     6.0000    0    12.011    7.642241  -40.715586    0.049662
  45 C     6.0000    0    12.011    5.258201  -41.964411   -0.001946
  46 C     6.0000    0    12.011    2.901315  -40.585837    0.013984
  47 N     7.0000    0    14.007    4.881862  -44.447436   -0.068011
  48 S    16.0000    0    32.060    1.894583  -45.009762   -0.106108
  49 N     7.0000    0    14.007    0.920901  -42.130726   -0.041309
  50 C     6.0000    0    12.011   10.001867  -42.031572    0.020371
  51 S    16.0000    0    32.060   12.853879  -40.404971    0.092710
  52 C     6.0000    0    12.011   14.562343  -43.206831   -0.006104
  53 C     6.0000    0    12.011   12.972176  -45.296679   -0.089686
  54 C     6.0000    0    12.011   10.421424  -44.604850   -0.072603
  55 C     6.0000    0    12.011   17.237005  -43.008220    0.005783
  56 C     6.0000    0    12.011   18.571000  -40.764662    0.110152
  57 C     6.0000    0    12.011   21.177065  -41.076259    0.088760
  58 C     6.0000    0    12.011   21.924206  -43.570811   -0.033788
  59 S    16.0000    0    32.060   19.310998  -45.568780   -0.120508
  60 C     6.0000    0    12.011   24.447803  -44.471284   -0.092408
  61 S    16.0000    0    32.060   26.922456  -42.310571    0.005537
  62 C     6.0000    0    12.011   27.998371  -47.044222   -0.257532
  63 C     6.0000    0    12.011   25.362090  -46.904798   -0.229016
  64 C     6.0000    0    12.011   -3.867778  -30.636202    0.045202
  65 F     9.0000    0    18.998    5.387212  -34.227702    0.205564
  66 F     9.0000    0    18.998    9.582782  -36.680378    0.185779
  67 C     6.0000    0    12.011   13.935521  -47.955240   -0.186233
  68 C     6.0000    0    12.011   -7.252429  -38.782660   -0.308895
  69 C     6.0000    0    12.011   11.862548  -49.951018   -0.250540
  70 C     6.0000    0    12.011   33.970454  -45.428714   -0.103500
  71 C     6.0000    0    12.011   31.764841  -43.997624   -0.137308
  72 S    16.0000    0    32.060   32.428041  -40.783087   -0.160665
  73 C     6.0000    0    12.011   35.660720  -41.345394   -0.120205
  74 C     6.0000    0    12.011   36.133302  -43.911358   -0.094864
  75 C     6.0000    0    12.011   34.012916  -48.261697   -0.063740
  76 C     6.0000    0    12.011   37.454466  -39.324218   -0.106259
  77 C     6.0000    0    12.011   36.767532  -36.788432   -0.132715
  78 C     6.0000    0    12.011   38.491189  -34.789178   -0.103198
  79 C     6.0000    0    12.011   41.099049  -35.096466   -0.042972
  80 C     6.0000    0    12.011   41.896022  -37.668535   -0.023867
  81 C     6.0000    0    12.011   40.113954  -39.734912   -0.055331
  82 N     7.0000    0    14.007   44.269499  -38.492210    0.023773
  83 S    16.0000    0    32.060   44.281556  -41.530927    0.028516
  84 N     7.0000    0    14.007   41.274075  -41.963580   -0.029026
  85 C     6.0000    0    12.011   42.839147  -33.029125    0.002211
  86 S    16.0000    0    32.060   41.828805  -29.900834   -0.015175
  87 C     6.0000    0    12.011   44.925140  -28.805379    0.072301
  88 C     6.0000    0    12.011   46.643846  -30.792048    0.111494
  89 C     6.0000    0    12.011   45.442792  -33.144190    0.071129
  90 C     6.0000    0    12.011   45.324552  -26.150219    0.093976
  91 C     6.0000    0    12.011   43.472810  -24.313254    0.052875
  92 C     6.0000    0    12.011   44.411626  -21.852547    0.088345
  93 C     6.0000    0    12.011   47.008657  -21.737728    0.157565
  94 S    16.0000    0    32.060   48.310527  -24.756017    0.179335
  95 C     6.0000    0    12.011   48.581004  -19.554848    0.207208
  96 S    16.0000    0    32.060   47.272520  -16.532628    0.187593
  97 C     6.0000    0    12.011   50.225935  -15.185726    0.266697
  98 C     6.0000    0    12.011   52.098011  -16.943889    0.305928
  99 C     6.0000    0    12.011   51.170741  -19.433962    0.272253
 100 C     6.0000    0    12.011   29.171551  -44.716646   -0.143449
 101 F     9.0000    0    18.998   34.306239  -36.145737   -0.186592
 102 F     9.0000    0    18.998   37.495285  -32.447354   -0.132281
 103 C     6.0000    0    12.011   49.447519  -30.421133    0.189823
 104 C     6.0000    0    12.011   36.655868  -49.391035    0.118845
 105 C     6.0000    0    12.011   50.954575  -32.873562    0.220531
 106 H     1.0000    0     1.008   -4.715944    1.236618    0.268266
 107 H     1.0000    0     1.008   -1.891918    7.226672   -1.555226
 108 H     1.0000    0     1.008   -1.458831    7.213368    1.738397
 109 H     1.0000    0     1.008   -8.604414  -10.945521    0.281569
 110 H     1.0000    0     1.008   -0.120848  -18.280322   -0.530900
 111 H     1.0000    0     1.008    0.145396  -23.176792   -0.521111
 112 H     1.0000    0     1.008   -7.918708  -31.112546    0.438227
 113 H     1.0000    0     1.008   -8.421054  -26.271804    0.318532
 114 H     1.0000    0     1.008    3.009408    6.328201   -1.949630
 115 H     1.0000    0     1.008    5.126600    4.168660   -0.518768
 116 H     1.0000    0     1.008    3.302259    6.246093    1.364174
 117 H     1.0000    0     1.008   -9.541303  -17.538227    1.927558
 118 H     1.0000    0     1.008   -9.778312  -17.514322   -1.383091
 119 H     1.0000    0     1.008   -6.194201    5.375402   -1.019280
 120 H     1.0000    0     1.008   -5.876273    8.225014    0.679016
 121 H     1.0000    0     1.008   -5.756805    5.309715    2.291236
 122 H     1.0000    0     1.008  -11.912834  -13.462126    2.143781
 123 H     1.0000    0     1.008  -13.650304  -15.824019    0.560909
 124 H     1.0000    0     1.008  -12.142114  -13.423084   -1.189601
 125 H     1.0000    0     1.008   -2.313724  -39.365906    0.014797
 126 H     1.0000    0     1.008   -7.398712  -34.938655   -1.602620
 127 H     1.0000    0     1.008   -7.412451  -35.271965    1.715796
 128 H     1.0000    0     1.008    8.874759  -45.914903   -0.127292
 129 H     1.0000    0     1.008   17.646811  -38.956742    0.198232
 130 H     1.0000    0     1.008   22.511117  -39.544428    0.157603
 131 H     1.0000    0     1.008   28.995712  -48.805711   -0.374279
 132 H     1.0000    0     1.008   24.138795  -48.527014   -0.309008
 133 H     1.0000    0     1.008   15.148196  -48.279158    1.458944
 134 H     1.0000    0     1.008   15.138350  -48.162278   -1.857355
 135 H     1.0000    0     1.008   -6.446045  -39.559470   -2.031361
 136 H     1.0000    0     1.008   -9.295601  -38.991059   -0.399016
 137 H     1.0000    0     1.008   -6.564776  -39.867874    1.293933
 138 H     1.0000    0     1.008   10.679220  -49.827089    1.424438
 139 H     1.0000    0     1.008   12.706556  -51.823925   -0.309632
 140 H     1.0000    0     1.008   10.680638  -49.721302   -1.915294
 141 H     1.0000    0     1.008   38.031891  -44.621328   -0.067047
 142 H     1.0000    0     1.008   33.100386  -48.959478   -1.783977
 143 H     1.0000    0     1.008   32.887698  -48.912292    1.544832
 144 H     1.0000    0     1.008   46.409935  -34.925351    0.091312
 145 H     1.0000    0     1.008   41.492925  -24.770341   -0.001550
 146 H     1.0000    0     1.008   43.246269  -20.187226    0.064648
 147 H     1.0000    0     1.008   50.390360  -13.167253    0.279207
 148 H     1.0000    0     1.008   54.075156  -16.477750    0.356913
 149 H     1.0000    0     1.008   52.345338  -21.092594    0.294438
 150 H     1.0000    0     1.008   49.922256  -29.308122    1.868353
 151 H     1.0000    0     1.008   50.013397  -29.293609   -1.450308
 152 H     1.0000    0     1.008   37.792463  -48.858926   -1.507435
 153 H     1.0000    0     1.008   36.529162  -51.442144    0.173723
 154 H     1.0000    0     1.008   37.603301  -48.756030    1.827479
 155 H     1.0000    0     1.008   50.486282  -33.997250    1.875496
 156 H     1.0000    0     1.008   52.964375  -32.447845    0.275220
 157 H     1.0000    0     1.008   50.574514  -33.984797   -1.465142

--------------------------------
INTERNAL COORDINATES (ANGSTROEM)
--------------------------------
 C      0   0   0     0.000000000000     0.00000000     0.00000000
 C      1   0   0     1.374833198101     0.00000000     0.00000000
 S      2   1   0     1.721724025534   112.10040326     0.00000000
 C      3   2   1     1.743713318897    91.46968567     0.00000000
 C      4   3   2     1.376869560815   110.31946831     0.00000000
 C      1   2   3     1.500474502116   122.13330225   180.08772112
 C      4   3   2     1.432623752211   122.07911151   179.97966411
 C      7   4   3     1.388263821649   123.63410417     0.15221643
 C      8   7   4     1.398925359267   124.06881231   179.98374161
 C      9   8   7     1.388951647719   124.07128809     0.02866445
 C     10   9   8     1.424431389783   113.91680251     0.00000000
 C      7   4   3     1.424764228671   122.47712532   180.16220329
 N     11  10   9     1.329761514934   126.30797559   180.01810897
 S     13  11  10     1.607744338973   109.32365915   179.95327813
 N     12   7   4     1.330156215074   126.31210074     0.00000000
 C     10   9   8     1.431322776525   123.50345756   180.13534527
 S     16  10   9     1.738309697982   121.82150439     0.47545941
 C     17  16  10     1.739434579224    91.57358560   179.71695930
 C     18  17  16     1.389898689869   111.38392095     0.13462247
 C     16  10   9     1.379707635298   127.70477927   180.29584225
 C     18  17  16     1.419525250533   117.76989714   180.45217963
 C     21  18  17     1.381864113725   125.58135149   359.09116127
 C     22  21  18     1.390197192128   113.86512113   179.28967519
 C     23  22  21     1.379336314827   113.49254700     0.00000000
 S     24  23  22     1.740577068963   110.74720495     0.17812034
 C     24  23  22     1.418643131446   126.87920504   180.80740725
 S     26  24  23     1.738471746966   119.49856169     0.24929978
 C     26  24  23     2.322598079802   163.33215398   178.04406702
 C     26  24  23     1.377797663846   129.90223105   179.55380202
 C      2   1   3     1.486497607028   127.25629067   179.97946702
 F      8   7   4     1.347019800189   119.82909678     0.00000000
 F      9   8   7     1.346740531023   116.12371912   180.02331673
 C     19  18  17     1.497121430947   123.12048238   179.87267210
 C      6   1   2     1.522946565510   113.86981080   182.74015903
 C     33  19  18     1.523211737809   114.04212291   180.50572830
 C     28  26  24     3.281940302321   128.60978077   180.29020432
 C     36  28  26     1.391483750893    47.84064035     5.49223845
 S     37  36  28     1.735285724398   111.34616724   177.35646175
 C     38  37  36     1.736549948691    91.80725627     0.14266055
 C     39  38  37     1.380753162299   110.31802637   359.86772990
 C     36  28  26     1.499485460316    75.92733642   188.10499912
 C     39  38  37     1.429586977767   121.30264091   179.62234595
 C     42  39  38     1.390173959258   122.86676548     0.82173313
 C     43  42  39     1.395578382643   124.11542903   180.46290366
 C     44  43  42     1.390245584456   124.11766595     0.10220574
 C     45  44  43     1.424448193161   113.86642260   359.67690178
 C     42  39  38     1.424355133420   123.25741589   181.07126448
 N     46  45  44     1.329426118933   126.27876672   180.23101448
 S     48  46  45     1.608689830421   109.29054149   179.97665015
 N     47  42  39     1.329465357992   126.28568757   359.55594415
 C     45  44  43     1.429808056244   122.95229267   179.51046220
 S     51  45  44     1.737848711597   121.12714187     0.31269607
 C     52  51  45     1.737364346618    91.63643406   180.27365142
 C     53  52  51     1.390345170560   111.39669592   359.97007474
 C     51  45  44     1.380577733704   128.40580349   180.57669360
 C     53  52  51     1.419280737205   117.10425400   179.85591083
 C     56  53  52     1.382357485204   124.96200861     0.54901921
 C     57  56  53     1.388938774533   113.87545774   180.23337935
 C     58  57  56     1.379522150239   113.48727903     0.02376004
 S     59  58  57     1.741327371002   110.77126776   359.93196662
 C     59  58  57     1.418237393880   126.32742441   179.76344922
 S     61  59  58     1.739229349396   119.17238672     0.23365666
 C     61  59  58     2.321985463004   163.69072402   180.97473625
 C     61  59  58     1.377546171313   130.23679697   180.45719385
 C     28  26  24     1.380138655715    80.71192810   182.16205518
 F     43  42  39     1.346455061671   119.96769980     0.39404778
 F     44  43  42     1.346752299460   115.87286973   179.96221076
 C     54  53  52     1.497235037995   122.84801055   179.98753417
 C     41  36  28     1.523973812013   113.98363730   176.72634771
 C     68  54  53     1.523118733454   114.02140581   179.62260344
 C     63  61  59     3.274891399161   128.81802580   180.66010668
 C     71  63  61     1.391433005107    48.10945841   356.37070702
 S     72  71  63     1.736929415866   111.32305224   181.40524240
 C     73  72  71     1.736478614121    91.78450684   359.91216409
 C     74  73  72     1.380752134527   110.30768823     0.09801543
 C     71  63  61     1.499466006617    75.74850522   174.88894573
 C     74  73  72     1.430039398793   121.72188357   180.34089698
 C     77  74  73     1.390315595288   123.24829753   359.76397090
 C     78  77  74     1.396956062444   124.06414647   179.56827583
 C     79  78  77     1.389932699594   124.05112585   359.97695368
 C     80  79  78     1.424958106788   113.93909312     0.25314927
 C     77  74  73     1.424276836503   122.80925418   179.54837630
 N     81  80  79     1.329710149281   126.35534570   179.79262505
 S     83  81  80     1.608034615579   109.36394195   179.99216687
 N     82  77  74     1.329650053247   126.28187214     0.39895991
 C     80  79  78     1.430138203322   123.37842343   180.39628985
 S     86  80  79     1.739640951145   122.00206669     0.00000000
 C     87  86  80     1.738648406176    91.57579510   179.78449219
 C     88  87  86     1.390270508786   111.39439164     0.02474578
 C     86  80  79     1.379616953034   127.56749440   179.76803895
 C     88  87  86     1.420904681180   118.04025161   180.05665545
 C     91  88  87     1.380440726326   126.20006511     0.02479286
 C     92  91  88     1.393828244584   113.86872216   179.99067184
 C     93  92  91     1.376120103261   113.42584547     0.00000000
 S     94  93  92     1.739489367861   110.80295455     0.00000000
 C     94  93  92     1.423840803004   128.30916063   179.96223018
 S     96  94  93     1.742779878499   120.81029339     0.08076676
 C     97  96  94     1.718242915452    91.09622926   180.03171169
 C     98  97  96     1.359207547654   112.29530564     0.00000000
 C     96  94  93     1.372353920168   128.44989208   180.11295004
 C     63  61  59     1.380632789448    80.74044502   179.27926201
 F     78  77  74     1.346433392968   119.79685161   359.66408609
 F     79  78  77     1.346733889750   116.18344560   180.08500639
 C     89  88  87     1.497141139138   123.33715439   180.03301734
 C     76  71  63     1.523987886074   113.99779481   181.94513873
 C    104  89  88     1.523311289724   114.04240450   180.01801836
 H      5   4   3     1.072494050613   121.42141218   179.99181969
 H      6   1   2     1.094922885504   108.61085963    60.61908141
 H      6   1   2     1.094644087227   108.57794935   304.82739222
 H     20  16  10     1.072623700932   121.07534383     0.19312043
 H     22  21  18     1.075546848306   122.20097140   359.41335615
 H     23  22  21     1.075584523596   124.18446414   180.16211856
 H     28  26  24     1.073121958912   155.52368248     0.38690517
 H     29  26  24     1.076006420845   122.42522938     0.55177328
 H     30   2   1     1.090699068442   110.50279760   300.61195262
 H     30   2   1     1.086601302134   110.52559918   180.11259981
 H     30   2   1     1.090798795196   110.50628122    59.65660822
 H     33  19  18     1.095035083913   108.66702524    58.35236393
 H     33  19  18     1.095017358447   108.65706992   302.68196487
 H     34   6   1     1.087186803314   110.74661503   298.75457265
 H     34   6   1     1.087855845046   109.89377398   179.08526611
 H     34   6   1     1.087294724994   110.66008047    59.41904851
 H     35  33  19     1.087150989605   110.79540098   299.24717043
 H     35  33  19     1.087529342731   109.64133834   179.70045775
 H     35  33  19     1.087165025560   110.80028427    60.14679865
 H     40  39  38     1.072969943195   120.93852799   179.94506337
 H     41  36  28     1.094261415431   108.47125141    54.94854314
 H     41  36  28     1.094750072528   108.62066529   298.43641332
 H     55  51  45     1.072991079972   121.03481152   359.74868652
 H     57  56  53     1.075474871766   122.24369601     0.20132311
 H     58  57  56     1.075537595577   124.19114518   179.95330033
 H     63  61  59     1.072959887834   155.44934582     0.31409889
 H     64  61  59     1.075992629203   122.45085056   359.85647120
 H     68  54  53     1.095040133785   108.63177205    57.41288112
 H     68  54  53     1.095066315846   108.63089440   301.82572049
 H     69  41  36     1.087144205430   110.74369448   301.43282985
 H     69  41  36     1.087855438236   109.67438048   181.88390588
 H     69  41  36     1.087019446652   110.87796886    62.37540817
 H     70  68  54     1.087220631749   110.77939944   299.84729092
 H     70  68  54     1.087536380909   109.68032689   180.27833661
 H     70  68  54     1.087209699046   110.78691733    60.71183840
 H     75  74  73     1.072739094328   120.94256560   180.03574341
 H     76  71  63     1.094619847573   108.60130123    60.24134022
 H     76  71  63     1.094373336846   108.49883248   303.67930371
 H     90  86  80     1.072587324650   121.03559956     0.20212355
 H     92  91  88     1.075654042199   122.24082919     0.00000000
 H     93  92  91     1.075663997957   124.11646648   179.99906248
 H     98  97  96     1.071688509503   119.17212420   179.99414263
 H     99  98  97     1.075283217064   123.54124149   179.99487809
 H    100  96  94     1.075575165481   122.63741540   359.96888313
 H    104  89  88     1.094979098613   108.68337597    57.89678734
 H    104  89  88     1.094969672868   108.69352523   302.14889793
 H    105  76  71     1.087040282648   110.85494440   298.44110898
 H    105  76  71     1.087856692814   109.65681882   178.93412359
 H    105  76  71     1.087106894192   110.77856810    59.40428373
 H    106 104  89     1.087183391107   110.80727121   299.47192920
 H    106 104  89     1.087522842795   109.62058664   179.93644612
 H    106 104  89     1.087170628926   110.80591252    60.40036156

---------------------------
INTERNAL COORDINATES (A.U.)
---------------------------
 C      0   0   0     0.000000000000     0.00000000     0.00000000
 C      1   0   0     2.598058224234     0.00000000     0.00000000
 S      2   1   0     3.253586886451   112.10040326     0.00000000
 C      3   2   1     3.295140628787    91.46968567     0.00000000
 C      4   3   2     2.601906392074   110.31946831     0.00000000
 C      1   2   3     2.835485879931   122.13330225   180.08772112
 C      4   3   2     2.707266544630   122.07911151   179.97966411
 C      7   4   3     2.623438424548   123.63410417     0.15221643
 C      8   7   4     2.643585810812   124.06881231   179.98374161
 C      9   8   7     2.624738227447   124.07128809     0.02866445
 C     10   9   8     2.691785223251   113.91680251     0.00000000
 C      7   4   3     2.692414197595   122.47712532   180.16220329
 N     11  10   9     2.512885086654   126.30797559   180.01810897
 S     13  11  10     3.038196494021   109.32365915   179.95327813
 N     12   7   4     2.513630961823   126.31210074     0.00000000
 C     10   9   8     2.704808056877   123.50345756   180.13534527
 S     16  10   9     3.284929265126   121.82150439     0.47545941
 C     17  16  10     3.287054982606    91.57358560   179.71695930
 C     18  17  16     2.626527877749   111.38392095     0.13462247
 C     16  10   9     2.607269575594   127.70477927   180.29584225
 C     18  17  16     2.682513963693   117.76989714   180.45217963
 C     21  18  17     2.611344729233   125.58135149   359.09116127
 C     22  21  18     2.627091965268   113.86512113   179.28967519
 C     23  22  21     2.606567881595   113.49254700     0.00000000
 S     24  23  22     3.289213975324   110.74720495     0.17812034
 C     24  23  22     2.680847000202   126.87920504   180.80740725
 S     26  24  23     3.285235493326   119.49856169     0.24929978
 C     26  24  23     4.389074289997   163.33215398   178.04406702
 C     26  24  23     2.603660252626   129.90223105   179.55380202
 C      2   1   3     2.809073376012   127.25629067   179.97946702
 F      8   7   4     2.545498519326   119.82909678     0.00000000
 F      9   8   7     2.544970777085   116.12371912   180.02331673
 C     19  18  17     2.829149493714   123.12048238   179.87267210
 C      6   1   2     2.877951925411   113.86981080   182.74015903
 C     33  19  18     2.878453028434   114.04212291   180.50572830
 C     28  26  24     6.201968359266   128.60978077   180.29020432
 C     36  28  26     2.629523208990    47.84064035     5.49223845
 S     37  36  28     3.279214783216   111.34616724   177.35646175
 C     38  37  36     3.281603820902    91.80725627     0.14266055
 C     39  38  37     2.609245335292   110.31802637   359.86772990
 C     36  28  26     2.833616861795    75.92733642   188.10499912
 C     39  38  37     2.701527872599   121.30264091   179.62234595
 C     42  39  38     2.627048061507   122.86676548     0.82173313
 C     43  42  39     2.637260941616   124.11542903   180.46290366
 C     44  43  42     2.627183413516   124.11766595     0.10220574
 C     45  44  43     2.691816977033   113.86642260   359.67690178
 C     42  39  38     2.691641119609   123.25741589   181.07126448
 N     46  45  44     2.512251280064   126.27876672   180.23101448
 S     48  46  45     3.039983213920   109.29054149   179.97665015
 N     47  42  39     2.512325431140   126.28568757   359.55594415
 C     45  44  43     2.701945650375   122.95229267   179.51046220
 S     51  45  44     3.284058127107   121.12714187     0.31269607
 C     52  51  45     3.283142809947    91.63643406   180.27365142
 C     53  52  51     2.627371603979   111.39669592   359.97007474
 C     51  45  44     2.608913823291   128.40580349   180.57669360
 C     53  52  51     2.682051900467   117.10425400   179.85591083
 C     56  53  52     2.612277066212   124.96200861     0.54901921
 C     57  56  53     2.624713900651   113.87545774   180.23337935
 C     58  57  56     2.606919059630   113.48727903     0.02376004
 S     59  58  57     3.290631840694   110.77126776   359.93196662
 C     59  58  57     2.680080267320   126.32742441   179.76344922
 S     61  59  58     3.286667154436   119.17238672     0.23365666
 C     61  59  58     4.387916612023   163.69072402   180.97473625
 C     61  59  58     2.603185000614   130.23679697   180.45719385
 C     28  26  24     2.608084086140    80.71192810   182.16205518
 F     43  42  39     2.544431318191   119.96769980     0.39404778
 F     44  43  42     2.544993016208   115.87286973   179.96221076
 C     54  53  52     2.829364179922   122.84801055   179.98753417
 C     41  36  28     2.879893139972   113.98363730   176.72634771
 C     68  54  53     2.878277275674   114.02140581   179.62260344
 C     63  61  59     6.188647862749   128.81802580   180.66010668
 C     71  63  61     2.629427313351    48.10945841   356.37070702
 S     72  71  63     3.282320909938   111.32305224   181.40524240
 C     73  72  71     3.281469018100    91.78450684   359.91216409
 C     74  73  72     2.609243393083   110.30768823     0.09801543
 C     71  63  61     2.833580099631    75.74850522   174.88894573
 C     74  73  72     2.702382824436   121.72188357   180.34089698
 C     77  74  73     2.627315714813   123.24829753   359.76397090
 C     78  77  74     2.639864379141   124.06414647   179.56827583
 C     79  78  77     2.626592146814   124.05112585   359.97695368
 C     80  79  78     2.692780574140   113.93909312     0.25314927
 C     77  74  73     2.691493159879   122.80925418   179.54837630
 N     81  80  79     2.512788019636   126.35534570   179.79262505
 S     83  81  80     3.038745037309   109.36394195   179.99216687
 N     82  77  74     2.512674454591   126.28187214     0.39895991
 C     80  79  78     2.702569537936   123.37842343   180.39628985
 S     86  80  79     3.287444969018   122.00206669     0.00000000
 C     87  86  80     3.285569330852    91.57579510   179.78449219
 C     88  87  86     2.627230513673   111.39439164     0.02474578
 C     86  80  79     2.607098210950   127.56749440   179.76803895
 C     88  87  86     2.685120709837   118.04025161   180.05665545
 C     91  88  87     2.608654916868   126.20006511     0.02479286
 C     92  91  88     2.633953659988   113.86872216   179.99067184
 C     93  92  91     2.600490122547   113.42584547     0.00000000
 S     94  93  92     3.287158518124   110.80295455     0.00000000
 C     94  93  92     2.690669175981   128.30916063   179.96223018
 S     96  94  93     3.293376682071   120.81029339     0.08076676
 C     97  96  94     3.247008541754    91.09622926   180.03171169
 C     98  97  96     2.568530024225   112.29530564     0.00000000
 C     96  94  93     2.593373067930   128.44989208   180.11295004
 C     63  61  59     2.609017863569    80.74044502   179.27926201
 F     78  77  74     2.544390370276   119.79685161   359.66408609
 F     79  78  77     2.544958226897   116.18344560   180.08500639
 C     89  88  87     2.829186736798   123.33715439   180.03301734
 C     76  71  63     2.879919736093   113.99779481   181.94513873
 C    104  89  88     2.878641154288   114.04240450   180.01801836
 H      5   4   3     2.026720035918   121.42141218   179.99181969
 H      6   1   2     2.069104391365   108.61085963    60.61908141
 H      6   1   2     2.068577538974   108.57794935   304.82739222
 H     20  16  10     2.026965039514   121.07534383     0.19312043
 H     22  21  18     2.032488987500   122.20097140   359.41335615
 H     23  22  21     2.032560183481   124.18446414   180.16211856
 H     28  26  24     2.027906610642   155.52368248     0.38690517
 H     29  26  24     2.033357453738   122.42522938     0.55177328
 H     30   2   1     2.061122533878   110.50279760   300.61195262
 H     30   2   1     2.053378877796   110.52559918   180.11259981
 H     30   2   1     2.061310990131   110.50628122    59.65660822
 H     33  19  18     2.069316415631   108.66702524    58.35236393
 H     33  19  18     2.069282919354   108.65706992   302.68196487
 H     34   6   1     2.054485314677   110.74661503   298.75457265
 H     34   6   1     2.055749620322   109.89377398   179.08526611
 H     34   6   1     2.054689257096   110.66008047    59.41904851
 H     35  33  19     2.054417636576   110.79540098   299.24717043
 H     35  33  19     2.055132620364   109.64133834   179.70045775
 H     35  33  19     2.054444160685   110.80028427    60.14679865
 H     40  39  38     2.027619342568   120.93852799   179.94506337
 H     41  36  28     2.067854394081   108.47125141    54.94854314
 H     41  36  28     2.068777822168   108.62066529   298.43641332
 H     55  51  45     2.027659285288   121.03481152   359.74868652
 H     57  56  53     2.032352971552   122.24369601     0.20132311
 H     58  57  56     2.032471502377   124.19114518   179.95330033
 H     63  61  59     2.027600340688   155.44934582     0.31409889
 H     64  61  59     2.033331391312   122.45085056   359.85647120
 H     68  54  53     2.069325958506   108.63177205    57.41288112
 H     68  54  53     2.069375435431   108.63089440   301.82572049
 H     69  41  36     2.054404816342   110.74369448   301.43282985
 H     69  41  36     2.055748851563   109.67438048   181.88390588
 H     69  41  36     2.054169056419   110.87796886    62.37540817
 H     70  68  54     2.054549241154   110.77939944   299.84729092
 H     70  68  54     2.055145920593   109.68032689   180.27833661
 H     70  68  54     2.054528581340   110.78691733    60.71183840
 H     75  74  73     2.027183101431   120.94256560   180.03574341
 H     76  71  63     2.068531732667   108.60130123    60.24134022
 H     76  71  63     2.068065894905   108.49883248   303.67930371
 H     90  86  80     2.026896298304   121.03559956     0.20212355
 H     92  91  88     2.032691554602   122.24082919     0.00000000
 H     93  92  91     2.032710368257   124.11646648   179.99906248
 H     98  97  96     2.025197783830   119.17212420   179.99414263
 H     99  98  97     2.031990796653   123.54124149   179.99487809
 H    100  96  94     2.032542499207   122.63741540   359.96888313
 H    104  89  88     2.069210618747   108.68337597    57.89678734
 H    104  89  88     2.069192806669   108.69352523   302.14889793
 H    105  76  71     2.054208430746   110.85494440   298.44110898
 H    105  76  71     2.055751222372   109.65681882   178.93412359
 H    105  76  71     2.054334308321   110.77856810    59.40428373
 H    106 104  89     2.054478866541   110.80727121   299.47192920
 H    106 104  89     2.055120337265   109.62058664   179.93644612
 H    106 104  89     2.054454749514   110.80591252    60.40036156

---------------------
BASIS SET INFORMATION
---------------------
There are 5 groups of distinct atoms

 Group   1 Type C   : 7s4p1d contracted to 3s2p1d pattern {511/31/1}
 Group   2 Type S   : 10s7p1d contracted to 4s3p1d pattern {5311/511/1}
 Group   3 Type N   : 7s4p1d contracted to 3s2p1d pattern {511/31/1}
 Group   4 Type F   : 7s4p1d contracted to 3s2p1d pattern {511/31/1}
 Group   5 Type H   : 4s1p contracted to 2s1p pattern {31/1}

Atom   0C    basis set group =>   1
Atom   1C    basis set group =>   1
Atom   2S    basis set group =>   2
Atom   3C    basis set group =>   1
Atom   4C    basis set group =>   1
Atom   5C    basis set group =>   1
Atom   6C    basis set group =>   1
Atom   7C    basis set group =>   1
Atom   8C    basis set group =>   1
Atom   9C    basis set group =>   1
Atom  10C    basis set group =>   1
Atom  11C    basis set group =>   1
Atom  12N    basis set group =>   3
Atom  13S    basis set group =>   2
Atom  14N    basis set group =>   3
Atom  15C    basis set group =>   1
Atom  16S    basis set group =>   2
Atom  17C    basis set group =>   1
Atom  18C    basis set group =>   1
Atom  19C    basis set group =>   1
Atom  20C    basis set group =>   1
Atom  21C    basis set group =>   1
Atom  22C    basis set group =>   1
Atom  23C    basis set group =>   1
Atom  24S    basis set group =>   2
Atom  25C    basis set group =>   1
Atom  26S    basis set group =>   2
Atom  27C    basis set group =>   1
Atom  28C    basis set group =>   1
Atom  29C    basis set group =>   1
Atom  30F    basis set group =>   4
Atom  31F    basis set group =>   4
Atom  32C    basis set group =>   1
Atom  33C    basis set group =>   1
Atom  34C    basis set group =>   1
Atom  35C    basis set group =>   1
Atom  36C    basis set group =>   1
Atom  37S    basis set group =>   2
Atom  38C    basis set group =>   1
Atom  39C    basis set group =>   1
Atom  40C    basis set group =>   1
Atom  41C    basis set group =>   1
Atom  42C    basis set group =>   1
Atom  43C    basis set group =>   1
Atom  44C    basis set group =>   1
Atom  45C    basis set group =>   1
Atom  46C    basis set group =>   1
Atom  47N    basis set group =>   3
Atom  48S    basis set group =>   2
Atom  49N    basis set group =>   3
Atom  50C    basis set group =>   1
Atom  51S    basis set group =>   2
Atom  52C    basis set group =>   1
Atom  53C    basis set group =>   1
Atom  54C    basis set group =>   1
Atom  55C    basis set group =>   1
Atom  56C    basis set group =>   1
Atom  57C    basis set group =>   1
Atom  58C    basis set group =>   1
Atom  59S    basis set group =>   2
Atom  60C    basis set group =>   1
Atom  61S    basis set group =>   2
Atom  62C    basis set group =>   1
Atom  63C    basis set group =>   1
Atom  64C    basis set group =>   1
Atom  65F    basis set group =>   4
Atom  66F    basis set group =>   4
Atom  67C    basis set group =>   1
Atom  68C    basis set group =>   1
Atom  69C    basis set group =>   1
Atom  70C    basis set group =>   1
Atom  71C    basis set group =>   1
Atom  72S    basis set group =>   2
Atom  73C    basis set group =>   1
Atom  74C    basis set group =>   1
Atom  75C    basis set group =>   1
Atom  76C    basis set group =>   1
Atom  77C    basis set group =>   1
Atom  78C    basis set group =>   1
Atom  79C    basis set group =>   1
Atom  80C    basis set group =>   1
Atom  81C    basis set group =>   1
Atom  82N    basis set group =>   3
Atom  83S    basis set group =>   2
Atom  84N    basis set group =>   3
Atom  85C    basis set group =>   1
Atom  86S    basis set group =>   2
Atom  87C    basis set group =>   1
Atom  88C    basis set group =>   1
Atom  89C    basis set group =>   1
Atom  90C    basis set group =>   1
Atom  91C    basis set group =>   1
Atom  92C    basis set group =>   1
Atom  93C    basis set group =>   1
Atom  94S    basis set group =>   2
Atom  95C    basis set group =>   1
Atom  96S    basis set group =>   2
Atom  97C    basis set group =>   1
Atom  98C    basis set group =>   1
Atom  99C    basis set group =>   1
Atom 100C    basis set group =>   1
Atom 101F    basis set group =>   4
Atom 102F    basis set group =>   4
Atom 103C    basis set group =>   1
Atom 104C    basis set group =>   1
Atom 105C    basis set group =>   1
Atom 106H    basis set group =>   5
Atom 107H    basis set group =>   5
Atom 108H    basis set group =>   5
Atom 109H    basis set group =>   5
Atom 110H    basis set group =>   5
Atom 111H    basis set group =>   5
Atom 112H    basis set group =>   5
Atom 113H    basis set group =>   5
Atom 114H    basis set group =>   5
Atom 115H    basis set group =>   5
Atom 116H    basis set group =>   5
Atom 117H    basis set group =>   5
Atom 118H    basis set group =>   5
Atom 119H    basis set group =>   5
Atom 120H    basis set group =>   5
Atom 121H    basis set group =>   5
Atom 122H    basis set group =>   5
Atom 123H    basis set group =>   5
Atom 124H    basis set group =>   5
Atom 125H    basis set group =>   5
Atom 126H    basis set group =>   5
Atom 127H    basis set group =>   5
Atom 128H    basis set group =>   5
Atom 129H    basis set group =>   5
Atom 130H    basis set group =>   5
Atom 131H    basis set group =>   5
Atom 132H    basis set group =>   5
Atom 133H    basis set group =>   5
Atom 134H    basis set group =>   5
Atom 135H    basis set group =>   5
Atom 136H    basis set group =>   5
Atom 137H    basis set group =>   5
Atom 138H    basis set group =>   5
Atom 139H    basis set group =>   5
Atom 140H    basis set group =>   5
Atom 141H    basis set group =>   5
Atom 142H    basis set group =>   5
Atom 143H    basis set group =>   5
Atom 144H    basis set group =>   5
Atom 145H    basis set group =>   5
Atom 146H    basis set group =>   5
Atom 147H    basis set group =>   5
Atom 148H    basis set group =>   5
Atom 149H    basis set group =>   5
Atom 150H    basis set group =>   5
Atom 151H    basis set group =>   5
Atom 152H    basis set group =>   5
Atom 153H    basis set group =>   5
Atom 154H    basis set group =>   5
Atom 155H    basis set group =>   5
Atom 156H    basis set group =>   5
Atom 157H    basis set group =>   5
---------------------------------
AUXILIARY/J BASIS SET INFORMATION
---------------------------------
There are 5 groups of distinct atoms

 Group   1 Type C   : 12s5p4d2f1g contracted to 6s4p3d1f1g pattern {711111/2111/211/2/1}
 Group   2 Type S   : 14s5p5d2f1g contracted to 8s4p3d1f1g pattern {71111111/2111/311/2/1}
 Group   3 Type N   : 12s5p4d2f1g contracted to 6s4p3d1f1g pattern {711111/2111/211/2/1}
 Group   4 Type F   : 12s5p4d2f1g contracted to 6s4p3d1f1g pattern {711111/2111/211/2/1}
 Group   5 Type H   : 5s2p1d contracted to 3s1p1d pattern {311/2/1}

Atom   0C    basis set group =>   1
Atom   1C    basis set group =>   1
Atom   2S    basis set group =>   2
Atom   3C    basis set group =>   1
Atom   4C    basis set group =>   1
Atom   5C    basis set group =>   1
Atom   6C    basis set group =>   1
Atom   7C    basis set group =>   1
Atom   8C    basis set group =>   1
Atom   9C    basis set group =>   1
Atom  10C    basis set group =>   1
Atom  11C    basis set group =>   1
Atom  12N    basis set group =>   3
Atom  13S    basis set group =>   2
Atom  14N    basis set group =>   3
Atom  15C    basis set group =>   1
Atom  16S    basis set group =>   2
Atom  17C    basis set group =>   1
Atom  18C    basis set group =>   1
Atom  19C    basis set group =>   1
Atom  20C    basis set group =>   1
Atom  21C    basis set group =>   1
Atom  22C    basis set group =>   1
Atom  23C    basis set group =>   1
Atom  24S    basis set group =>   2
Atom  25C    basis set group =>   1
Atom  26S    basis set group =>   2
Atom  27C    basis set group =>   1
Atom  28C    basis set group =>   1
Atom  29C    basis set group =>   1
Atom  30F    basis set group =>   4
Atom  31F    basis set group =>   4
Atom  32C    basis set group =>   1
Atom  33C    basis set group =>   1
Atom  34C    basis set group =>   1
Atom  35C    basis set group =>   1
Atom  36C    basis set group =>   1
Atom  37S    basis set group =>   2
Atom  38C    basis set group =>   1
Atom  39C    basis set group =>   1
Atom  40C    basis set group =>   1
Atom  41C    basis set group =>   1
Atom  42C    basis set group =>   1
Atom  43C    basis set group =>   1
Atom  44C    basis set group =>   1
Atom  45C    basis set group =>   1
Atom  46C    basis set group =>   1
Atom  47N    basis set group =>   3
Atom  48S    basis set group =>   2
Atom  49N    basis set group =>   3
Atom  50C    basis set group =>   1
Atom  51S    basis set group =>   2
Atom  52C    basis set group =>   1
Atom  53C    basis set group =>   1
Atom  54C    basis set group =>   1
Atom  55C    basis set group =>   1
Atom  56C    basis set group =>   1
Atom  57C    basis set group =>   1
Atom  58C    basis set group =>   1
Atom  59S    basis set group =>   2
Atom  60C    basis set group =>   1
Atom  61S    basis set group =>   2
Atom  62C    basis set group =>   1
Atom  63C    basis set group =>   1
Atom  64C    basis set group =>   1
Atom  65F    basis set group =>   4
Atom  66F    basis set group =>   4
Atom  67C    basis set group =>   1
Atom  68C    basis set group =>   1
Atom  69C    basis set group =>   1
Atom  70C    basis set group =>   1
Atom  71C    basis set group =>   1
Atom  72S    basis set group =>   2
Atom  73C    basis set group =>   1
Atom  74C    basis set group =>   1
Atom  75C    basis set group =>   1
Atom  76C    basis set group =>   1
Atom  77C    basis set group =>   1
Atom  78C    basis set group =>   1
Atom  79C    basis set group =>   1
Atom  80C    basis set group =>   1
Atom  81C    basis set group =>   1
Atom  82N    basis set group =>   3
Atom  83S    basis set group =>   2
Atom  84N    basis set group =>   3
Atom  85C    basis set group =>   1
Atom  86S    basis set group =>   2
Atom  87C    basis set group =>   1
Atom  88C    basis set group =>   1
Atom  89C    basis set group =>   1
Atom  90C    basis set group =>   1
Atom  91C    basis set group =>   1
Atom  92C    basis set group =>   1
Atom  93C    basis set group =>   1
Atom  94S    basis set group =>   2
Atom  95C    basis set group =>   1
Atom  96S    basis set group =>   2
Atom  97C    basis set group =>   1
Atom  98C    basis set group =>   1
Atom  99C    basis set group =>   1
Atom 100C    basis set group =>   1
Atom 101F    basis set group =>   4
Atom 102F    basis set group =>   4
Atom 103C    basis set group =>   1
Atom 104C    basis set group =>   1
Atom 105C    basis set group =>   1
Atom 106H    basis set group =>   5
Atom 107H    basis set group =>   5
Atom 108H    basis set group =>   5
Atom 109H    basis set group =>   5
Atom 110H    basis set group =>   5
Atom 111H    basis set group =>   5
Atom 112H    basis set group =>   5
Atom 113H    basis set group =>   5
Atom 114H    basis set group =>   5
Atom 115H    basis set group =>   5
Atom 116H    basis set group =>   5
Atom 117H    basis set group =>   5
Atom 118H    basis set group =>   5
Atom 119H    basis set group =>   5
Atom 120H    basis set group =>   5
Atom 121H    basis set group =>   5
Atom 122H    basis set group =>   5
Atom 123H    basis set group =>   5
Atom 124H    basis set group =>   5
Atom 125H    basis set group =>   5
Atom 126H    basis set group =>   5
Atom 127H    basis set group =>   5
Atom 128H    basis set group =>   5
Atom 129H    basis set group =>   5
Atom 130H    basis set group =>   5
Atom 131H    basis set group =>   5
Atom 132H    basis set group =>   5
Atom 133H    basis set group =>   5
Atom 134H    basis set group =>   5
Atom 135H    basis set group =>   5
Atom 136H    basis set group =>   5
Atom 137H    basis set group =>   5
Atom 138H    basis set group =>   5
Atom 139H    basis set group =>   5
Atom 140H    basis set group =>   5
Atom 141H    basis set group =>   5
Atom 142H    basis set group =>   5
Atom 143H    basis set group =>   5
Atom 144H    basis set group =>   5
Atom 145H    basis set group =>   5
Atom 146H    basis set group =>   5
Atom 147H    basis set group =>   5
Atom 148H    basis set group =>   5
Atom 149H    basis set group =>   5
Atom 150H    basis set group =>   5
Atom 151H    basis set group =>   5
Atom 152H    basis set group =>   5
Atom 153H    basis set group =>   5
Atom 154H    basis set group =>   5
Atom 155H    basis set group =>   5
Atom 156H    basis set group =>   5
Atom 157H    basis set group =>   5
------------------------------------------------------------------------------
                           ORCA GTO INTEGRAL CALCULATION
                           -- RI-GTO INTEGRALS CHOSEN --
------------------------------------------------------------------------------

                         BASIS SET STATISTICS AND STARTUP INFO

Gaussian basis set:
 # of primitive gaussian shells          ... 1622
 # of primitive gaussian functions       ... 3088
 # of contracted shells                  ...  822
 # of contracted basis functions         ... 1804
 Highest angular momentum                ...    2
 Maximum contraction depth               ...    5
Auxiliary gaussian basis set:
 # of primitive gaussian shells          ... 3005
 # of primitive gaussian functions       ... 8357
 # of contracted shells                  ... 1880
 # of contracted aux-basis functions     ... 5796
 Highest angular momentum                ...    4
 Maximum contraction depth               ...    7
Ratio of auxiliary to basis functions    ...  3.21
Integral package used                  ... LIBINT
 One Electron integrals                  ... done
 Ordering auxiliary basis shells         ... done
 Integral threshhold             Thresh  ...  2.500e-11
 Primitive cut-off               TCut    ...  2.500e-12
 Pre-screening matrix                    ... done
 Shell pair data                         ... 
 Ordering of the shell pairs             ... done (   0.013 sec) 61985 of 338253 pairs
 Determination of significant pairs      ... done (   0.000 sec)
 Creation of shell pair data             ... done (   0.008 sec)
 Storage of shell pair data              ... done (   0.012 sec)
 Shell pair data done in (   0.033 sec)
 Computing two index integrals           ... done
 Cholesky decomposition of the V-matrix  ... done


Timings:
 Total evaluation time                   ...   4.483 sec (  0.075 min)
 One electron matrix time                ...   1.122 sec (  0.019 min) = 25.0%
 Schwartz matrix evaluation time         ...   1.447 sec (  0.024 min) = 32.3%
 Two index repulsion integral time       ...   0.753 sec (  0.013 min) = 16.8%
 Cholesky decomposition of V             ...   1.109 sec (  0.018 min) = 24.7%
 Three index repulsion integral time     ...   0.000 sec (  0.000 min) =  0.0%

-------------------------------------------------------------------------------
                                 ORCA SCF
-------------------------------------------------------------------------------

------------
SCF SETTINGS
------------
Hamiltonian:
 Density Functional     Method          .... DFT(GTOs)
 Exchange Functional    Exchange        .... WB88
 Correlation Functional Correlation     .... LYP
 LDA part of GGA corr.  LDAOpt          .... VWN-5
 Gradients option       PostSCFGGA      .... off
 Hybrid DFT is turned on
   Fraction HF Exchange ScalHFX         ....  0.190000
   Scaling of DF-GGA-X  ScalDFX         ....  0.350000
   Scaling of DF-GGA-C  ScalDFC         ....  0.810000
   Scaling of DF-LDA-C  ScalLDAC        ....  1.000000
   Perturbative correction              ....  0.000000
   Density functional embedding theory  .... OFF
 Long-range corrected/Screened/Range-Separated Hybrid DFT is turned on
   Amount of maximum screened exact exchange              ....  0.460000
   Range separation parameter mu (erf(mu*r12)/r12)        ....  0.330000
 RI-approximation to the Coulomb term is turned on
   Number of auxiliary basis functions  .... 5796
   RIJ-COSX (HFX calculated with COS-X)).... on


General Settings:
 Integral files         IntName         .... PffBT4T-2DT
 Hartree-Fock type      HFTyp           .... RHF
 Total Charge           Charge          ....    0
 Multiplicity           Mult            ....    1
 Number of Electrons    NEL             ....  862
 Basis Dimension        Dim             .... 1804
 Nuclear Repulsion      ENuc            ....  20122.8007441008 Eh

Convergence Acceleration:
 DIIS                   CNVDIIS         .... on
   Start iteration      DIISMaxIt       ....    12
   Startup error        DIISStart       ....  0.200000
   # of expansion vecs  DIISMaxEq       ....     5
   Bias factor          DIISBfac        ....   1.050
   Max. coefficient     DIISMaxC        ....  10.000
 Newton-Raphson         CNVNR           .... off
 SOSCF                  CNVSOSCF        .... on
   Start iteration      SOSCFMaxIt      ....   150
   Startup grad/error   SOSCFStart      ....  0.003300
 Level Shifting         CNVShift        .... on
   Level shift para.    LevelShift      ....    0.2500
   Turn off err/grad.   ShiftErr        ....    0.0010
 Zerner damping         CNVZerner       .... off
 Static damping         CNVDamp         .... on
   Fraction old density DampFac         ....    0.7000
   Max. Damping (<1)    DampMax         ....    0.9800
   Min. Damping (>=0)   DampMin         ....    0.0000
   Turn off err/grad.   DampErr         ....    0.1000
 Fernandez-Rico         CNVRico         .... off

SCF Procedure:
 Maximum # iterations   MaxIter         ....   125
 SCF integral mode      SCFMode         .... Direct
   Integral package                     .... LIBINT
 Reset frequency        DirectResetFreq ....    20
 Integral Threshold     Thresh          ....  2.500e-11 Eh
 Primitive CutOff       TCut            ....  2.500e-12 Eh

Convergence Tolerance:
 Convergence Check Mode ConvCheckMode   .... Total+1el-Energy
 Convergence forced     ConvForced      .... 1
 Energy Change          TolE            ....  1.000e-08 Eh
 1-El. energy change                    ....  1.000e-05 Eh
 Orbital Gradient       TolG            ....  1.000e-05
 Orbital Rotation angle TolX            ....  1.000e-05
 DIIS Error             TolErr          ....  5.000e-07


Diagonalization of the overlap matrix:
Smallest eigenvalue                        ... 1.283e-04
Time for diagonalization                   ...    0.968 sec
Threshold for overlap eigenvalues          ... 1.000e-08
Number of eigenvalues below threshold      ... 0
Time for construction of square roots      ...    0.321 sec
Total time needed                          ...    1.299 sec

-------------------
DFT GRID GENERATION
-------------------

General Integration Accuracy     IntAcc      ...  4.670
Radial Grid Type                 RadialGrid  ... Gauss-Chebyshev
Angular Grid (max. acc.)         AngularGrid ... Lebedev-302
Angular grid pruning method      GridPruning ... 3 (G Style)
Weight generation scheme         WeightScheme... Becke
Basis function cutoff            BFCut       ...    1.0000e-11
Integration weight cutoff        WCut        ...    1.0000e-14
Grids for H and He will be reduced by one unit

# of grid points (after initial pruning)     ... 844830 (   2.1 sec)
# of grid points (after weights+screening)   ... 729778 (  69.1 sec)
nearest neighbour list constructed           ...    0.0 sec
Grid point re-assignment to atoms done       ...    0.1 sec
Grid point division into batches done        ...    2.4 sec
Reduced shell lists constructed in   10.2 sec

Total number of grid points                  ...   729778
Total number of batches                      ...    11481
Average number of points per batch           ...       63
Average number of grid points per atom       ...     4619
Average number of shells per batch           ...    83.49 (10.16%)
Average number of basis functions per batch  ...   174.08 ( 9.65%)
Average number of large shells per batch     ...    52.49 (62.87%)
Average number of large basis fcns per batch ...   110.74 (63.62%)
Maximum spatial batch extension              ...  21.85, 21.34, 24.37 au
Average spatial batch extension              ...   2.06,  2.02,  2.35 au

Time for grid setup =   81.412 sec

------------------------------
INITIAL GUESS: MODEL POTENTIAL
------------------------------
Loading Hartree-Fock densities                     ... done
Calculating cut-offs                               ... done
Setting up the integral package                    ... done
Initializing the effective Hamiltonian             ... done
Starting the Coulomb interaction                   ... done (  16.2 sec)
Reading the grid                                   ... done
Mapping shells                                     ... done
Starting the XC term evaluation                    ... done (  10.0 sec)
  promolecular density results
     # of electrons  =    861.975047405
     EX              =   -893.070639313
     EC              =    -30.695326730
     EX+EC           =   -923.765966044
Transforming the Hamiltonian                       ... done (   0.3 sec)
Diagonalizing the Hamiltonian                      ... done (   0.9 sec)
Back transforming the eigenvectors                 ... done (   0.1 sec)
Now organizing SCF variables                       ... done
                      ------------------
                      INITIAL GUESS DONE ( 109.5 sec)
                      ------------------
--------------------
COSX GRID GENERATION
--------------------

General Integration Accuracy     IntAcc      ...  3.340
Radial Grid Type                 RadialGrid  ... Gauss-Chebyshev
Angular Grid (max. acc.)         AngularGrid ... Lebedev-50
Angular grid pruning method      GridPruning ... 3 (G Style)
Weight generation scheme         WeightScheme... Becke
Basis function cutoff            BFCut       ...    1.0000e-11
Integration weight cutoff        WCut        ...    1.0000e-14
Grids for H and He will be reduced by one unit

# of grid points (after initial pruning)     ...  79926 (   0.1 sec)
# of grid points (after weights+screening)   ...  71970 (   6.4 sec)
nearest neighbour list constructed           ...    0.0 sec
Grid point re-assignment to atoms done       ...    0.0 sec
Grid point division into batches done        ...    0.0 sec
Reduced shell lists constructed in    1.0 sec

Total number of grid points                  ...    71970
Total number of batches                      ...     1209
Average number of points per batch           ...       59
Average number of grid points per atom       ...      456
Average number of shells per batch           ...   101.57 (12.36%)
Average number of basis functions per batch  ...   213.63 (11.84%)
Average number of large shells per batch     ...    63.99 (63.00%)
Average number of large basis fcns per batch ...   137.16 (64.21%)
Maximum spatial batch extension              ...  20.93, 16.81, 30.36 au
Average spatial batch extension              ...   3.84,  3.77,  5.73 au

Overlap Fitting                  UseSFitting ... on
Constructing numerical overlap ... done (      0.5 sec)
Inverting numerical overlap    ... done (      0.1 sec)
Obtaining analytic overlap     ... done (      0.0 sec)
Final contraction and storage  ... done (      0.2 sec)


General Integration Accuracy     IntAcc      ...  3.670
Radial Grid Type                 RadialGrid  ... Gauss-Chebyshev
Angular Grid (max. acc.)         AngularGrid ... Lebedev-50
Angular grid pruning method      GridPruning ... 3 (G Style)
Weight generation scheme         WeightScheme... Becke
Basis function cutoff            BFCut       ...    1.0000e-11
Integration weight cutoff        WCut        ...    1.0000e-14
Grids for H and He will be reduced by one unit

# of grid points (after initial pruning)     ...  99968 (   0.2 sec)
# of grid points (after weights+screening)   ...  89560 (   8.0 sec)
nearest neighbour list constructed           ...    0.0 sec
Grid point re-assignment to atoms done       ...    0.0 sec
Grid point division into batches done        ...    0.0 sec
Reduced shell lists constructed in    1.3 sec

Total number of grid points                  ...    89560
Total number of batches                      ...     1488
[...]
  18   3.928     315.6   0.005070   0.004552  -2.211333  -1.939151     0.21 ( 140-> 145)    0.13 ( 139-> 144)    0.10 ( 139-> 145)
  19   3.949     314.0   0.014823   0.014608   0.152910   0.372636     0.17 ( 139-> 145)    0.10 ( 136-> 144)    0.09 ( 140-> 145)
  20   4.006     309.5   0.009691   0.008046  -2.239514  -2.857566     0.19 ( 141-> 149)    0.18 ( 141-> 147)    0.08 ( 142-> 150)
  21   4.024     308.1   0.009664   0.010102  -0.214247  -0.324012     0.21 ( 142-> 149)    0.06 ( 142-> 150)    0.06 ( 141-> 146)
  22   4.076     304.2   0.033181   0.024953  -7.750354  -6.607688     0.28 ( 134-> 145)    0.13 ( 140-> 146)    0.06 ( 141-> 150)
  23   4.094     302.9   0.010755   0.008699  11.872230   9.139823     0.18 ( 134-> 145)    0.15 ( 132-> 144)    0.10 ( 132-> 143)
  24   4.097     302.6   0.017221   0.009163  -1.969861  -1.086728     0.36 ( 130-> 144)    0.23 ( 130-> 143)    0.05 ( 133-> 143)
  25   4.106     302.0   0.006556   0.002833  -4.976993  -3.129745     0.26 ( 132-> 144)    0.19 ( 132-> 143)    0.06 ( 134-> 145)
  26   4.122     300.8   0.028109   0.016724   3.633317   2.591871     0.18 ( 133-> 143)    0.14 ( 133-> 144)    0.08 ( 132-> 143)
  27   4.136     299.8   0.014068   0.006200  -4.689345  -3.502006     0.27 ( 129-> 143)    0.15 ( 129-> 144)    0.11 ( 130-> 143)
  28   4.163     297.8   0.016582   0.012863  -5.209750  -4.155543     0.28 ( 137-> 143)    0.10 ( 137-> 144)    0.08 ( 139-> 143)
  29   4.194     295.7   0.024202   0.013954   4.829211   3.635333     0.32 ( 131-> 145)    0.12 ( 133-> 145)    0.10 ( 131-> 144)
  30   4.205     294.8   0.068973   0.063379  13.046184  12.090521     0.21 ( 140-> 148)    0.20 ( 142-> 148)    0.07 ( 139-> 148)
  31   4.228     293.2   0.000416   0.000272   1.904213   1.896233     0.12 ( 136-> 144)    0.12 ( 138-> 144)    0.11 ( 136-> 143)
  32   4.284     289.4   0.014042   0.012396  -10.521933  -10.649453     0.21 ( 139-> 147)    0.10 ( 142-> 150)    0.09 ( 139-> 146)
  33   4.409     281.2   0.041498   0.034435   5.568207   3.886480     0.10 ( 142-> 147)    0.09 ( 141-> 150)    0.09 ( 141-> 146)
  34   4.450     278.6   0.002361   0.001186   2.240955   1.460456     0.36 ( 138-> 145)    0.08 ( 136-> 145)    0.06 ( 138-> 144)
  35   4.491     276.1   0.061298   0.045117   4.676668   2.341381     0.19 ( 139-> 146)    0.15 ( 138-> 146)    0.07 ( 142-> 148)
  36   4.539     273.2   0.104597   0.074987  -18.393805  -15.001975     0.12 ( 136-> 143)    0.11 ( 136-> 144)    0.06 ( 127-> 143)
  37   4.571     271.2   0.016594   0.011576   0.334825   0.512241     0.22 ( 142-> 148)    0.21 ( 141-> 148)    0.04 ( 140-> 150)
  38   4.615     268.6   0.004371   0.002066   0.306521   0.215288     0.23 ( 137-> 144)    0.11 ( 138-> 143)    0.08 ( 137-> 143)
  39   4.632     267.6   0.026120   0.021523  10.709857   8.241767     0.16 ( 141-> 148)    0.08 ( 142-> 148)    0.07 ( 141-> 149)
  40   4.659     266.1   0.073578   0.057151  -16.848252  -12.674341     0.17 ( 141-> 151)    0.09 ( 142-> 152)    0.05 ( 141-> 148)
  41   4.720     262.7   0.097864   0.077570  -7.454942  -6.902837     0.12 ( 138-> 146)    0.11 ( 141-> 152)    0.09 ( 141-> 149)
  42   4.784     259.2   0.098095   0.062554   4.971422   3.354052     0.12 ( 137-> 147)    0.07 ( 137-> 145)    0.06 ( 139-> 150)
  43   4.796     258.5   0.060937   0.042525   1.748211   1.958909     0.18 ( 140-> 147)    0.14 ( 141-> 149)    0.08 ( 142-> 150)
  44   4.828     256.8   0.015053   0.010581  10.910691   9.147836     0.14 ( 137-> 145)    0.06 ( 127-> 144)    0.05 ( 135-> 143)
  45   4.862     255.0   0.002602   0.002445   8.585719   7.806104     0.31 ( 126-> 143)    0.08 ( 123-> 143)    0.05 ( 127-> 144)
  46   4.869     254.6   0.063240   0.042410  -12.158373  -11.420307     0.16 ( 127-> 143)    0.14 ( 125-> 143)    0.06 ( 126-> 143)
  47   4.898     253.1   0.075158   0.056536  -15.884531  -14.581716     0.11 ( 138-> 148)    0.08 ( 140-> 148)    0.06 ( 141-> 148)
  48   4.937     251.2   0.015147   0.009334   2.164601   2.599848     0.12 ( 138-> 148)    0.06 ( 140-> 148)    0.06 ( 139-> 148)
  49   4.949     250.5   0.017471   0.010097   8.211796   6.528108     0.08 ( 141-> 150)    0.07 ( 125-> 144)    0.07 ( 135-> 143)
  50   4.957     250.1   0.159464   0.116491   5.163668   4.616344     0.09 ( 139-> 146)    0.07 ( 140-> 149)    0.06 ( 138-> 147)
  51   4.991     248.4   0.069745   0.050702   0.447225   1.800650     0.11 ( 122-> 143)    0.08 ( 119-> 144)    0.07 ( 127-> 144)

-----------------------------------------------------------------------------
         ABSORPTION SPECTRUM VIA TRANSITION ELECTRIC DIPOLE MOMENTS
-----------------------------------------------------------------------------
State   Energy  Wavelength   fosc         T2         TX        TY        TZ  
        (cm-1)    (nm)                  (au**2)     (au)      (au)      (au) 
-----------------------------------------------------------------------------
   0   15118.4    661.4   1.631072887  35.51761   5.72636  -1.65112   0.01356
   1   16575.5    603.3   1.759389755  34.94385  -1.39467  -5.74438  -0.02841
   2   17931.8    557.7   0.493947087   9.06842  -1.68942  -2.49275   0.02246
   3   20594.0    485.6   0.061118257   0.97702  -0.92901  -0.33598   0.03297
   4   21329.2    468.8   0.137696980   2.12533  -0.66130   1.29897   0.02631
   5   23878.9    418.8   0.281982150   3.88761  -1.35181   1.43534  -0.00369
   6   24286.5    411.8   0.244676195   3.31667  -1.80078   0.27180   0.00090
   7   25071.3    398.9   0.373686917   4.90689  -1.37844  -1.73401   0.00484
   8   25725.4    388.7   0.512949858   6.56429  -1.65214  -1.95821   0.01007
   9   25912.4    385.9   0.399729524   5.07849   1.40651  -1.76071   0.01022
  10   26972.4    370.7   0.000583928   0.00713  -0.05074  -0.06639  -0.01204
  11   27439.0    364.4   0.540828036   6.48884  -0.10177   2.54489   0.04502
  12   27574.3    362.7   0.152715751   1.82329  -0.34935  -1.30427   0.01053
  13   28128.1    355.5   0.145698747   1.70526  -0.80930  -1.02466  -0.01927
  14   29342.3    340.8   0.177379030   1.99014  -0.63200  -1.26095  -0.02678
  15   29707.5    336.6   0.019574310   0.21692  -0.46493  -0.02732   0.00389
  16   30463.9    328.3   0.023109783   0.24974   0.32281   0.38148   0.00048
  17   30704.8    325.7   0.021735393   0.23304  -0.38433  -0.29205  -0.00642
  18   31682.6    315.6   0.005069896   0.05268  -0.09771  -0.20768   0.00104
  19   31851.7    314.0   0.014823049   0.15321   0.04260  -0.38874  -0.01649
  20   32311.2    309.5   0.009691286   0.09874  -0.01628   0.31350   0.01400
  21   32456.0    308.1   0.009663960   0.09802   0.29846   0.09458  -0.00076
  22   32874.6    304.2   0.033181100   0.33228   0.57479   0.03996  -0.01749
  23   33018.4    302.9   0.010755023   0.10723  -0.32458   0.02387  -0.03618
  24   33046.6    302.6   0.017221450   0.17156   0.27526  -0.30950   0.00262
  25   33116.8    302.0   0.006556437   0.06518  -0.24753   0.06221   0.00614
  26   33249.5    300.8   0.028109353   0.27832  -0.07363  -0.52239  -0.00145
  27   33360.1    299.8   0.014067965   0.13883   0.25475   0.27190  -0.00002
  28   33574.1    297.8   0.016581938   0.16259  -0.06301   0.39747   0.02542
  29   33823.0    295.7   0.024201930   0.23557   0.24896  -0.41595  -0.02399
  30   33918.9    294.8   0.068972561   0.66944  -0.10233  -0.81147  -0.02201
  31   34103.5    293.2   0.000416350   0.00402  -0.00734   0.05889  -0.02230
  32   34555.3    289.4   0.014042403   0.13378  -0.34857  -0.10921   0.01884
  33   35563.3    281.2   0.041498209   0.38415  -0.55363   0.27857  -0.00623
  34   35888.7    278.6   0.002360985   0.02166   0.11342   0.09305  -0.01159
  35   36223.2    276.1   0.061297988   0.55710  -0.41526   0.62020   0.00384
  36   36608.6    273.2   0.104596515   0.94061   0.33845   0.90888   0.00218
  37   36870.0    271.2   0.016593846   0.14817  -0.12630  -0.36362  -0.00033
  38   37225.3    268.6   0.004371413   0.03866   0.19564  -0.01935  -0.00336
  39   37362.4    267.6   0.026119740   0.23015   0.45556   0.14918   0.01888
  40   37574.3    266.1   0.073577987   0.64466  -0.37369  -0.71039   0.01923
  41   38069.4    262.7   0.097863610   0.84629   0.89144   0.22546  -0.02831
  42   38585.1    259.2   0.098095276   0.83696  -0.90425  -0.13457   0.03432
  43   38683.0    258.5   0.060937277   0.51861   0.49505  -0.52292  -0.00921
  44   38937.8    256.8   0.015053059   0.12727  -0.35131   0.02813   0.05532
  45   39217.9    255.0   0.002601881   0.02184   0.08497  -0.11980   0.01641
  46   39275.1    254.6   0.063240492   0.53009  -0.72415   0.07110  -0.02550
  47   39504.1    253.1   0.075158247   0.62634  -0.78606  -0.09180  -0.00539
  48   39816.0    251.2   0.015147353   0.12524   0.30302   0.18213   0.01581
  49   39917.8    250.5   0.017471012   0.14409  -0.22670  -0.30351  -0.02395
  50   39984.0    250.1   0.159463608   1.31296  -0.71971   0.89161   0.00376
  51   40258.6    248.4   0.069745365   0.57034  -0.49358   0.57130  -0.01831

-----------------------------------------------------------------------------
         ABSORPTION SPECTRUM VIA TRANSITION VELOCITY DIPOLE MOMENTS
-----------------------------------------------------------------------------
State   Energy  Wavelength   fosc         P2         PX        PY        PZ  
        (cm-1)    (nm)                  (au**2)     (au)      (au)      (au) 
-----------------------------------------------------------------------------
   0   15118.4    661.4   1.942294667   0.20069   0.43136  -0.12092   0.00117
   1   16575.5    603.3   2.071514273   0.23467  -0.11441  -0.47072  -0.00228
   2   17931.8    557.7   0.551003047   0.06753  -0.14735  -0.21404   0.00185
   3   20594.0    485.6   0.063154791   0.00889  -0.08941  -0.02972   0.00337
   4   21329.2    468.8   0.145283732   0.02118  -0.06312   0.13110   0.00268
   5   23878.9    418.8   0.265940839   0.04340  -0.14060   0.15373  -0.00046
   6   24286.5    411.8   0.227369740   0.03774  -0.19174   0.03122   0.00040
   7   25071.3    398.9   0.353854513   0.06063  -0.15428  -0.19191   0.00090
   8   25725.4    388.7   0.499718006   0.08786  -0.19522  -0.22304   0.00162
   9   25912.4    385.9   0.395767432   0.07009   0.16494  -0.20708   0.00147
  10   26972.4    370.7   0.000536896   0.00010  -0.00354  -0.00916  -0.00158
  11   27439.0    364.4   0.504025857   0.09452  -0.01522   0.30701   0.00569
  12   27574.3    362.7   0.157266993   0.02964  -0.04608  -0.16587   0.00150
  13   28128.1    355.5   0.146090472   0.02808  -0.10545  -0.13022  -0.00256
  14   29342.3    340.8   0.161435372   0.03237  -0.07791  -0.16214  -0.00362
  15   29707.5    336.6   0.019615289   0.00398  -0.06310  -0.00100   0.00053
  16   30463.9    328.3   0.023484732   0.00489   0.04336   0.05486   0.00024
  17   30704.8    325.7   0.017668229   0.00371  -0.04923  -0.03582  -0.00095
  18   31682.6    315.6   0.004551809   0.00099  -0.01220  -0.02893   0.00002
  19   31851.7    314.0   0.014608289   0.00318   0.00803  -0.05576  -0.00245
  20   32311.2    309.5   0.008045678   0.00178  -0.00356   0.04194   0.00232
  21   32456.0    308.1   0.010101965   0.00224   0.04462   0.01580  -0.00013
  22   32874.6    304.2   0.024952966   0.00561   0.07473   0.00423  -0.00191
  23   33018.4    302.9   0.008699401   0.00196  -0.04383   0.00487  -0.00432
  24   33046.6    302.6   0.009162678   0.00207   0.02697  -0.03664   0.00024
  25   33116.8    302.0   0.002833309   0.00064  -0.02370   0.00889   0.00071
  26   33249.5    300.8   0.016723540   0.00380  -0.02003  -0.05830  -0.00029
  27   33360.1    299.8   0.006199875   0.00141   0.02503   0.02805  -0.00013
  28   33574.1    297.8   0.012862706   0.00295  -0.00974   0.05335   0.00326
  29   33823.0    295.7   0.013953973   0.00323   0.02921  -0.04865  -0.00234
  30   33918.9    294.8   0.063378523   0.01469  -0.02313  -0.11894  -0.00331
  31   34103.5    293.2   0.000272475   0.00006   0.00144   0.00726  -0.00294
  32   34555.3    289.4   0.012396491   0.00293  -0.04624  -0.02798   0.00263
  33   35563.3    281.2   0.034435444   0.00837  -0.08202   0.04053  -0.00076
  34   35888.7    278.6   0.001185533   0.00029   0.01155   0.01248  -0.00119
  35   36223.2    276.1   0.045117081   0.01117  -0.06858   0.08041   0.00094
  36   36608.6    273.2   0.074987112   0.01876   0.04328   0.12995   0.00059
  37   36870.0    271.2   0.011575647   0.00292  -0.01338  -0.05232  -0.00021
  38   37225.3    268.6   0.002066120   0.00053   0.02245  -0.00464  -0.00033
  39   37362.4    267.6   0.021522602   0.00550   0.06987   0.02464   0.00268
  40   37574.3    266.1   0.057151481   0.01468  -0.05284  -0.10899   0.00235
  41   38069.4    262.7   0.077570072   0.02018   0.13469   0.04498  -0.00421
  42   38585.1    259.2   0.062554491   0.01650  -0.12581  -0.02538   0.00485
  43   38683.0    258.5   0.042524526   0.01124   0.07330  -0.07661  -0.00100
  44   38937.8    256.8   0.010580515   0.00282  -0.05225   0.00436   0.00818
  45   39217.9    255.0   0.002444951   0.00066   0.00932  -0.02369   0.00268
  46   39275.1    254.6   0.042410029   0.01138  -0.10653   0.00465  -0.00368
  47   39504.1    253.1   0.056535698   0.01526  -0.12232  -0.01733  -0.00071
  48   39816.0    251.2   0.009334457   0.00254   0.04274   0.02658   0.00256
  49   39917.8    250.5   0.010096711   0.00275  -0.03542  -0.03857  -0.00353
  50   39984.0    250.1   0.116490967   0.03183  -0.11107   0.13963   0.00044
  51   40258.6    248.4   0.050702023   0.01395  -0.07305   0.09277  -0.00279

-------------------------------------------------------------------
                             CD SPECTRUM
-------------------------------------------------------------------
State   Energy Wavelength       R         MX        MY        MZ   
        (cm-1)   (nm)       (1e40*cgs)   (au)      (au)      (au)  
-------------------------------------------------------------------
   0   15118.4    661.4     75.91843   0.01423   0.05091 -23.56778
   1   16575.5    603.3    -149.92820  -0.06861  -0.15708  12.74044
   2   17931.8    557.7     55.69879   0.08716   0.04327   0.83859
   3   20594.0    485.6     11.74021   0.11811   0.04185   2.24412
   4   21329.2    468.8     -3.22235   0.09983   0.09575  -1.69870
   5   23878.9    418.8    -10.36100  -0.04214   0.00555   5.68194
   6   24286.5    411.8     12.05339   0.03375  -0.00168  11.28744
   7   25071.3    398.9     -4.79111   0.04484  -0.02631   7.54363
   8   25725.4    388.7     -1.62918   0.07344  -0.01684   9.45981
   9   25912.4    385.9      9.74649   0.02832  -0.00664  -9.09107
  10   26972.4    370.7      1.22668  -0.01279   0.01286   0.41528
  11   27439.0    364.4     13.50446   0.20432   0.21578 -13.00739
  12   27574.3    362.7    -16.74798   0.03541  -0.03599   3.46416
  13   28128.1    355.5     12.50056  -0.06791  -0.07882   9.79373
  14   29342.3    340.8      1.63813  -0.09848  -0.03674   4.31309
  15   29707.5    336.6     -4.39965  -0.00954  -0.03187   3.43356
  16   30463.9    328.3     -1.95528   0.00333   0.02155  -2.09106
  17   30704.8    325.7      0.43162  -0.01704   0.04560  -0.76960
  18   31682.6    315.6     -2.21133  -0.02743  -0.02901   0.65026
  19   31851.7    314.0      0.15291  -0.06065  -0.01549   0.24784
  20   32311.2    309.5     -2.23951   0.08171  -0.02799   1.40035
  21   32456.0    308.1     -0.21425  -0.00824   0.01868  -2.11467
  22   32874.6    304.2     -7.75035   0.05061  -0.01371  -0.24789
  23   33018.4    302.9     11.87223  -0.04231  -0.01582   1.76110
  24   33046.6    302.6     -1.96986   0.02943   0.01484   1.85138
  25   33116.8    302.0     -4.97699  -0.07475  -0.04045   0.83502
  26   33249.5    300.8      3.63332  -0.01853   0.02858   1.27308
  27   33360.1    299.8     -4.68935   0.04976   0.02638  -2.06907
  28   33574.1    297.8     -5.20975   0.05251  -0.01914   1.29864
  29   33823.0    295.7      4.82921  -0.05583   0.01278   0.05312
  30   33918.9    294.8     13.04618  -0.06202  -0.02894   3.86902
  31   34103.5    293.2      1.90421  -0.08956  -0.06266   0.22628
  32   34555.3    289.4    -10.52193   0.03945  -0.06288   2.73407
  33   35563.3    281.2      5.56821  -0.03075  -0.03251   5.06900
  34   35888.7    278.6      2.24096  -0.01122  -0.01228   0.61156
  35   36223.2    276.1      4.67667   0.06360  -0.01576   4.25417
  36   36608.6    273.2    -18.39380   0.11509   0.04261   0.16390
  37   36870.0    271.2      0.33483  -0.01621   0.00906   0.52356
  38   37225.3    268.6      0.30652   0.01962   0.03186   1.34394
  39   37362.4    267.6     10.70986   0.06281   0.04709  -4.29317
  40   37574.3    266.1    -16.84825   0.01554  -0.02665   3.03510
  41   38069.4    262.7     -7.45494  -0.06257   0.04365  -2.73946
  42   38585.1    259.2      4.97142   0.08439  -0.04893   1.41734
  43   38683.0    258.5      1.74821   0.00129   0.03468  -1.09420
  44   38937.8    256.8     10.91069   0.11781  -0.02805  -0.07430
  45   39217.9    255.0      8.58572  -0.02348   0.01813  -1.96552
  46   39275.1    254.6    -12.15837  -0.18296  -0.15255   2.74726
  47   39504.1    253.1    -15.88453  -0.08969  -0.11026   2.45519
  48   39816.0    251.2      2.16460   0.05867   0.05189  -2.30286
  49   39917.8    250.5      8.21180  -0.08176  -0.01249   2.38638
  50   39984.0    250.1      5.16367  -0.00793  -0.03462   0.86679
  51   40258.6    248.4      0.44722  -0.14684  -0.13899  -0.27498

sTD-DFT done

Total run time:       11.503 sec

           *** ORCA-CIS/TD-DFT FINISHED WITHOUT ERROR ***

-------------------------   --------------------
FINAL SINGLE POINT ENERGY     -9935.390340808995
-------------------------   --------------------


                            ***************************************
                            *     ORCA property calculations      *
                            ***************************************

                                    ---------------------
                                    Active property flags
                                    ---------------------
   (+) Dipole Moment


------------------------------------------------------------------------------
                       ORCA ELECTRIC PROPERTIES CALCULATION
------------------------------------------------------------------------------

Dipole Moment Calculation                       ... on
Quadrupole Moment Calculation                   ... off
Polarizability Calculation                      ... off
GBWName                                         ... PffBT4T-2DT.gbw
Electron density file                           ... PffBT4T-2DT.scfp
The origin for moment calculation is the CENTER OF MASS  = (16.131875, -28.090077  0.000470)

-------------
DIPOLE MOMENT
-------------
                                X             Y             Z
Electronic contribution:     21.05389     -16.39167      -1.82637
Nuclear contribution   :    -21.62927      15.76899       1.90925
                        -----------------------------------------
Total Dipole Moment    :     -0.57538      -0.62268       0.08288
                        -----------------------------------------
Magnitude (a.u.)       :      0.85186
Magnitude (Debye)      :      2.16526



--------------------
Rotational spectrum 
--------------------
 
Rotational constants in cm-1:     0.000202     0.000075     0.000055 
Rotational constants in MHz :     6.056452     2.242482     1.636941 

 Dipole components along the rotational axes: 
x,y,z [a.u.] :    -0.237277    -0.813680     0.085390 
x,y,z [Debye]:    -0.603111    -2.068211     0.217044 

 

Timings for individual modules:

Sum of individual times         ...     5926.138 sec (=  98.769 min)
GTO integral calculation        ...        6.220 sec (=   0.104 min)   0.1 %
SCF iterations                  ...     5908.321 sec (=  98.472 min)  99.7 %
CIS module                      ...       11.597 sec (=   0.193 min)   0.2 %
                             ****ORCA TERMINATED NORMALLY****
TOTAL RUN TIME: 0 days 1 hours 38 minutes 47 seconds 26 msec
