
                                 *****************
                                 * O   R   C   A *
                                 *****************

           --- An Ab Initio, DFT and Semiempirical electronic structure package ---

                  #######################################################
                  #                        -***-                        #
                  #          Department of theory and spectroscopy      #
                  #               Directorship: Frank Neese             #
                  #        Max Planck Institute fuer Kohlenforschung    #
                  #                Kaiser Wilhelm Platz 1               #
                  #                 D-45470 Muelheim/Ruhr               #
                  #                      Germany                        #
                  #                                                     #
                  #                  All rights reserved                #
                  #                        -***-                        #
                  #######################################################


                         Program Version 4.2.0 -  RELEASE  -


 With contributions from (in alphabetic order):
   Daniel Aravena         : Magnetic Suceptibility
   Michael Atanasov       : Ab Initio Ligand Field Theory (pilot matlab implementation)
   Alexander A. Auer      : GIAO ZORA, VPT2
   Ute Becker             : Parallelization
   Giovanni Bistoni       : ED, misc. LED, open-shell LED, HFLED
   Martin Brehm           : Molecular dynamics
   Dmytro Bykov           : SCF Hessian
   Vijay G. Chilkuri      : MRCI spin determinant printing, contributions to CSF-ICE
   Dipayan Datta          : RHF DLPNO-CCSD density
   Achintya Kumar Dutta   : EOM-CC, STEOM-CC
   Dmitry Ganyushin       : Spin-Orbit,Spin-Spin,Magnetic field MRCI
   Miquel Garcia          : C-PCM Hessian, Gaussian charge scheme
   Yang Guo               : DLPNO-NEVPT2, CIM, IAO-localization
   Andreas Hansen         : Spin unrestricted coupled pair/coupled cluster methods
   Benjamin Helmich-Paris : CASSCF linear response (MC-RPA)
   Lee Huntington         : MR-EOM, pCC
   Robert Izsak           : Overlap fitted RIJCOSX, COSX-SCS-MP3, EOM
   Christian Kollmar      : KDIIS, OOCD, Brueckner-CCSD(T), CCSD density
   Simone Kossmann        : Meta GGA functionals, TD-DFT gradient, OOMP2, MP2 Hessian
   Martin Krupicka        : AUTO-CI
   Lucas Lang             : DCDCAS
   Dagmar Lenk            : GEPOL surface, SMD
   Dimitrios Liakos       : Extrapolation schemes; Compound Job, initial MDCI parallelization
   Dimitrios Manganas     : Further ROCIS development; embedding schemes
   Dimitrios Pantazis     : SARC Basis sets
   Taras Petrenko         : DFT Hessian,TD-DFT gradient, ASA, ECA, R-Raman, ABS, FL, XAS/XES, NRVS
   Peter Pinski           : DLPNO-MP2, DLPNO-MP2 Gradient
   Christoph Reimann      : Effective Core Potentials
   Marius Retegan         : Local ZFS, SOC
   Christoph Riplinger    : Optimizer, TS searches, QM/MM, DLPNO-CCSD(T), (RO)-DLPNO pert. Triples
   Tobias Risthaus        : Range-separated hybrids, TD-DFT gradient, RPA, STAB
   Michael Roemelt        : Original ROCIS implementation
   Masaaki Saitow         : Open-shell DLPNO-CCSD energy and density
   Barbara Sandhoefer     : DKH picture change effects
   Avijit Sen             : IP-ROCIS
   Kantharuban Sivalingam : CASSCF convergence, NEVPT2, FIC-MRCI
   Bernardo de Souza      : ESD, SOC TD-DFT
   Georgi Stoychev        : AutoAux, RI-MP2 NMR
   Willem Van den Heuvel  : Paramagnetic NMR
   Boris Wezisla          : Elementary symmetry handling
   Frank Wennmohs         : Technical directorship


 We gratefully acknowledge several colleagues who have allowed us to
 interface, adapt or use parts of their codes:
   Stefan Grimme, W. Hujo, H. Kruse,             : VdW corrections, initial TS optimization,
                  C. Bannwarth                     DFT functionals, gCP, sTDA/sTD-DF
   Ed Valeev, F. Pavosevic, A. Kumar             : LibInt (2-el integral package), F12 methods
   Garnet Chan, S. Sharma, J. Yang, R. Olivares  : DMRG
   Ulf Ekstrom                                   : XCFun DFT Library
   Mihaly Kallay                                 : mrcc  (arbitrary order and MRCC methods)
   Andreas Klamt, Michael Diedenhofen            : otool_cosmo (COSMO solvation model)
   Jiri Pittner, Ondrej Demel                    : Mk-CCSD
   Frank Weinhold                                : gennbo (NPA and NBO analysis)
   Christopher J. Cramer and Donald G. Truhlar   : smd solvation model
   Lars Goerigk                                  : TD-DFT with DH, B97 family of functionals
   V. Asgeirsson, H. Jonsson                     : NEB implementation
   FAccTs GmbH                                   : IRC, NEB, NEB-TS, Multilevel, MM, QM/MM, CI optimization
   S Lehtola, MJT Oliveira, MAL Marques          : LibXC Library


 Your calculation uses the libint2 library for the computation of 2-el integrals
 For citations please refer to: http://libint.valeyev.net

 Your ORCA version has been built with support for libXC version: 4.2.3
 For citations please refer to: https://tddft.org/programs/libxc/

 This ORCA versions uses:
   CBLAS   interface :  Fast vector & matrix operations
   LAPACKE interface :  Fast linear algebra routines
   SCALAPACK package :  Parallel linear algebra routines


XCFun DFT library Copyright 2009-2010 Ulf Ekstrom and contributors.
See http://admol.org/xcfun for more information. This is free soft-
ware; see the source code for copying conditions. There is ABSOLUTELY
NO WARRANTY; not even for MERCHANTABILITY or FITNESS FOR A PARTICULAR
PURPOSE. For details see the documentation. Scientific users of this 
library should cite U. Ekstrom, L. Visscher, R. Bast, A. J. Thorvald-
sen and K. Ruud; J.Chem.Theor.Comp. 2010, DOI: 10.1021/ct100117s
XCFun Version 0.99 
----- Orbital basis set information -----
Your calculation utilizes the basis: def2-SVP
   F. Weigend and R. Ahlrichs, Phys. Chem. Chem. Phys. 7, 3297 (2005).

----- AuxJ basis set information -----
Your calculation utilizes the auxiliary basis: def2/J
   F. Weigend, Phys. Chem. Chem. Phys. 8, 1057 (2006).

================================================================================
                                        WARNINGS
                       Please study these warnings very carefully!
================================================================================

INFO   : Checking CIS options ...

WARNING: CIS/ROCIS methods need fully converged wavefunctions
  ===> : Setting SCFConvForced true
         You can overwrite this default with %scf ConvForced false 


INFO   : the flag for use of LIBINT has been found!

================================================================================
                                       INPUT FILE
================================================================================
NAME = PTB7-Th_olig.inp
|  1> # ORCA input file
|  2> # PTB7-Th_olig.out
|  3> ! CAM-B3LYP def2-SVP def2/J RIJCOSX Grid4 TightSCF
|  4> %maxcore 5000
|  5> %tddft
|  6>     Mode sTDDFT
|  7>     Ethresh 5.0
|  8>     maxcore 5000
|  9> end
| 10> * xyz 0 1
| 11>    C        0.45684         1.62723         0.17060
| 12>    C        1.11879         0.38321         0.18779
| 13>    C        0.38270        -0.82288         0.28664
| 14>    C       -1.00580        -0.86983         0.34641
| 15>    C       -1.67300         0.37536         0.31510
| 16>    C       -0.93126         1.57984         0.22077
| 17>    C        2.50618         0.14817         0.06045
| 18>    C        2.84617        -1.17345         0.08729
| 19>    S        1.44581        -2.20876         0.25983
| 20>    C       -3.05793         0.62648         0.41977
| 21>    C       -3.38932         1.95705         0.38850
| 22>    S       -1.97131         2.97238         0.23351
| 23>    C        1.17675         2.88256         0.11999
| 24>    C       -1.71069        -2.13205         0.41616
| 25>    C        4.16982        -1.68827         0.01640
| 26>    C        0.85136         4.02285        -0.56148
| 27>    C        1.77748         5.06730        -0.37451
| 28>    C        2.80100         4.74481         0.46384
| 29>    S        2.63954         3.12172         1.03932
| 30>    C       -1.35025        -3.26226         1.09648
| 31>    C       -2.24280        -4.33569         0.91095
| 32>    C       -3.27751        -4.04441         0.07634
| 33>    S       -3.17387        -2.41090        -0.48984
| 34>    S        4.53147        -3.39607         0.04950
| 35>    C        6.24320        -3.14515        -0.02571
| 36>    C        6.51699        -1.79780        -0.08169
| 37>    C        5.34786        -0.98093        -0.05612
| 38>    C        7.69031        -0.98892        -0.14554
| 39>    C        7.44969         0.34941        -0.18503
| 40>    S        5.73398         0.71389        -0.09938
| 41>    F        8.92024        -1.52891        -0.13313
| 42>    C        8.34109         1.53382        -0.08990
| 43>    C        3.98192         5.56225         0.85675
| 44>    C        5.26421         5.02971         0.21209
| 45>    C       -4.42312        -4.90718        -0.32593
| 46>    C       -5.72388        -4.44691         0.33580
| 47>    O        9.46881         1.58633        -0.79273
| 48>    O        8.03388         2.45620         0.62185
| 49>    C        9.80354         0.66233        -1.82198
| 50>    C       10.54569         1.42345        -2.90958
| 51>    C      -12.11524         3.63614         0.52108
| 52>    C      -10.92421         2.88438         0.50606
| 53>    C      -10.96265         1.46867         0.46794
| 54>    C      -12.14695         0.73860         0.44625
| 55>    C      -13.34453         1.48919         0.49261
| 56>    C      -13.29567         2.90571         0.53197
| 57>    C       -9.60433         3.38137         0.53204
| 58>    C       -8.64479         2.41073         0.46882
| 59>    S       -9.34531         0.80633         0.40707
| 60>    C      -14.67664         1.01995         0.50892
| 61>    C      -15.61908         2.01570         0.53619
| 62>    S      -14.88560         3.60438         0.55513
| 63>    C      -12.11211         5.08448         0.51169
| 64>    C      -12.13441        -0.70707         0.36650
| 65>    C       -7.24444         2.64365         0.45350
| 66>    C      -12.90814         5.94090         1.21984
| 67>    C      -12.61600         7.29797         0.98033
| 68>    C      -11.61541         7.49060         0.07678
| 69>    S      -11.01244         5.97668        -0.50512
| 70>    C      -11.25847        -1.57262         0.96208
| 71>    C      -11.50299        -2.92275         0.64654
| 72>    C      -12.55571        -3.10155        -0.19747
| 73>    S      -13.27396        -1.58364        -0.61984
| 74>    S       -6.05479         1.37293         0.46419
| 75>    C       -4.70596         2.48342         0.43529
| 76>    C       -5.17931         3.79419         0.42420
| 77>    C       -6.60105         3.86447         0.42778
| 78>    C       -4.62827         5.10710         0.40110
| 79>    C       -5.55284         6.10891         0.34671
| 80>    S       -7.18964         5.49796         0.39185
| 81>    F       -3.31397         5.35680         0.47332
| 82>    C       -5.44059         7.58567         0.44614
| 83>    C      -11.03734         8.77272        -0.41635
| 84>    C       -9.51145         8.73385        -0.47692
| 85>    C      -13.08021        -4.37049        -0.77528
| 86>    C      -12.60911        -4.55740        -2.21935
| 87>    O       -4.48999         8.23838        -0.21538
| 88>    O       -6.23088         8.19908         1.11905
| 89>    C       -3.65777         7.64452        -1.20569
| 90>    C       -3.40642         8.68260        -2.28838
| 91>    C        7.19199        -4.28557        -0.04257
| 92>    C      -24.04460        -0.64127        -0.47032
| 93>    C      -22.64133        -0.71643        -0.38631
| 94>    C      -21.96998        -1.94162        -0.61249
| 95>    C      -22.63234        -3.12570        -0.92078
| 96>    C      -24.03851        -3.06229        -0.96201
| 97>    C      -24.70618        -1.83567        -0.73475
| 98>    C      -21.74376         0.33046        -0.07656
| 99>    C      -20.43072        -0.04269        -0.10393
|100>    S      -20.23892        -1.73958        -0.49309
|101>    C      -24.96438        -4.11873        -1.20817
|102>    C      -26.24900        -3.70966        -1.19360
|103>    S      -26.43386        -2.02106        -0.87300
|104>    C      -24.75030         0.61255        -0.30434
|105>    C      -21.89124        -4.34053        -1.19844
|106>    C      -19.32287         0.80939         0.14835
|107>    C      -25.90505         0.85895         0.38318
|108>    C      -26.29213         2.21366         0.35376
|109>    C      -25.45402         3.00526        -0.37040
|110>    S      -24.15578         2.07707        -1.04018
|111>    C      -20.76915        -4.80221        -0.57018
|112>    C      -20.26933        -5.99720        -1.12468
|113>    C      -20.99014        -6.44599        -2.18755
|114>    S      -22.32750        -5.39411        -2.51567
|115>    S      -17.67193         0.25846         0.13346
|116>    C      -17.02685         1.83912         0.49977
|117>    C      -18.07090         2.74972         0.64502
|118>    C      -19.34844         2.15874         0.43389
|119>    C      -18.22008         4.12987         0.96181
|120>    C      -19.50768         4.57985         0.94047
|121>    S      -20.64784         3.30081         0.59447
|122>    F      -17.19699         4.91904         1.31754
|123>    C      -20.11445         5.87728         1.33220
|124>    C      -25.52653         4.47388        -0.61115
|125>    C      -24.20693         5.17139        -0.28035
|126>    C      -20.78482        -7.67822        -2.99934
|127>    C      -21.85186        -8.73067        -2.69129
|128>    O      -19.55658         7.02237         0.95045
|129>    O      -21.12708         5.89246         1.98590
|130>    C      -18.49709         7.11440         0.00401
|131>    C      -18.70847         8.37977        -0.81251
|132>    H        3.23315         0.92684        -0.06598
|133>    H       -3.80359        -0.13966         0.52942
|134>    H       -0.00264         4.10075        -1.20996
|135>    H        1.68625         6.02889        -0.84804
|136>    H       -0.49280        -3.31388         1.74269
|137>    H       -2.11737        -5.29536         1.38033
|138>    H        4.09722         5.54682         1.94328
|139>    H        3.81192         6.59516         0.54467
|140>    H        5.47555         4.01848         0.55185
|141>    H        6.10864         5.65962         0.47769
|142>    H        5.16621         5.01787        -0.87142
|143>    H       -4.20495        -5.93700        -0.03534
|144>    H       -4.54442        -4.87585        -1.41177
|145>    H       -5.63065        -4.48374         1.41889
|146>    H       -6.54748        -5.08947         0.03495
|147>    H       -5.95520        -3.42506         0.04319
|148>    H        8.89740         0.19867        -2.22840
|149>    H       10.44579        -0.11745        -1.39922
|150>    H        9.90265         2.18568        -3.34164
|151>    H       10.85889         0.73520        -3.68929
|152>    H       11.42084         1.90793        -2.48662
|153>    H       -9.36839         4.42388         0.61639
|154>    H      -14.95252        -0.01877         0.51392
|155>    H      -13.65085         5.61282         1.92458
|156>    H      -13.12833         8.10604         1.47168
|157>    H      -10.48517        -1.25727         1.63875
|158>    H      -10.91862        -3.73596         1.03935
|159>    H      -11.36575         9.57656         0.24625
|160>    H      -11.42906         8.98534        -1.41729
|161>    H       -9.08695         8.53143         0.50326
|162>    H       -9.12372         9.68690        -0.82700
|163>    H       -9.18036         7.95345        -1.15923
|164>    H      -14.17245        -4.36056        -0.75377
|165>    H      -12.73137        -5.20604        -0.16446
|166>    H      -12.95972        -3.73506        -2.83882
|167>    H      -12.99685        -5.48848        -2.62490
|168>    H      -11.52265        -4.58352        -2.26192
|169>    H       -4.14142         6.75795        -1.63093
|170>    H       -2.71328         7.34678        -0.73851
|171>    H       -4.34180         8.96619        -2.76355
|172>    H       -2.73422         8.27391        -3.03728
|173>    H       -2.95789         9.56925        -1.85023
|174>    H        6.92554        -5.01663         0.71875
|175>    H        8.20448        -3.93396         0.13850
|176>    H        7.16802        -4.78927        -1.01010
|177>    H      -22.05785         1.32392         0.17794
|178>    H      -24.67374        -5.13876        -1.37773
|179>    H      -27.13004        -4.30189        -1.34584
|180>    H      -26.43801         0.10239         0.93049
|181>    H      -27.16296         2.58898         0.86147
|182>    H      -20.33305        -4.32150         0.28672
|183>    H      -19.39891        -6.50434        -0.74736
|184>    H      -26.33202         4.88635         0.00013
|185>    H      -25.77365         4.65927        -1.66168
|186>    H      -23.92761         5.00286         0.75684
|187>    H      -24.29560         6.24247        -0.44260
|188>    H      -23.40954         4.78892        -0.91429
|189>    H      -19.79430        -8.08183        -2.77892
|190>    H      -20.82481        -7.42986        -4.06298
|191>    H      -21.82523        -8.99923        -1.63753
|192>    H      -21.68141        -9.62622        -3.28346
|193>    H      -22.84086        -8.34244        -2.92438
|194>    H      -18.48887         6.23412        -0.64861
|195>    H      -17.54574         7.16639         0.54356
|196>    H      -19.63951         8.31857        -1.36978
|197>    H      -17.88310         8.50740        -1.50686
|198>    H      -18.75655         9.23988        -0.15116
|199> *
|200> 
|201>                          ****END OF INPUT****
================================================================================

                       ****************************
                       * Single Point Calculation *
                       ****************************

---------------------------------
CARTESIAN COORDINATES (ANGSTROEM)
---------------------------------
  C      0.456840    1.627230    0.170600
  C      1.118790    0.383210    0.187790
  C      0.382700   -0.822880    0.286640
  C     -1.005800   -0.869830    0.346410
  C     -1.673000    0.375360    0.315100
  C     -0.931260    1.579840    0.220770
  C      2.506180    0.148170    0.060450
  C      2.846170   -1.173450    0.087290
  S      1.445810   -2.208760    0.259830
  C     -3.057930    0.626480    0.419770
  C     -3.389320    1.957050    0.388500
  S     -1.971310    2.972380    0.233510
  C      1.176750    2.882560    0.119990
  C     -1.710690   -2.132050    0.416160
  C      4.169820   -1.688270    0.016400
  C      0.851360    4.022850   -0.561480
  C      1.777480    5.067300   -0.374510
  C      2.801000    4.744810    0.463840
  S      2.639540    3.121720    1.039320
  C     -1.350250   -3.262260    1.096480
  C     -2.242800   -4.335690    0.910950
  C     -3.277510   -4.044410    0.076340
  S     -3.173870   -2.410900   -0.489840
  S      4.531470   -3.396070    0.049500
  C      6.243200   -3.145150   -0.025710
  C      6.516990   -1.797800   -0.081690
  C      5.347860   -0.980930   -0.056120
  C      7.690310   -0.988920   -0.145540
  C      7.449690    0.349410   -0.185030
  S      5.733980    0.713890   -0.099380
  F      8.920240   -1.528910   -0.133130
  C      8.341090    1.533820   -0.089900
  C      3.981920    5.562250    0.856750
  C      5.264210    5.029710    0.212090
  C     -4.423120   -4.907180   -0.325930
  C     -5.723880   -4.446910    0.335800
  O      9.468810    1.586330   -0.792730
  O      8.033880    2.456200    0.621850
  C      9.803540    0.662330   -1.821980
  C     10.545690    1.423450   -2.909580
  C    -12.115240    3.636140    0.521080
  C    -10.924210    2.884380    0.506060
  C    -10.962650    1.468670    0.467940
  C    -12.146950    0.738600    0.446250
  C    -13.344530    1.489190    0.492610
  C    -13.295670    2.905710    0.531970
  C     -9.604330    3.381370    0.532040
  C     -8.644790    2.410730    0.468820
  S     -9.345310    0.806330    0.407070
  C    -14.676640    1.019950    0.508920
  C    -15.619080    2.015700    0.536190
  S    -14.885600    3.604380    0.555130
  C    -12.112110    5.084480    0.511690
  C    -12.134410   -0.707070    0.366500
  C     -7.244440    2.643650    0.453500
  C    -12.908140    5.940900    1.219840
  C    -12.616000    7.297970    0.980330
  C    -11.615410    7.490600    0.076780
  S    -11.012440    5.976680   -0.505120
  C    -11.258470   -1.572620    0.962080
  C    -11.502990   -2.922750    0.646540
  C    -12.555710   -3.101550   -0.197470
  S    -13.273960   -1.583640   -0.619840
  S     -6.054790    1.372930    0.464190
  C     -4.705960    2.483420    0.435290
  C     -5.179310    3.794190    0.424200
  C     -6.601050    3.864470    0.427780
  C     -4.628270    5.107100    0.401100
  C     -5.552840    6.108910    0.346710
  S     -7.189640    5.497960    0.391850
  F     -3.313970    5.356800    0.473320
  C     -5.440590    7.585670    0.446140
  C    -11.037340    8.772720   -0.416350
  C     -9.511450    8.733850   -0.476920
  C    -13.080210   -4.370490   -0.775280
  C    -12.609110   -4.557400   -2.219350
  O     -4.489990    8.238380   -0.215380
  O     -6.230880    8.199080    1.119050
  C     -3.657770    7.644520   -1.205690
  C     -3.406420    8.682600   -2.288380
  C      7.191990   -4.285570   -0.042570
  C    -24.044600   -0.641270   -0.470320
  C    -22.641330   -0.716430   -0.386310
  C    -21.969980   -1.941620   -0.612490
  C    -22.632340   -3.125700   -0.920780
  C    -24.038510   -3.062290   -0.962010
  C    -24.706180   -1.835670   -0.734750
  C    -21.743760    0.330460   -0.076560
  C    -20.430720   -0.042690   -0.103930
  S    -20.238920   -1.739580   -0.493090
  C    -24.964380   -4.118730   -1.208170
  C    -26.249000   -3.709660   -1.193600
  S    -26.433860   -2.021060   -0.873000
  C    -24.750300    0.612550   -0.304340
  C    -21.891240   -4.340530   -1.198440
  C    -19.322870    0.809390    0.148350
  C    -25.905050    0.858950    0.383180
  C    -26.292130    2.213660    0.353760
  C    -25.454020    3.005260   -0.370400
  S    -24.155780    2.077070   -1.040180
  C    -20.769150   -4.802210   -0.570180
  C    -20.269330   -5.997200   -1.124680
  C    -20.990140   -6.445990   -2.187550
  S    -22.327500   -5.394110   -2.515670
  S    -17.671930    0.258460    0.133460
  C    -17.026850    1.839120    0.499770
  C    -18.070900    2.749720    0.645020
  C    -19.348440    2.158740    0.433890
  C    -18.220080    4.129870    0.961810
  C    -19.507680    4.579850    0.940470
  S    -20.647840    3.300810    0.594470
  F    -17.196990    4.919040    1.317540
  C    -20.114450    5.877280    1.332200
  C    -25.526530    4.473880   -0.611150
  C    -24.206930    5.171390   -0.280350
  C    -20.784820   -7.678220   -2.999340
  C    -21.851860   -8.730670   -2.691290
  O    -19.556580    7.022370    0.950450
  O    -21.127080    5.892460    1.985900
  C    -18.497090    7.114400    0.004010
  C    -18.708470    8.379770   -0.812510
  H      3.233150    0.926840   -0.065980
  H     -3.803590   -0.139660    0.529420
  H     -0.002640    4.100750   -1.209960
  H      1.686250    6.028890   -0.848040
  H     -0.492800   -3.313880    1.742690
  H     -2.117370   -5.295360    1.380330
  H      4.097220    5.546820    1.943280
  H      3.811920    6.595160    0.544670
  H      5.475550    4.018480    0.551850
  H      6.108640    5.659620    0.477690
  H      5.166210    5.017870   -0.871420
  H     -4.204950   -5.937000   -0.035340
  H     -4.544420   -4.875850   -1.411770
  H     -5.630650   -4.483740    1.418890
  H     -6.547480   -5.089470    0.034950
  H     -5.955200   -3.425060    0.043190
  H      8.897400    0.198670   -2.228400
  H     10.445790   -0.117450   -1.399220
  H      9.902650    2.185680   -3.341640
  H     10.858890    0.735200   -3.689290
  H     11.420840    1.907930   -2.486620
  H     -9.368390    4.423880    0.616390
  H    -14.952520   -0.018770    0.513920
  H    -13.650850    5.612820    1.924580
  H    -13.128330    8.106040    1.471680
  H    -10.485170   -1.257270    1.638750
  H    -10.918620   -3.735960    1.039350
  H    -11.365750    9.576560    0.246250
  H    -11.429060    8.985340   -1.417290
  H     -9.086950    8.531430    0.503260
  H     -9.123720    9.686900   -0.827000
  H     -9.180360    7.953450   -1.159230
  H    -14.172450   -4.360560   -0.753770
  H    -12.731370   -5.206040   -0.164460
  H    -12.959720   -3.735060   -2.838820
  H    -12.996850   -5.488480   -2.624900
  H    -11.522650   -4.583520   -2.261920
  H     -4.141420    6.757950   -1.630930
  H     -2.713280    7.346780   -0.738510
  H     -4.341800    8.966190   -2.763550
  H     -2.734220    8.273910   -3.037280
  H     -2.957890    9.569250   -1.850230
  H      6.925540   -5.016630    0.718750
  H      8.204480   -3.933960    0.138500
  H      7.168020   -4.789270   -1.010100
  H    -22.057850    1.323920    0.177940
  H    -24.673740   -5.138760   -1.377730
  H    -27.130040   -4.301890   -1.345840
  H    -26.438010    0.102390    0.930490
  H    -27.162960    2.588980    0.861470
  H    -20.333050   -4.321500    0.286720
  H    -19.398910   -6.504340   -0.747360
  H    -26.332020    4.886350    0.000130
  H    -25.773650    4.659270   -1.661680
  H    -23.927610    5.002860    0.756840
  H    -24.295600    6.242470   -0.442600
  H    -23.409540    4.788920   -0.914290
  H    -19.794300   -8.081830   -2.778920
  H    -20.824810   -7.429860   -4.062980
  H    -21.825230   -8.999230   -1.637530
  H    -21.681410   -9.626220   -3.283460
  H    -22.840860   -8.342440   -2.924380
  H    -18.488870    6.234120   -0.648610
  H    -17.545740    7.166390    0.543560
  H    -19.639510    8.318570   -1.369780
  H    -17.883100    8.507400   -1.506860
  H    -18.756550    9.239880   -0.151160

----------------------------
CARTESIAN COORDINATES (A.U.)
----------------------------
  NO LB      ZA    FRAG     MASS         X           Y           Z
   0 C     6.0000    0    12.011    0.863302    3.075019    0.322387
   1 C     6.0000    0    12.011    2.114207    0.724162    0.354872
   2 C     6.0000    0    12.011    0.723198   -1.555018    0.541671
   3 C     6.0000    0    12.011   -1.900687   -1.643740    0.654620
   4 C     6.0000    0    12.011   -3.161512    0.709328    0.595453
   5 C     6.0000    0    12.011   -1.759826    2.985465    0.417195
   6 C     6.0000    0    12.011    4.735994    0.280001    0.114234
   7 C     6.0000    0    12.011    5.378482   -2.217499    0.164954
   8 S    16.0000    0    32.060    2.732185   -4.173951    0.491008
   9 C     6.0000    0    12.011   -5.778650    1.183876    0.793250
  10 C     6.0000    0    12.011   -6.404887    3.698289    0.734159
  11 S    16.0000    0    32.060   -3.725236    5.616984    0.441270
  12 C     6.0000    0    12.011    2.223735    5.447249    0.226748
  13 C     6.0000    0    12.011   -3.232736   -4.028991    0.786428
  14 C     6.0000    0    12.011    7.879818   -3.190368    0.030992
  15 C     6.0000    0    12.011    1.608837    7.602085   -1.061043
  16 C     6.0000    0    12.011    3.358950    9.575809   -0.707721
  17 C     6.0000    0    12.011    5.293123    8.966391    0.876531
  18 S    16.0000    0    32.060    4.988008    5.899196    1.964030
  19 C     6.0000    0    12.011   -2.551603   -6.164778    2.072047
  20 C     6.0000    0    12.011   -4.238278   -8.193267    1.721446
  21 C     6.0000    0    12.011   -6.193596   -7.642827    0.144262
  22 S    16.0000    0    32.060   -5.997745   -4.555941   -0.925663
  23 S    16.0000    0    32.060    8.563237   -6.417642    0.093541
  24 C     6.0000    0    12.011   11.797938   -5.943472   -0.048585
  25 C     6.0000    0    12.011   12.315326   -3.397350   -0.154372
  26 C     6.0000    0    12.011   10.105991   -1.853689   -0.106051
  27 C     6.0000    0    12.011   14.532580   -1.868788   -0.275031
  28 C     6.0000    0    12.011   14.077874    0.660289   -0.349656
  29 S    16.0000    0    32.060   10.835652    1.349057   -0.187801
  30 F     9.0000    0    18.998   16.856811   -2.889221   -0.251579
  31 C     6.0000    0    12.011   15.762376    2.898500   -0.169886
  32 C     6.0000    0    12.011    7.524738   10.511129    1.619023
  33 C     6.0000    0    12.011    9.947915    9.504774    0.400792
  34 C     6.0000    0    12.011   -8.358485   -9.273226   -0.615918
  35 C     6.0000    0    12.011  -10.816566   -8.403442    0.634570
  36 O     8.0000    0    15.999   17.893458    2.997729   -1.498043
  37 O     8.0000    0    15.999   15.181833    4.641545    1.175126
  38 C     6.0000    0    12.011   18.526006    1.251622   -3.443043
  39 C     6.0000    0    12.011   19.928466    2.689931   -5.498309
  40 C     6.0000    0    12.011  -22.894486    6.871309    0.984698
  41 C     6.0000    0    12.011  -20.643765    5.450688    0.956315
  42 C     6.0000    0    12.011  -20.716406    2.775384    0.884278
  43 C     6.0000    0    12.011  -22.954409    1.395752    0.843290
  44 C     6.0000    0    12.011  -25.217507    2.814161    0.930898
  45 C     6.0000    0    12.011  -25.125175    5.490996    1.005278
  46 C     6.0000    0    12.011  -18.149553    6.389863    1.005410
  47 C     6.0000    0    12.011  -16.336286    4.555619    0.885941
  48 S    16.0000    0    32.060  -17.660077    1.523743    0.769251
  49 C     6.0000    0    12.011  -27.734830    1.927426    0.961719
  50 C     6.0000    0    12.011  -29.515784    3.809121    1.013252
  51 S    16.0000    0    32.060  -28.129707    6.811291    1.049044
  52 C     6.0000    0    12.011  -22.888571    9.608275    0.966954
  53 C     6.0000    0    12.011  -22.930712   -1.336169    0.692585
  54 C     6.0000    0    12.011  -13.690008    4.995774    0.856991
  55 C     6.0000    0    12.011  -24.392849   11.226674    2.305164
  56 C     6.0000    0    12.011  -23.840785   13.791165    1.852555
  57 C     6.0000    0    12.011  -21.949944   14.155183    0.145093
  58 S    16.0000    0    32.060  -20.810496   11.294288   -0.954538
  59 C     6.0000    0    12.011  -21.275425   -2.971821    1.818068
  60 C     6.0000    0    12.011  -21.737501   -5.523197    1.221784
  61 C     6.0000    0    12.011  -23.726853   -5.861080   -0.373164
  62 S    16.0000    0    32.060  -25.084149   -2.992646   -1.171328
  63 S    16.0000    0    32.060  -11.441895    2.594462    0.877192
  64 C     6.0000    0    12.011   -8.892976    4.692984    0.822579
  65 C     6.0000    0    12.011   -9.787477    7.169980    0.801622
  66 C     6.0000    0    12.011  -12.474177    7.302790    0.808387
  67 C     6.0000    0    12.011   -8.746163    9.651020    0.757969
  68 C     6.0000    0    12.011  -10.493347   11.544167    0.655187
  69 S    16.0000    0    32.060  -13.586451   10.389639    0.740489
  70 F     9.0000    0    18.998   -6.262496   10.122885    0.894445
  71 C     6.0000    0    12.011  -10.281225   14.334839    0.843082
  72 C     6.0000    0    12.011  -20.857550   16.578038   -0.786787
  73 C     6.0000    0    12.011  -17.974036   16.504585   -0.901248
  74 C     6.0000    0    12.011  -24.718015   -8.259029   -1.465067
  75 C     6.0000    0    12.011  -23.827765   -8.612238   -4.193964
  76 O     8.0000    0    15.999   -8.484851   15.568282   -0.407009
  77 O     8.0000    0    15.999  -11.774657   15.494016    2.114698
  78 C     6.0000    0    12.011   -6.912184   14.446049   -2.278424
  79 C     6.0000    0    12.011   -6.437201   16.407736   -4.324411
  80 C     6.0000    0    12.011   13.590891   -8.098554   -0.080446
  81 C     6.0000    0    12.011  -45.437709   -1.211825   -0.888776
  82 C     6.0000    0    12.011  -42.785913   -1.353856   -0.730020
  83 C     6.0000    0    12.011  -41.517245   -3.669130   -1.157438
  84 C     6.0000    0    12.011  -42.768924   -5.906717   -1.740022
  85 C     6.0000    0    12.011  -45.426201   -5.786889   -1.817935
  86 C     6.0000    0    12.011  -46.687914   -3.468914   -1.388476
  87 C     6.0000    0    12.011  -41.089752    0.624479   -0.144677
  88 C     6.0000    0    12.011  -38.608466   -0.080672   -0.196399
  89 S    16.0000    0    32.060  -38.246016   -3.287330   -0.931805
  90 C     6.0000    0    12.011  -47.175841   -7.783272   -2.283110
  91 C     6.0000    0    12.011  -49.603421   -7.010241   -2.255577
  92 S    16.0000    0    32.060  -49.952756   -3.819250   -1.649731
  93 C     6.0000    0    12.011  -46.771289    1.157552   -0.575119
  94 C     6.0000    0    12.011  -41.368448   -8.202413   -2.264723
  95 C     6.0000    0    12.011  -36.514932    1.529525    0.280341
  96 C     6.0000    0    12.011  -48.953450    1.623180    0.724105
  97 C     6.0000    0    12.011  -49.684925    4.183211    0.668510
  98 C     6.0000    0    12.011  -48.101127    5.679118   -0.699955
  99 S    16.0000    0    32.060  -45.647809    3.925093   -1.965655
 100 C     6.0000    0    12.011  -39.248006   -9.074862   -1.077484
 101 C     6.0000    0    12.011  -38.303483  -11.333066   -2.125337
 102 C     6.0000    0    12.011  -39.665616  -12.181156   -4.133870
 103 S    16.0000    0    32.060  -42.192860  -10.193391   -4.753927
 104 S    16.0000    0    32.060  -33.395108    0.488419    0.252203
 105 C     6.0000    0    12.011  -32.176083    3.475433    0.944428
 106 C     6.0000    0    12.011  -34.149052    5.196218    1.218911
 107 C     6.0000    0    12.011  -36.563253    4.079427    0.819933
 108 C     6.0000    0    12.011  -34.430961    7.804323    1.817557
 109 C     6.0000    0    12.011  -36.864173    8.654662    1.777231
 110 S    16.0000    0    32.060  -39.018763    6.237627    1.123385
 111 F     9.0000    0    18.998  -32.497601    9.295638    2.489790
 112 C     6.0000    0    12.011  -38.010802   11.106450    2.517493
 113 C     6.0000    0    12.011  -48.238151    8.454408   -1.154906
 114 C     6.0000    0    12.011  -45.744468    9.772511   -0.529785
 115 C     6.0000    0    12.011  -39.277618  -14.509733   -5.667931
 116 C     6.0000    0    12.011  -41.294031  -16.498575   -5.085801
 117 O     8.0000    0    15.999  -36.956580   13.270356    1.796090
 118 O     8.0000    0    15.999  -39.924395   11.135136    3.752807
 119 C     6.0000    0    12.011  -34.954434   13.444268    0.007578
 120 C     6.0000    0    12.011  -35.353885   15.835470   -1.535421
 121 H     1.0000    0     1.008    6.109768    1.751474   -0.124684
 122 H     1.0000    0     1.008   -7.187743   -0.263919    1.000459
 123 H     1.0000    0     1.008   -0.004989    7.749294   -2.286493
 124 H     1.0000    0     1.008    3.186551   11.392951   -1.602563
 125 H     1.0000    0     1.008   -0.931257   -6.262326    3.293207
 126 H     1.0000    0     1.008   -4.001249  -10.006780    2.608446
 127 H     1.0000    0     1.008    7.742624   10.481971    3.672267
 128 H     1.0000    0     1.008    7.203485   12.463046    1.029277
 129 H     1.0000    0     1.008   10.347290    7.593827    1.042845
 130 H     1.0000    0     1.008   11.543657   10.695132    0.902703
 131 H     1.0000    0     1.008    9.762722    9.482400   -1.646745
 132 H     1.0000    0     1.008   -7.946204  -11.219304   -0.066783
 133 H     1.0000    0     1.008   -8.587709   -9.214021   -2.667859
 134 H     1.0000    0     1.008  -10.640386   -8.473041    2.681314
 135 H     1.0000    0     1.008  -12.372944   -9.617704    0.066046
 136 H     1.0000    0     1.008  -11.253697   -6.472425    0.081617
 137 H     1.0000    0     1.008   16.813649    0.375432   -4.211066
 138 H     1.0000    0     1.008   19.739682   -0.221948   -2.644143
 139 H     1.0000    0     1.008   18.713297    4.130337   -6.314784
 140 H     1.0000    0     1.008   20.520328    1.389327   -6.971748
 141 H     1.0000    0     1.008   21.582260    3.605465   -4.699031
 142 H     1.0000    0     1.008  -17.703691    8.359922    1.164808
 143 H     1.0000    0     1.008  -28.256168   -0.035470    0.971168
 144 H     1.0000    0     1.008  -25.796368   10.606693    3.636929
 145 H     1.0000    0     1.008  -24.808948   15.318196    2.781072
 146 H     1.0000    0     1.008  -19.814100   -2.375896    3.096789
 147 H     1.0000    0     1.008  -20.633202   -7.059941    1.964087
 148 H     1.0000    0     1.008  -21.478155   18.097076    0.465345
 149 H     1.0000    0     1.008  -21.597793   16.979832   -2.678290
 150 H     1.0000    0     1.008  -17.171847   16.122066    0.951024
 151 H     1.0000    0     1.008  -17.241332   18.305588   -1.562804
 152 H     1.0000    0     1.008  -17.348366   15.029842   -2.190627
 153 H     1.0000    0     1.008  -26.782049   -8.240264   -1.424419
 154 H     1.0000    0     1.008  -24.058803   -9.837990   -0.310784
 155 H     1.0000    0     1.008  -24.490322   -7.058240   -5.364592
 156 H     1.0000    0     1.008  -24.560487  -10.371724   -4.960342
 157 H     1.0000    0     1.008  -21.774653   -8.661598   -4.274409
 158 H     1.0000    0     1.008   -7.826150   12.770675   -3.082011
 159 H     1.0000    0     1.008   -5.127356   13.883402   -1.395582
 160 H     1.0000    0     1.008   -8.204813   16.943644   -5.222353
 161 H     1.0000    0     1.008   -5.166927   15.635424   -5.739627
 162 H     1.0000    0     1.008   -5.589602   18.083262   -3.496428
 163 H     1.0000    0     1.008   13.087374   -9.480057    1.358241
 164 H     1.0000    0     1.008   15.504220   -7.434107    0.261727
 165 H     1.0000    0     1.008   13.545595   -9.050409   -1.908812
 166 H     1.0000    0     1.008  -41.683296    2.501846    0.336258
 167 H     1.0000    0     1.008  -46.626611   -9.710849   -2.603532
 168 H     1.0000    0     1.008  -51.268346   -8.129394   -2.543269
 169 H     1.0000    0     1.008  -49.960598    0.193489    1.758371
 170 H     1.0000    0     1.008  -51.330555    4.892463    1.627942
 171 H     1.0000    0     1.008  -38.423896   -8.166451    0.541822
 172 H     1.0000    0     1.008  -36.658627  -12.291421   -1.412306
 173 H     1.0000    0     1.008  -49.760306    9.233863    0.000246
 174 H     1.0000    0     1.008  -48.705140    8.804744   -3.140120
 175 H     1.0000    0     1.008  -45.216630    9.454035    1.430220
 176 H     1.0000    0     1.008  -45.912030   11.796559   -0.836393
 177 H     1.0000    0     1.008  -44.237620    9.049747   -1.727758
 178 H     1.0000    0     1.008  -37.405806  -15.272445   -5.251398
 179 H     1.0000    0     1.008  -39.353188  -14.040401   -7.677919
 180 H     1.0000    0     1.008  -41.243708  -17.006080   -3.094483
 181 H     1.0000    0     1.008  -40.971927  -18.190920   -6.204840
 182 H     1.0000    0     1.008  -43.162970  -15.764927   -5.526277
 183 H     1.0000    0     1.008  -34.938901   11.780779   -1.225695
 184 H     1.0000    0     1.008  -33.156643   13.542514    1.027180
 185 H     1.0000    0     1.008  -37.113295   15.719819   -2.588509
 186 H     1.0000    0     1.008  -33.794161   16.076656   -2.847553
 187 H     1.0000    0     1.008  -35.444743   17.460843   -0.285651

--------------------------------
INTERNAL COORDINATES (ANGSTROEM)
--------------------------------
 C      0   0   0     0.000000000000     0.00000000     0.00000000
 C      1   0   0     1.409276076218     0.00000000     0.00000000
 C      2   1   0     1.416422570669   120.55770722     0.00000000
 C      3   2   1     1.390578658473   123.41193199     1.23989111
 C      4   3   2     1.413023103916   116.15290493   359.45678131
 C      1   2   3     1.389814538347   116.01394205   358.40862537
 C      2   1   3     1.412908450431   127.37084165   177.18530131
 C      7   2   1     1.364915019369   113.82199784   181.32071280
 S      3   2   1     1.746878651366   110.98970206   179.07040288
 C      5   4   3     1.411399365240   128.20452038   183.05174064
 C     10   5   4     1.371573428548   114.07892938   178.36085654
 S      6   1   2     1.738112183290   124.79115678   179.13776725
 C      1   2   3     1.447993504509   122.15295521   177.69153143
 C      4   3   2     1.447388787783   121.18445482   178.56855490
 C      8   7   2     1.422010670494   125.55155446   181.83437303
 C     13   1   2     1.367677336619   128.45777526   142.05527039
 C     16  13   1     1.408379152714   113.30998349   179.41041770
 C     17  16  13     1.361772269140   113.59993105   358.97148456
 S     18  17  16     1.729643810182   110.90970015     0.22994785
 C     14   4   3     1.367525846227   128.04964753    37.70133097
 C     20  14   4     1.408303535570   113.41319697   182.21580869
 C     21  20  14     1.360897745828   113.54830582     0.90599530
 S     22  21  20     1.731951489534   110.90718987   359.42009594
 S     15   8   7     1.745986017269   123.09155276   180.26896575
 C     24  15   8     1.731657293866    93.56568123   181.55912903
 C     25  24  15     1.376025707245   109.89702841   359.66472528
 C     15   8   7     1.375996826886   127.83842155     1.82519970
 C     26  25  24     1.426549508184   136.11021834   179.47255643
 C     28  26  25     1.360361949409   114.43454226   180.03471205
 S     27  15   8     1.738785471069   133.82720151   359.65088228
 F     28  26  25     1.343306001289   121.64957024   358.49181622
 C     29  28  26     1.485419376809   132.56601159   171.41099035
 C     18  17  16     1.489012581579   128.94201754   177.47637245
 C     33  18  17     1.530834090063   111.23695987   251.91594176
 C     22  21  20     1.489501761630   128.78700897   181.67984781
 C     35  22  21     1.530265219954   111.27010821   107.48254251
 O     32  29  28     1.329841985877   120.43287057    46.33561527
 O     32  29  28     1.204886264757   119.68470934   225.79771296
 C     37  32  29     1.423086692862   123.78439651    10.53262533
 C     39  37  32     1.520843199314   107.88185979   144.10665562
 C     11  10   5     8.886990521594   114.84617159   176.30090748
 C     41  11  10     1.408517361945    21.36706389   358.67208411
 C     42  41  11     1.416744709572   120.70902517   182.21483575
 C     43  42  41     1.391416239304   123.21797421   359.85298523
 C     44  43  42     1.414118967449   116.21901556   358.72337682
 C     41  11  10     1.388186429087   137.36050397   357.89943004
 C     42  41  11     1.410587549534   127.08312676     2.56940256
 C     47  42  41     1.366329312282   113.95192131   181.80823432
 S     43  42  41     1.748767596938   110.75135644   178.24557202
 C     45  44  43     1.412433802272   128.51753456   181.27221190
 C     50  45  44     1.371296783705   114.02715274   180.92192075
 S     46  41  11     1.736822834776   124.53169962   180.15561410
 C     41  11  10     1.448373820738   100.76113527   178.70480949
 C     44  43  42     1.447922326301   121.15576655   178.10847066
 C     48  47  42     1.419671282833   125.21630248   178.78020315
 C     53  41  11     1.366965763946   128.45355484   220.87085193
 C     56  53  41     1.408669515749   113.24808039   179.07667125
 C     57  56  53     1.361869768921   113.66828666     0.99823586
 S     58  57  56     1.730356667656   110.81712191     0.18269180
 C     54  44  43     1.367904683266   127.83114945    37.37340477
 C     60  54  44     1.407908569084   113.45284303   181.82475987
 C     61  60  54     1.361081084469   113.53323699     0.50380401
 S     62  61  60     1.731568724452   110.91135371   359.89641229
 S     55  48  47     1.740721320890   123.66171964   176.35559112
 C     11  10   5     1.418730267035   125.68991124   178.02101854
 C     65  11  10     1.393664666805   131.59709392   179.32043270
 C     55  48  47     1.380222330967   127.23780662   356.31893842
 C     66  65  11     1.424047527191   137.37668507   357.94420855
 C     68  66  65     1.364335454754   114.54437864   177.57599248
 S     67  55  48     1.736668861096   132.40430392   359.40452902
 F     68  66  65     1.339757555829   123.40528389   355.34595805
 C     69  68  66     1.484353894797   132.57932864   172.68442704
 C     58  57  56     1.490360297445   128.76923021   180.25597309
 C     73  58  57     1.527586296711   112.25142035   136.04645689
 C     62  61  60     1.489689017782   128.66312435   178.08570810
 C     75  62  61     1.530427627495   111.20080530   259.14135227
 O     72  69  68     1.329390617727   120.61152282    44.91715365
 O     72  69  68     1.205669100666   119.60290162   223.90264938
 C     77  72  69     1.423367037731   124.01786212    10.07224359
 C     79  77  72     1.520856516901   107.88767288   143.70032390
 C     25  24  15     1.483591756549   121.41762936   180.48686364
 C     51  50  45     8.891678088606   115.59449857   172.02112085
 C     82  51  50     1.407790253767    20.71802187   356.84963707
 C     83  82  51     1.415259252222   120.63211603   183.44373468
 C     84  83  82     1.391333511456   123.11558130   359.78329447
 C     85  84  83     1.408202687790   116.32997189   358.19185281
 C     82  51  50     1.390756154507   136.79493847   355.29896660
 C     83  82  51     1.413349086213   127.34114698     3.97770194
 C     88  83  82     1.365307321082   113.82326715   181.56754552
 S     84  83  82     1.746895888483   111.03989670   178.28061543
 C     86  85  84     1.426147073797   128.31403883   182.10647904
 C     91  86  85     1.348257799607   113.07588031   180.80544557
 S     92  91  86     1.728677974523   113.59481398   359.68232108
 C     82  51  50     1.448318488041   100.95573104   176.38147908
 C     85  84  83     1.449874551297   120.80851858   177.37497104
 C     89  88  83     1.420217288763   125.63769864   179.08579225
 C     94  82  51     1.366325097808   128.72547418   221.78694341
 C     97  94  82     1.409232289901   113.26577662   178.78706739
 C     98  97  94     1.361420815802   113.63861455     1.02674797
 S     99  98  97     1.730771221768   110.84160390     0.10855560
 C     95  85  84     1.366361964525   127.93919679    39.83155138
 C    101  95  85     1.409003684346   113.38648239   182.35396975
 C    102 101  95     1.360394118298   113.53466513     0.88580967
 S    103 102 101     1.732814484704   110.89260764   359.38900634
 S     96  89  88     1.740502358688   123.26329383   178.51403293
 C     51  50  45     1.419268574196   126.21665938   177.12523153
 C    106  51  50     1.392957402436   131.25711572   173.20995354
 C     96  89  88     1.379468136276   127.52989632   358.38543214
 C    107 106  51     1.423876609471   137.33837278   354.76154410
 C    109 107 106     1.364130182937   114.52862991   178.15797074
 S    108  96  89     1.737397531166   132.53091598     0.03132976
 F    109 107 106     1.340166508274   123.35668311   355.03114354
 C    110 109 107     1.484906337349   132.05103959   172.89908492
 C     99  98  97     1.489987572767   128.98376587   180.88149076
 C    114  99  98     1.528820787437   111.88414293   128.30172213
 C    103 102 101     1.489815451457   128.72322737   181.57373738
 C    116 103 102     1.530071948178   111.29092770   106.95481142
 O    113 110 109     1.329730464229   120.34806894    45.90995568
 O    113 110 109     1.205393561995   119.82473394   225.00184813
 C    118 113 110     1.423635225260   123.96944959     9.77043457
 C    120 118 113     1.520706300276   107.89661553   144.27248017
 H      7   2   1     1.072752019201   123.73153867     0.15283344
 H     10   5   4     1.074710406435   124.16243098   359.21664992
 H     16  13   1     1.075132884996   123.36198047   356.85331794
 H     17  16  13     1.075736446301   123.27795326   178.98305716
 H     20  14   4     1.074929063241   123.29862217     4.67154162
 H     21  20  14     1.075647143909   123.27382492   180.67226192
 H     33  18  17     1.092739500430   109.77358091   131.20397385
 H     33  18  17     1.092335568633   108.68098668    12.93481109
 H     34  33  18     1.087514398112   110.77446627   297.49846487
 H     34  33  18     1.086458463541   110.26735291   177.79868121
 H     34  33  18     1.087997291219   110.34769146    57.76499154
 H     35  22  21     1.092048501395   108.70567931   346.47283569
 H     35  22  21     1.093043349781   109.69668624   228.25586259
 H     36  35  22     1.087718819319   110.33735788   300.33477320
 H     36  35  22     1.087065332029   110.27600346   180.24744555
 H     36  35  22     1.087799143684   110.30269551    60.24223214
 H     39  37  32     1.096014375636   110.38986427    23.29272668
 H     39  37  32     1.095110920638   108.72779051   263.67973048
 H     40  39  37     1.086816846621   110.27717926   297.58866059
 H     40  39  37     1.086153758268   109.69173812   177.22602285
 H     40  39  37     1.086049517518   109.75324071    57.17344478
 H     47  42  41     1.072198538611   123.36177380     3.14412276
 H     50  45  44     1.074743696330   124.27980987     1.74616949
 H     56  53  41     1.075133990766   123.41312408     1.85111196
 H     57  56  53     1.075585410974   123.18259766   181.55326255
 H     60  54  44     1.074858502967   123.30904056     4.32416553
 H     61  60  54     1.075685129162   123.28303816   180.88448712
 H     73  58  57     1.092268572147   108.40707245    14.25229651
 H     73  58  57     1.095688234125   109.30134385   257.13090063
 H     74  73  58     1.087164632795   111.04005207   300.85240001
 H     74  73  58     1.086827889686   110.29271221   180.76166871
 H     74  73  58     1.088205717776   110.30542758    60.84496139
 H     75  62  61     1.092496911941   109.67138138   138.36809327
 H     75  62  61     1.092215281206   108.80045952    19.98496924
 H     76  75  62     1.087618282579   110.23396638   299.79705505
 H     76  75  62     1.087070870045   110.29322131   179.79297669
 H     76  75  62     1.087607369826   110.32611723    59.65400140
 H     79  77  72     1.095788640660   110.45658833    22.92197116
 H     79  77  72     1.094973798819   108.71921514   263.31160602
 H     80  79  77     1.086805208582   110.31116087   297.67439962
 H     80  79  77     1.086154485375   109.65168803   177.33571022
 H     80  79  77     1.085957092108   109.77480359    57.30136367
 H     81  25  24     1.088601152167   110.59379465   313.80605211
 H     81  25  24     1.086992151352   110.19085521   192.98669416
 H     81  25  24     1.091055705177   110.54253793    73.04710496
 H     88  83  82     1.072560277887   123.51244391     2.79881357
 H     91  86  85     1.074096552504   123.71451964     1.42860503
 H     92  91  86     1.072448074314   127.85494718   180.23535983
 H     97  94  82     1.075164002048   123.24300810     1.55042229
 H     98  97  94     1.075629785475   123.22669094   181.47793779
 H    101  95  85     1.074961824485   123.27049419     4.59747111
 H    102 101  95     1.075728747594   123.28641297   180.62587509
 H    114  99  98     1.092066334707   108.52580768     6.65542608
 H    114  99  98     1.095011884593   109.44328233   249.19025319
 H    115 114  99     1.087283366653   110.94243487   301.48615368
 H    115 114  99     1.086922167315   110.29638301   181.32709129
 H    115 114  99     1.088114900459   110.24907514    61.38187150
 H    116 103 102     1.092069539407   108.70548678   345.98582677
 H    116 103 102     1.092983046209   109.71114575   227.75758178
 H    117 116 103     1.087770089725   110.35188677   300.74263706
 H    117 116 103     1.087073278993   110.34292211   180.60482743
 H    117 116 103     1.087738241030   110.20809207    60.60524848
 H    120 118 113     1.095843652717   110.46120397    23.42849166
 H    120 118 113     1.094935607741   108.78969380   263.86053268
 H    121 120 118     1.086798405639   110.33710614   297.14531928
 H    121 120 118     1.086115544636   109.59743202   176.79105889
 H    121 120 118     1.086040846838   109.76581272    56.78923487

---------------------------
INTERNAL COORDINATES (A.U.)
---------------------------
 C      0   0   0     0.000000000000     0.00000000     0.00000000
 C      1   0   0     2.663145831139     0.00000000     0.00000000
 C      2   1   0     2.676650748469   120.55770722     0.00000000
 C      3   2   1     2.627812832189   123.41193199     1.23989111
 C      4   3   2     2.670226687304   116.15290493   359.45678131
 C      1   2   3     2.626368854418   116.01394205   358.40862537
 C      2   1   3     2.670010023618   127.37084165   177.18530131
 C      7   2   1     2.579315582684   113.82199784   181.32071280
 S      3   2   1     3.301122240276   110.98970206   179.07040288
 C      5   4   3     2.667158265894   128.20452038   183.05174064
 C     10   5   4     2.591898152520   114.07892938   178.36085654
 S      6   1   2     3.284556016449   124.79115678   179.13776725
 C      1   2   3     2.736311167219   122.15295521   177.69153143
 C      4   3   2     2.735168418218   121.18445482   178.56855490
 C      8   7   2     2.687210726748   125.55155446   181.83437303
 C     13   1   2     2.584535605780   128.45777526   142.05527039
 C     16  13   1     2.661450891354   113.30998349   179.41041770
 C     17  16  13     2.573376645444   113.59993105   358.97148456
 S     18  17  16     3.268553110476   110.90970015     0.22994785
 C     14   4   3     2.584249330429   128.04964753    37.70133097
 C     20  14   4     2.661307995661   113.41319697   182.21580869
 C     21  20  14     2.571724035886   113.54830582     0.90599530
 S     22  21  20     3.272913992457   110.90718987   359.42009594
 S     15   8   7     3.299435406295   123.09155276   180.26896575
 C     24  15   8     3.272358043214    93.56568123   181.55912903
 C     25  24  15     2.600311739929   109.89702841   359.66472528
 C     15   8   7     2.600257163959   127.83842155     1.82519970
 C     26  25  24     2.695787886948   136.11021834   179.47255643
 C     28  26  25     2.570711527390   114.43454226   180.03471205
 S     27  15   8     3.285828345961   133.82720151   359.65088228
 F     28  26  25     2.538480456490   121.64957024   358.49181622
 C     29  28  26     2.807035816189   132.56601159   171.41099035
 C     18  17  16     2.813825989147   128.94201754   177.47637245
 C     33  18  17     2.892857186690   111.23695987   251.91594176
 C     22  21  20     2.814750405475   128.78700897   181.67984781
 C     35  22  21     2.891782177977   111.27010821   107.48254251
 O     32  29  28     2.513037154697   120.43287057    46.33561527
 O     32  29  28     2.276905062914   119.68470934   225.79771296
 C     37  32  29     2.689244114336   123.78439651    10.53262533
 C     39  37  32     2.873977139340   107.88185979   144.10665562
 C     11  10   5    16.793978240566   114.84617159   176.30090748
 C     41  11  10     2.661712068949    21.36706389   358.67208411
 C     42  41  11     2.677259502773   120.70902517   182.21483575
 C     43  42  41     2.629395630576   123.21797421   359.85298523
 C     44  43  42     2.672297569263   116.21901556   358.72337682
 C     41  11  10     2.623292173800   137.36050397   357.89943004
 C     42  41  11     2.665624156538   127.08312676     2.56940256
 C     47  42  41     2.581988208961   113.95192131   181.80823432
 S     43  42  41     3.304691830088   110.75135644   178.24557202
 C     45  44  43     2.669113068587   128.51753456   181.27221190
 C     50  45  44     2.591375369530   114.02715274   180.92192075
 S     46  41  11     3.282119500868   124.53169962   180.15561410
 C     41  11  10     2.737029860736   100.76113527   178.70480949
 C     44  43  42     2.736176659898   121.15576655   178.10847066
 C     48  47  42     2.682789924747   125.21630248   178.78020315
 C     53  41  11     2.583190928304   128.45355484   220.87085193
 C     56  53  41     2.661999597969   113.24808039   179.07667125
 C     57  56  53     2.573560893327   113.66828666     0.99823586
 S     58  57  56     3.269900215874   110.81712191     0.18269180
 C     54  44  43     2.584965228680   127.83114945    37.37340477
 C     60  54  44     2.660561617170   113.45284303   181.82475987
 C     61  60  54     2.572070495707   113.53323699     0.50380401
 S     62  61  60     3.272190671277   110.91135371   359.89641229
 S     55  48  47     3.289486571959   123.66171964   176.35559112
 C     11  10   5     2.681011662600   125.68991124   178.02101854
 C     65  11  10     2.633644542784   131.59709392   179.32043270
 C     55  48  47     2.608242209450   127.23780662   356.31893842
 C     66  65  11     2.691059828080   137.37668507   357.94420855
 C     68  66  65     2.578220364285   114.54437864   177.57599248
 S     67  55  48     3.281828532780   132.40430392   359.40452902
 F     68  66  65     2.531774866368   123.40528389   355.34595805
 C     69  68  66     2.805022346986   132.57932864   172.68442704
 C     58  57  56     2.816372803040   128.76923021   180.25597309
 C     73  58  57     2.886719746715   112.25142035   136.04645689
 C     62  61  60     2.815104268318   128.66312435   178.08570810
 C     75  62  61     2.892089083752   111.20080530   259.14135227
 O     72  69  68     2.512184192508   120.61152282    44.91715365
 O     72  69  68     2.278384408389   119.60290162   223.90264938
 C     77  72  69     2.689773889363   124.01786212    10.07224359
 C     79  77  72     2.874002305932   107.88767288   143.70032390
 C     25  24  15     2.803582114421   121.41762936   180.48686364
 C     51  50  45    16.802836458454   115.59449857   172.02112085
 C     82  51  50     2.660338033622    20.71802187   356.84963707
 C     83  82  51     2.674452395198   120.63211603   183.44373468
 C     84  83  82     2.629239297598   123.11558130   359.78329447
 C     85  84  83     2.661117420976   116.32997189   358.19185281
 C     82  51  50     2.628148251084   136.79493847   355.29896660
 C     83  82  51     2.670842704571   127.34114698     3.97770194
 C     88  83  82     2.580056925483   113.82326715   181.56754552
 S     84  83  82     3.301154813707   111.03989670   178.28061543
 C     86  85  84     2.695027396170   128.31403883   182.10647904
 C     91  86  85     2.547837999180   113.07588031   180.80544557
 S     92  91  86     3.266727945590   113.59481398   359.68232108
 C     82  51  50     2.736925297091   100.95573104   176.38147908
 C     85  84  83     2.739865830494   120.80851858   177.37497104
 C     89  88  83     2.683821726421   125.63769864   179.08579225
 C     94  82  51     2.581980244760   128.72547418   221.78694341
 C     97  94  82     2.663063086992   113.26577662   178.78706739
 C     98  97  94     2.572712494886   113.63861455     1.02674797
 S     99  98  97     3.270683609614   110.84160390     0.10855560
 C     95  85  84     2.582049912758   127.93919679    39.83155138
 C    101  95  85     2.662631085100   113.38648239   182.35396975
 C    102 101  95     2.570772317781   113.53466513     0.88580967
 S    103 102 101     3.274544816982   110.89260764   359.38900634
 S     96  89  88     3.289072793365   123.26329383   178.51403293
 C     51  50  45     2.682028915711   126.21665938   177.12523153
 C    106  51  50     2.632308006822   131.25711572   173.20995354
 C     96  89  88     2.606816988032   127.52989632   358.38543214
 C    107 106  51     2.690736840397   137.33837278   354.76154410
 C    109 107 106     2.577832456767   114.52862991   178.15797074
 S    108  96  89     3.283205519654   132.53091598     0.03132976
 F    109 107 106     2.532547674492   123.35668311   355.03114354
 C    110 109 107     2.806066312114   132.05103959   172.89908492
 C     99  98  97     2.815668455476   128.98376587   180.88149076
 C    114  99  98     2.889052596102   111.88414293   128.30172213
 C    103 102 101     2.815343193338   128.72322737   181.57373738
 C    116 103 102     2.891416947251   111.29092770   106.95481142
 O    113 110 109     2.512826409326   120.34806894    45.90995568
 O    113 110 109     2.277863715763   119.82473394   225.00184813
 C    118 113 110     2.690280690344   123.96944959     9.77043457
 C    120 118 113     2.873718437651   107.89661553   144.27248017
 H      7   2   1     2.027207525901   123.73153867     0.15283344
 H     10   5   4     2.030908341438   124.16243098   359.21664992
 H     16  13   1     2.031706710215   123.36198047   356.85331794
 H     17  16  13     2.032847275786   123.27795326   178.98305716
 H     20  14   4     2.031321542918   123.29862217     4.67154162
 H     21  20  14     2.032678518723   123.27382492   180.67226192
 H     33  18  17     2.064978391531   109.77358091   131.20397385
 H     33  18  17     2.064215071057   108.68098668    12.93481109
 H     34  33  18     2.055104379127   110.77446627   297.49846487
 H     34  33  18     2.053108951973   110.26735291   177.79868121
 H     34  33  18     2.056016914852   110.34769146    57.76499154
 H     35  22  21     2.063672592596   108.70567931   346.47283569
 H     35  22  21     2.065552583590   109.69668624   228.25586259
 H     36  35  22     2.055490679224   110.33735788   300.33477320
 H     36  35  22     2.054255767216   110.27600346   180.24744555
 H     36  35  22     2.055642470277   110.30269551    60.24223214
 H     39  37  32     2.071167008792   110.38986427    23.29272668
 H     39  37  32     2.069459726272   108.72779051   263.67973048
 H     40  39  37     2.053786197846   110.27717926   297.58866059
 H     40  39  37     2.052533142456   109.69173812   177.22602285
 H     40  39  37     2.052336155985   109.75324071    57.17344478
 H     47  42  41     2.026161599166   123.36177380     3.14412276
 H     50  45  44     2.030971250221   124.27980987     1.74616949
 H     56  53  41     2.031708799817   123.41312408     1.85111196
 H     57  56  53     2.032561860382   123.18259766   181.55326255
 H     60  54  44     2.031188203324   123.30904056     4.32416553
 H     61  60  54     2.032750300448   123.28303816   180.88448712
 H     73  58  57     2.064088466047   108.40707245    14.25229651
 H     73  58  57     2.070550690656   109.30134385   257.13090063
 H     74  73  58     2.054443418467   111.04005207   300.85240001
 H     74  73  58     2.053807066215   110.29271221   180.76166871
 H     74  73  58     2.056410783964   110.30542758    60.84496139
 H     75  62  61     2.064519965723   109.67138138   138.36809327
 H     75  62  61     2.063987760763   108.80045952    19.98496924
 H     76  75  62     2.055300692320   110.23396638   299.79705505
 H     76  75  62     2.054266232548   110.29322131   179.79297669
 H     76  75  62     2.055280070206   110.32611723    59.65400140
 H     79  77  72     2.070740431510   110.45658833    22.92197116
 H     79  77  72     2.069200603587   108.71921514   263.31160602
 H     80  79  77     2.053764205138   110.31116087   297.67439962
 H     80  79  77     2.052534516489   109.65168803   177.33571022
 H     80  79  77     2.052161497274   109.77480359    57.30136367
 H     81  25  24     2.057158046667   110.59379465   313.80605211
 H     81  25  24     2.054117475776   110.19085521   192.98669416
 H     81  25  24     2.061796479637   110.54253793    73.04710496
 H     88  83  82     2.026845187328   123.51244391     2.79881357
 H     91  86  85     2.029748325621   123.71451964     1.42860503
 H     92  91  86     2.026633153305   127.85494718   180.23535983
 H     97  94  82     2.031765512922   123.24300810     1.55042229
 H     98  97  94     2.032645716035   123.22669094   181.47793779
 H    101  95  85     2.031383452697   123.27049419     4.59747111
 H    102 101  95     2.032832727339   123.28641297   180.62587509
 H    114  99  98     2.063706292671   108.52580768     6.65542608
 H    114  99  98     2.069272575270   109.44328233   249.19025319
 H    115 114  99     2.054667792942   110.94243487   301.48615368
 H    115 114  99     2.053985225113   110.29638301   181.32709129
 H    115 114  99     2.056239164106   110.24907514    61.38187150
 H    116 103 102     2.063712348676   108.70548678   345.98582677
 H    116 103 102     2.065438626354   109.71114575   227.75758178
 H    117 116 103     2.055587566251   110.35188677   300.74263706
 H    117 116 103     2.054270784800   110.34292211   180.60482743
 H    117 116 103     2.055527380941   110.20809207    60.60524848
 H    120 118 113     2.070844389231   110.46120397    23.42849166
 H    120 118 113     2.069128432910   108.78969380   263.86053268
 H    121 120 118     2.053751349440   110.33710614   297.14531928
 H    121 120 118     2.052460929157   109.59743202   176.79105889
 H    121 120 118     2.052319770775   109.76581272    56.78923487

---------------------
BASIS SET INFORMATION
---------------------
There are 5 groups of distinct atoms

 Group   1 Type C   : 7s4p1d contracted to 3s2p1d pattern {511/31/1}
 Group   2 Type S   : 10s7p1d contracted to 4s3p1d pattern {5311/511/1}
 Group   3 Type F   : 7s4p1d contracted to 3s2p1d pattern {511/31/1}
 Group   4 Type O   : 7s4p1d contracted to 3s2p1d pattern {511/31/1}
 Group   5 Type H   : 4s1p contracted to 2s1p pattern {31/1}

Atom   0C    basis set group =>   1
Atom   1C    basis set group =>   1
Atom   2C    basis set group =>   1
Atom   3C    basis set group =>   1
Atom   4C    basis set group =>   1
Atom   5C    basis set group =>   1
Atom   6C    basis set group =>   1
Atom   7C    basis set group =>   1
Atom   8S    basis set group =>   2
Atom   9C    basis set group =>   1
Atom  10C    basis set group =>   1
Atom  11S    basis set group =>   2
Atom  12C    basis set group =>   1
Atom  13C    basis set group =>   1
Atom  14C    basis set group =>   1
Atom  15C    basis set group =>   1
Atom  16C    basis set group =>   1
Atom  17C    basis set group =>   1
Atom  18S    basis set group =>   2
Atom  19C    basis set group =>   1
Atom  20C    basis set group =>   1
Atom  21C    basis set group =>   1
Atom  22S    basis set group =>   2
Atom  23S    basis set group =>   2
Atom  24C    basis set group =>   1
Atom  25C    basis set group =>   1
Atom  26C    basis set group =>   1
Atom  27C    basis set group =>   1
Atom  28C    basis set group =>   1
Atom  29S    basis set group =>   2
Atom  30F    basis set group =>   3
Atom  31C    basis set group =>   1
Atom  32C    basis set group =>   1
Atom  33C    basis set group =>   1
Atom  34C    basis set group =>   1
Atom  35C    basis set group =>   1
Atom  36O    basis set group =>   4
Atom  37O    basis set group =>   4
Atom  38C    basis set group =>   1
Atom  39C    basis set group =>   1
Atom  40C    basis set group =>   1
Atom  41C    basis set group =>   1
Atom  42C    basis set group =>   1
Atom  43C    basis set group =>   1
Atom  44C    basis set group =>   1
Atom  45C    basis set group =>   1
Atom  46C    basis set group =>   1
Atom  47C    basis set group =>   1
Atom  48S    basis set group =>   2
Atom  49C    basis set group =>   1
Atom  50C    basis set group =>   1
Atom  51S    basis set group =>   2
Atom  52C    basis set group =>   1
Atom  53C    basis set group =>   1
Atom  54C    basis set group =>   1
Atom  55C    basis set group =>   1
Atom  56C    basis set group =>   1
Atom  57C    basis set group =>   1
Atom  58S    basis set group =>   2
Atom  59C    basis set group =>   1
Atom  60C    basis set group =>   1
Atom  61C    basis set group =>   1
Atom  62S    basis set group =>   2
Atom  63S    basis set group =>   2
Atom  64C    basis set group =>   1
Atom  65C    basis set group =>   1
Atom  66C    basis set group =>   1
Atom  67C    basis set group =>   1
Atom  68C    basis set group =>   1
Atom  69S    basis set group =>   2
Atom  70F    basis set group =>   3
Atom  71C    basis set group =>   1
Atom  72C    basis set group =>   1
Atom  73C    basis set group =>   1
Atom  74C    basis set group =>   1
Atom  75C    basis set group =>   1
Atom  76O    basis set group =>   4
Atom  77O    basis set group =>   4
Atom  78C    basis set group =>   1
Atom  79C    basis set group =>   1
Atom  80C    basis set group =>   1
Atom  81C    basis set group =>   1
Atom  82C    basis set group =>   1
Atom  83C    basis set group =>   1
Atom  84C    basis set group =>   1
Atom  85C    basis set group =>   1
Atom  86C    basis set group =>   1
Atom  87C    basis set group =>   1
Atom  88C    basis set group =>   1
Atom  89S    basis set group =>   2
Atom  90C    basis set group =>   1
Atom  91C    basis set group =>   1
Atom  92S    basis set group =>   2
Atom  93C    basis set group =>   1
Atom  94C    basis set group =>   1
Atom  95C    basis set group =>   1
Atom  96C    basis set group =>   1
Atom  97C    basis set group =>   1
Atom  98C    basis set group =>   1
Atom  99S    basis set group =>   2
Atom 100C    basis set group =>   1
Atom 101C    basis set group =>   1
Atom 102C    basis set group =>   1
Atom 103S    basis set group =>   2
Atom 104S    basis set group =>   2
Atom 105C    basis set group =>   1
Atom 106C    basis set group =>   1
Atom 107C    basis set group =>   1
Atom 108C    basis set group =>   1
Atom 109C    basis set group =>   1
Atom 110S    basis set group =>   2
Atom 111F    basis set group =>   3
Atom 112C    basis set group =>   1
Atom 113C    basis set group =>   1
Atom 114C    basis set group =>   1
Atom 115C    basis set group =>   1
Atom 116C    basis set group =>   1
Atom 117O    basis set group =>   4
Atom 118O    basis set group =>   4
Atom 119C    basis set group =>   1
Atom 120C    basis set group =>   1
Atom 121H    basis set group =>   5
Atom 122H    basis set group =>   5
Atom 123H    basis set group =>   5
Atom 124H    basis set group =>   5
Atom 125H    basis set group =>   5
Atom 126H    basis set group =>   5
Atom 127H    basis set group =>   5
Atom 128H    basis set group =>   5
Atom 129H    basis set group =>   5
Atom 130H    basis set group =>   5
Atom 131H    basis set group =>   5
Atom 132H    basis set group =>   5
Atom 133H    basis set group =>   5
Atom 134H    basis set group =>   5
Atom 135H    basis set group =>   5
Atom 136H    basis set group =>   5
Atom 137H    basis set group =>   5
Atom 138H    basis set group =>   5
Atom 139H    basis set group =>   5
Atom 140H    basis set group =>   5
Atom 141H    basis set group =>   5
Atom 142H    basis set group =>   5
Atom 143H    basis set group =>   5
Atom 144H    basis set group =>   5
Atom 145H    basis set group =>   5
Atom 146H    basis set group =>   5
Atom 147H    basis set group =>   5
Atom 148H    basis set group =>   5
Atom 149H    basis set group =>   5
Atom 150H    basis set group =>   5
Atom 151H    basis set group =>   5
Atom 152H    basis set group =>   5
Atom 153H    basis set group =>   5
Atom 154H    basis set group =>   5
Atom 155H    basis set group =>   5
Atom 156H    basis set group =>   5
Atom 157H    basis set group =>   5
Atom 158H    basis set group =>   5
Atom 159H    basis set group =>   5
Atom 160H    basis set group =>   5
Atom 161H    basis set group =>   5
Atom 162H    basis set group =>   5
Atom 163H    basis set group =>   5
Atom 164H    basis set group =>   5
Atom 165H    basis set group =>   5
Atom 166H    basis set group =>   5
Atom 167H    basis set group =>   5
Atom 168H    basis set group =>   5
Atom 169H    basis set group =>   5
Atom 170H    basis set group =>   5
Atom 171H    basis set group =>   5
Atom 172H    basis set group =>   5
Atom 173H    basis set group =>   5
Atom 174H    basis set group =>   5
Atom 175H    basis set group =>   5
Atom 176H    basis set group =>   5
Atom 177H    basis set group =>   5
Atom 178H    basis set group =>   5
Atom 179H    basis set group =>   5
Atom 180H    basis set group =>   5
Atom 181H    basis set group =>   5
Atom 182H    basis set group =>   5
Atom 183H    basis set group =>   5
Atom 184H    basis set group =>   5
Atom 185H    basis set group =>   5
Atom 186H    basis set group =>   5
Atom 187H    basis set group =>   5
---------------------------------
AUXILIARY/J BASIS SET INFORMATION
---------------------------------
There are 5 groups of distinct atoms

 Group   1 Type C   : 12s5p4d2f1g contracted to 6s4p3d1f1g pattern {711111/2111/211/2/1}
 Group   2 Type S   : 14s5p5d2f1g contracted to 8s4p3d1f1g pattern {71111111/2111/311/2/1}
 Group   3 Type F   : 12s5p4d2f1g contracted to 6s4p3d1f1g pattern {711111/2111/211/2/1}
 Group   4 Type O   : 12s5p4d2f1g contracted to 6s4p3d1f1g pattern {711111/2111/211/2/1}
 Group   5 Type H   : 5s2p1d contracted to 3s1p1d pattern {311/2/1}

Atom   0C    basis set group =>   1
Atom   1C    basis set group =>   1
Atom   2C    basis set group =>   1
Atom   3C    basis set group =>   1
Atom   4C    basis set group =>   1
Atom   5C    basis set group =>   1
Atom   6C    basis set group =>   1
Atom   7C    basis set group =>   1
Atom   8S    basis set group =>   2
Atom   9C    basis set group =>   1
Atom  10C    basis set group =>   1
Atom  11S    basis set group =>   2
Atom  12C    basis set group =>   1
Atom  13C    basis set group =>   1
Atom  14C    basis set group =>   1
Atom  15C    basis set group =>   1
Atom  16C    basis set group =>   1
Atom  17C    basis set group =>   1
Atom  18S    basis set group =>   2
Atom  19C    basis set group =>   1
Atom  20C    basis set group =>   1
Atom  21C    basis set group =>   1
Atom  22S    basis set group =>   2
Atom  23S    basis set group =>   2
Atom  24C    basis set group =>   1
Atom  25C    basis set group =>   1
Atom  26C    basis set group =>   1
Atom  27C    basis set group =>   1
Atom  28C    basis set group =>   1
Atom  29S    basis set group =>   2
Atom  30F    basis set group =>   3
Atom  31C    basis set group =>   1
Atom  32C    basis set group =>   1
Atom  33C    basis set group =>   1
Atom  34C    basis set group =>   1
Atom  35C    basis set group =>   1
Atom  36O    basis set group =>   4
Atom  37O    basis set group =>   4
Atom  38C    basis set group =>   1
Atom  39C    basis set group =>   1
Atom  40C    basis set group =>   1
Atom  41C    basis set group =>   1
Atom  42C    basis set group =>   1
Atom  43C    basis set group =>   1
Atom  44C    basis set group =>   1
Atom  45C    basis set group =>   1
Atom  46C    basis set group =>   1
Atom  47C    basis set group =>   1
Atom  48S    basis set group =>   2
Atom  49C    basis set group =>   1
Atom  50C    basis set group =>   1
Atom  51S    basis set group =>   2
Atom  52C    basis set group =>   1
Atom  53C    basis set group =>   1
Atom  54C    basis set group =>   1
Atom  55C    basis set group =>   1
Atom  56C    basis set group =>   1
Atom  57C    basis set group =>   1
Atom  58S    basis set group =>   2
Atom  59C    basis set group =>   1
Atom  60C    basis set group =>   1
Atom  61C    basis set group =>   1
Atom  62S    basis set group =>   2
Atom  63S    basis set group =>   2
Atom  64C    basis set group =>   1
Atom  65C    basis set group =>   1
Atom  66C    basis set group =>   1
Atom  67C    basis set group =>   1
Atom  68C    basis set group =>   1
Atom  69S    basis set group =>   2
Atom  70F    basis set group =>   3
Atom  71C    basis set group =>   1
Atom  72C    basis set group =>   1
Atom  73C    basis set group =>   1
Atom  74C    basis set group =>   1
Atom  75C    basis set group =>   1
Atom  76O    basis set group =>   4
Atom  77O    basis set group =>   4
Atom  78C    basis set group =>   1
Atom  79C    basis set group =>   1
Atom  80C    basis set group =>   1
Atom  81C    basis set group =>   1
Atom  82C    basis set group =>   1
Atom  83C    basis set group =>   1
Atom  84C    basis set group =>   1
Atom  85C    basis set group =>   1
Atom  86C    basis set group =>   1
Atom  87C    basis set group =>   1
Atom  88C    basis set group =>   1
Atom  89S    basis set group =>   2
Atom  90C    basis set group =>   1
Atom  91C    basis set group =>   1
Atom  92S    basis set group =>   2
Atom  93C    basis set group =>   1
Atom  94C    basis set group =>   1
Atom  95C    basis set group =>   1
Atom  96C    basis set group =>   1
Atom  97C    basis set group =>   1
Atom  98C    basis set group =>   1
Atom  99S    basis set group =>   2
Atom 100C    basis set group =>   1
Atom 101C    basis set group =>   1
Atom 102C    basis set group =>   1
Atom 103S    basis set group =>   2
Atom 104S    basis set group =>   2
Atom 105C    basis set group =>   1
Atom 106C    basis set group =>   1
Atom 107C    basis set group =>   1
Atom 108C    basis set group =>   1
Atom 109C    basis set group =>   1
Atom 110S    basis set group =>   2
Atom 111F    basis set group =>   3
Atom 112C    basis set group =>   1
Atom 113C    basis set group =>   1
Atom 114C    basis set group =>   1
Atom 115C    basis set group =>   1
Atom 116C    basis set group =>   1
Atom 117O    basis set group =>   4
Atom 118O    basis set group =>   4
Atom 119C    basis set group =>   1
Atom 120C    basis set group =>   1
Atom 121H    basis set group =>   5
Atom 122H    basis set group =>   5
Atom 123H    basis set group =>   5
Atom 124H    basis set group =>   5
Atom 125H    basis set group =>   5
Atom 126H    basis set group =>   5
Atom 127H    basis set group =>   5
Atom 128H    basis set group =>   5
Atom 129H    basis set group =>   5
Atom 130H    basis set group =>   5
Atom 131H    basis set group =>   5
Atom 132H    basis set group =>   5
Atom 133H    basis set group =>   5
Atom 134H    basis set group =>   5
Atom 135H    basis set group =>   5
Atom 136H    basis set group =>   5
Atom 137H    basis set group =>   5
Atom 138H    basis set group =>   5
Atom 139H    basis set group =>   5
Atom 140H    basis set group =>   5
Atom 141H    basis set group =>   5
Atom 142H    basis set group =>   5
Atom 143H    basis set group =>   5
Atom 144H    basis set group =>   5
Atom 145H    basis set group =>   5
Atom 146H    basis set group =>   5
Atom 147H    basis set group =>   5
Atom 148H    basis set group =>   5
Atom 149H    basis set group =>   5
Atom 150H    basis set group =>   5
Atom 151H    basis set group =>   5
Atom 152H    basis set group =>   5
Atom 153H    basis set group =>   5
Atom 154H    basis set group =>   5
Atom 155H    basis set group =>   5
Atom 156H    basis set group =>   5
Atom 157H    basis set group =>   5
Atom 158H    basis set group =>   5
Atom 159H    basis set group =>   5
Atom 160H    basis set group =>   5
Atom 161H    basis set group =>   5
Atom 162H    basis set group =>   5
Atom 163H    basis set group =>   5
Atom 164H    basis set group =>   5
Atom 165H    basis set group =>   5
Atom 166H    basis set group =>   5
Atom 167H    basis set group =>   5
Atom 168H    basis set group =>   5
Atom 169H    basis set group =>   5
Atom 170H    basis set group =>   5
Atom 171H    basis set group =>   5
Atom 172H    basis set group =>   5
Atom 173H    basis set group =>   5
Atom 174H    basis set group =>   5
Atom 175H    basis set group =>   5
Atom 176H    basis set group =>   5
Atom 177H    basis set group =>   5
Atom 178H    basis set group =>   5
Atom 179H    basis set group =>   5
Atom 180H    basis set group =>   5
Atom 181H    basis set group =>   5
Atom 182H    basis set group =>   5
Atom 183H    basis set group =>   5
Atom 184H    basis set group =>   5
Atom 185H    basis set group =>   5
Atom 186H    basis set group =>   5
Atom 187H    basis set group =>   5
------------------------------------------------------------------------------
                           ORCA GTO INTEGRAL CALCULATION
                           -- RI-GTO INTEGRALS CHOSEN --
------------------------------------------------------------------------------

                         BASIS SET STATISTICS AND STARTUP INFO

Gaussian basis set:
 # of primitive gaussian shells          ... 1895
 # of primitive gaussian functions       ... 3589
[...]
  48   4.726     262.3   0.042120   0.031967   2.983509   5.501284     0.08 ( 144-> 165)    0.07 ( 147-> 165)    0.06 ( 147-> 166)
  49   4.750     261.0   0.087582   0.065724  29.269256  24.968970     0.12 ( 139-> 165)    0.07 ( 138-> 165)    0.06 ( 144-> 166)
  50   4.780     259.4   0.063270   0.052747  22.612975  26.860563     0.15 ( 164-> 175)    0.12 ( 153-> 166)    0.05 ( 163-> 174)
  51   4.790     258.8   0.023183   0.016636  -31.229317  -26.312113     0.10 ( 153-> 166)    0.08 ( 162-> 168)    0.07 ( 138-> 165)
  52   4.810     257.8   0.159415   0.123408  33.825077  32.115618     0.11 ( 164-> 175)    0.05 ( 162-> 171)    0.05 ( 163-> 171)
  53   4.822     257.1   0.037518   0.029743  -7.555503  -6.535793     0.18 ( 164-> 176)    0.08 ( 164-> 180)    0.06 ( 162-> 175)
  54   4.836     256.4   0.050966   0.040021  34.876239  30.811743     0.09 ( 147-> 165)    0.05 ( 162-> 173)    0.05 ( 141-> 165)
  55   4.860     255.1   0.095777   0.070694  26.790262  22.741908     0.13 ( 163-> 168)    0.11 ( 162-> 170)    0.06 ( 162-> 169)
  56   4.883     253.9   0.096852   0.072469  -2.268055  -0.596620     0.07 ( 163-> 171)    0.07 ( 162-> 173)    0.06 ( 161-> 173)
  57   4.893     253.4   0.034066   0.027459  13.625049   9.359892     0.06 ( 164-> 177)    0.06 ( 162-> 171)    0.06 ( 163-> 170)
  58   4.901     253.0   0.006103   0.005015   3.214744   2.988211     0.09 ( 139-> 165)    0.08 ( 153-> 166)    0.07 ( 160-> 168)
  59   4.933     251.4   0.011283   0.006069  23.011311  12.494910     0.06 ( 164-> 181)    0.05 ( 164-> 176)    0.05 ( 161-> 171)
  60   4.943     250.8   0.017205   0.014708  -11.569840  -3.761983     0.08 ( 160-> 172)    0.06 ( 163-> 178)    0.06 ( 161-> 171)
  61   4.958     250.0   0.108878   0.079474   6.029580   4.140042     0.15 ( 160-> 172)    0.08 ( 163-> 169)    0.06 ( 160-> 170)
  62   4.974     249.3   0.025919   0.021927  -7.546356  -7.057108     0.10 ( 164-> 172)    0.06 ( 160-> 169)    0.06 ( 160-> 172)

-----------------------------------------------------------------------------
         ABSORPTION SPECTRUM VIA TRANSITION ELECTRIC DIPOLE MOMENTS
-----------------------------------------------------------------------------
State   Energy  Wavelength   fosc         T2         TX        TY        TZ  
        (cm-1)    (nm)                  (au**2)     (au)      (au)      (au) 
-----------------------------------------------------------------------------
   0   17490.5    571.7   2.691697691  50.66414   6.98776  -1.35117   0.09875
   1   20409.4    490.0   0.295318759   4.76361   0.80710   2.01339   0.24180
   2   22204.2    450.4   0.071166641   1.05516   0.88454   0.49182   0.17569
   3   22898.0    436.7   0.109917553   1.58032   1.16261   0.47677  -0.03662
   4   23785.2    420.4   0.380501124   5.26653  -1.78049  -1.44767  -0.02545
   5   24949.3    400.8   0.107958567   1.42454   0.43333  -1.08459  -0.24583
   6   26110.4    383.0   0.297726678   3.75388   1.47711  -1.25372   0.01386
   7   27194.1    367.7   0.041863870   0.50680   0.58841   0.39680   0.05591
   8   27766.2    360.1   0.038056214   0.45122  -0.65114   0.14696   0.07502
   9   27854.6    359.0   0.123273290   1.45696  -1.04490  -0.57957  -0.17104
  10   28802.4    347.2   0.032109379   0.36701   0.58656  -0.14748  -0.03473
  11   29257.6    341.8   0.245330139   2.76050   1.51943  -0.66771  -0.07753
  12   29339.7    340.8   0.381206903   4.27740   0.72658   1.93609   0.03198
  13   30683.0    325.9   0.015393978   0.16517   0.33471  -0.23027   0.01062
  14   31015.6    322.4   0.086784237   0.92116  -0.34637   0.84746   0.28809
  15   31485.3    317.6   0.086116650   0.90044  -0.93542  -0.14352   0.06946
  16   31802.9    314.4   0.088948221   0.92076  -0.93781  -0.17436   0.10422
  17   32028.4    312.2   0.138276575   1.42131  -0.83587  -0.84756  -0.06531
  18   32331.1    309.3   0.398946774   4.06228   0.12483  -1.96680  -0.42234
  19   32633.3    306.4   0.165077050   1.66534  -0.71700  -1.07285  -0.01548
  20   32830.8    304.6   0.062929593   0.63103   0.21194  -0.75904  -0.09983
  21   33066.1    302.4   0.119742651   1.19218  -0.36190   1.01880   0.15251
  22   33281.2    300.5   0.029569608   0.29250  -0.52433   0.12925  -0.02954
  23   33473.4    298.7   0.212124540   2.08625   1.36944  -0.44458  -0.11500
  24   33608.1    297.5   0.078207258   0.76609  -0.12020  -0.86246  -0.08830
  25   33659.3    297.1   0.000227166   0.00222  -0.02588  -0.00945   0.03825
  26   33957.3    294.5   0.174557300   1.69231   0.39867   1.23747  -0.04506
  27   34342.1    291.2   0.060382199   0.57884  -0.19541   0.69058   0.25248
  28   34528.4    289.6   0.093061829   0.88730   0.33267  -0.79401  -0.38233
  29   35023.6    285.5   0.423148151   3.97747   1.46435   1.35252   0.06199
  30   35265.1    283.6   0.004146064   0.03870  -0.16894  -0.08571   0.05308
  31   35384.9    282.6   0.016301553   0.15167   0.36282   0.12983  -0.05629
  32   35722.0    279.9   0.025301565   0.23318   0.17106   0.44850  -0.05258
  33   36065.6    277.3   0.024462283   0.22330   0.44862   0.14823   0.00812
  34   36271.5    275.7   0.010582219   0.09605  -0.09133  -0.29268  -0.04523
  35   36323.1    275.3   0.012520873   0.11348  -0.29285  -0.15733   0.05451
  36   36580.1    273.4   0.145546408   1.30988   0.42320  -1.05986  -0.08651
  37   36732.1    272.2   0.047005513   0.42129   0.29431   0.56757  -0.11194
  38   36988.6    270.4   0.027724093   0.24675   0.41170  -0.27791   0.00523
  39   37225.3    268.6   0.006566697   0.05807  -0.09562   0.18672   0.11860
  40   37490.7    266.7   0.093235066   0.81871   0.22624   0.82539   0.29370
  41   37535.0    266.4   0.091180825   0.79973  -0.15453  -0.83088  -0.29239
  42   37571.0    266.2   0.049589673   0.43452  -0.22395  -0.61929  -0.02926
  43   37699.3    265.3   0.028397827   0.24799   0.49647  -0.02332  -0.03100
  44   37765.4    264.8   0.022800104   0.19876  -0.30124  -0.20680  -0.25543
  45   37870.4    264.1   0.000128660   0.00112  -0.02898  -0.00632   0.01545
  46   37890.3    263.9   0.004531947   0.03938   0.15592  -0.06570  -0.10367
  47   37986.8    263.2   0.046979717   0.40715  -0.20078   0.60529   0.02133
  48   38118.5    262.3   0.042119919   0.36377  -0.29013   0.52759   0.03521
  49   38313.4    261.0   0.087582358   0.75256  -0.48697  -0.71421  -0.07296
  50   38555.5    259.4   0.063270336   0.54024  -0.10608  -0.72630  -0.03852
  51   38637.5    258.8   0.023183142   0.19753  -0.18041  -0.40368   0.04501
  52   38796.7    257.8   0.159414850   1.35272   0.90631  -0.71281  -0.15241
  53   38895.1    257.1   0.037518296   0.31756  -0.29926  -0.47097   0.07869
  54   39006.6    256.4   0.050966256   0.43015  -0.01010   0.65575   0.00668
  55   39202.4    255.1   0.095776941   0.80431  -0.01221   0.89226   0.08963
  56   39385.2    253.9   0.096851850   0.80956   0.25852  -0.86106  -0.03615
  57   39462.9    253.4   0.034065596   0.28419  -0.42753   0.31211   0.06316
  58   39526.4    253.0   0.006102616   0.05083  -0.14321   0.16940   0.04029
  59   39784.2    251.4   0.011283357   0.09337  -0.24353   0.16025   0.09156
  60   39870.5    250.8   0.017205186   0.14206   0.32897   0.15887   0.09275
  61   39992.3    250.0   0.108877516   0.89627   0.43616   0.84019   0.01060
  62   40117.5    249.3   0.025918759   0.21269   0.24156   0.39260   0.01451

-----------------------------------------------------------------------------
         ABSORPTION SPECTRUM VIA TRANSITION VELOCITY DIPOLE MOMENTS
-----------------------------------------------------------------------------
State   Energy  Wavelength   fosc         P2         PX        PY        PZ  
        (cm-1)    (nm)                  (au**2)     (au)      (au)      (au) 
-----------------------------------------------------------------------------
   0   17490.5    571.7   3.053939469   0.36506   0.59234  -0.11892   0.00751
   1   20409.4    490.0   0.319722409   0.04460   0.07555   0.19579   0.02354
   2   22204.2    450.4   0.070015629   0.01063   0.08903   0.04876   0.01792
   3   22898.0    436.7   0.096185402   0.01505   0.11283   0.04815  -0.00188
   4   23785.2    420.4   0.344716904   0.05604  -0.18515  -0.14748  -0.00262
   5   24949.3    400.8   0.100222302   0.01709   0.04736  -0.11908  -0.02582
   6   26110.4    383.0   0.287242144   0.05126   0.17278  -0.14631   0.00077
   7   27194.1    367.7   0.037698278   0.00701   0.07122   0.04333   0.00750
   8   27766.2    360.1   0.030839205   0.00585  -0.07416   0.01717   0.00758
   9   27854.6    359.0   0.118323577   0.02253  -0.12943  -0.07294  -0.02132
  10   28802.4    347.2   0.024515913   0.00483   0.06724  -0.01685  -0.00460
  11   29257.6    341.8   0.232969366   0.04658   0.19816  -0.08485  -0.01088
  12   29339.7    340.8   0.348587555   0.06990   0.09119   0.24814   0.00306
  13   30683.0    325.9   0.012390249   0.00260   0.04092  -0.03035   0.00165
  14   31015.6    322.4   0.071358228   0.01513  -0.04328   0.10867   0.03799
  15   31485.3    317.6   0.079165395   0.01704  -0.12764  -0.02590   0.00851
  16   31802.9    314.4   0.080281252   0.01745  -0.12902  -0.02524   0.01293
  17   32028.4    312.2   0.121959580   0.02670  -0.11364  -0.11699  -0.00978
  18   32331.1    309.3   0.353410506   0.07809   0.01973  -0.27212  -0.06043
  19   32633.3    306.4   0.144036561   0.03212  -0.09636  -0.15110  -0.00255
  20   32830.8    304.6   0.049732770   0.01116   0.02567  -0.10179  -0.01176
  21   33066.1    302.4   0.109275283   0.02470  -0.04984   0.14744   0.02175
  22   33281.2    300.5   0.026353667   0.00599  -0.07611   0.01349  -0.00442
  23   33473.4    298.7   0.188751724   0.04318   0.19637  -0.06576  -0.01720
  24   33608.1    297.5   0.067781549   0.01557  -0.01519  -0.12336  -0.01100
  25   33659.3    297.1   0.000643417   0.00015  -0.00882  -0.00665   0.00511
  26   33957.3    294.5   0.154867571   0.03594   0.06058   0.17950  -0.00720
  27   34342.1    291.2   0.051816789   0.01216  -0.03333   0.09864   0.03634
  28   34528.4    289.6   0.076739062   0.01811   0.04330  -0.11532  -0.05419
  29   35023.6    285.5   0.376143488   0.09004   0.21816   0.20568   0.01186
  30   35265.1    283.6   0.002372437   0.00057  -0.02060  -0.00906   0.00809
  31   35384.9    282.6   0.014943793   0.00361   0.05669   0.01807  -0.00855
  32   35722.0    279.9   0.021230164   0.00518   0.03004   0.06506  -0.00688
  33   36065.6    277.3   0.020027195   0.00494   0.06607   0.02389   0.00053
  34   36271.5    275.7   0.007860028   0.00195  -0.01377  -0.04170  -0.00444
  35   36323.1    275.3   0.009026963   0.00224  -0.04070  -0.02357   0.00542
  36   36580.1    273.4   0.125020060   0.03126   0.06745  -0.16281  -0.01408
  37   36732.1    272.2   0.036537368   0.00917   0.04079   0.08502  -0.01675
  38   36988.6    270.4   0.026939705   0.00681   0.07148  -0.04123   0.00085
  39   37225.3    268.6   0.005772636   0.00147  -0.01926   0.02885   0.01630
  40   37490.7    266.7   0.075834701   0.01943   0.03609   0.12736   0.04368
  41   37535.0    266.4   0.071881205   0.01844  -0.02346  -0.12668  -0.04291
  42   37571.0    266.2   0.041906746   0.01076  -0.03598  -0.09712  -0.00578
  43   37699.3    265.3   0.020517482   0.00529   0.07260  -0.00089  -0.00379
  44   37765.4    264.8   0.015549476   0.00401  -0.03981  -0.03697  -0.03259
  45   37870.4    264.1   0.000166961   0.00004  -0.00489   0.00358   0.00254
  46   37890.3    263.9   0.003174502   0.00082   0.02247  -0.01179  -0.01335
  47   37986.8    263.2   0.039172196   0.01017  -0.03553   0.09428   0.00434
  48   38118.5    262.3   0.031966951   0.00833  -0.04991   0.07627   0.00451
  49   38313.4    261.0   0.065724041   0.01721  -0.07291  -0.10848  -0.01128
  50   38555.5    259.4   0.052747229   0.01390  -0.01976  -0.11612  -0.00495
  51   38637.5    258.8   0.016636037   0.00439  -0.02551  -0.06085   0.00629
  52   38796.7    257.8   0.123407990   0.03272   0.14177  -0.11001  -0.02288
  53   38895.1    257.1   0.029742607   0.00791  -0.04663  -0.07468   0.01248
  54   39006.6    256.4   0.040020848   0.01067  -0.00608   0.10310   0.00170
  55   39202.4    255.1   0.070694085   0.01894  -0.00095   0.13693   0.01382
  56   39385.2    253.9   0.072469393   0.01951   0.04076  -0.13349  -0.00511
  57   39462.9    253.4   0.027458638   0.00741  -0.06871   0.05057   0.01125
  58   39526.4    253.0   0.005015269   0.00135  -0.02282   0.02809   0.00670
  59   39784.2    251.4   0.006068675   0.00165  -0.03598   0.01412   0.01249
  60   39870.5    250.8   0.014708316   0.00401   0.05315   0.03187   0.01296
  61   39992.3    250.0   0.079473540   0.02172   0.06831   0.13058   0.00243
  62   40117.5    249.3   0.021926710   0.00601   0.04310   0.06444   0.00163

-------------------------------------------------------------------
                             CD SPECTRUM
-------------------------------------------------------------------
State   Energy Wavelength       R         MX        MY        MZ   
        (cm-1)   (nm)       (1e40*cgs)   (au)      (au)      (au)  
-------------------------------------------------------------------
   0   17490.5    571.7    -128.48687  -0.14043  -0.95289   2.41859
   1   20409.4    490.0    287.69603   0.02349  -0.78156   1.38179
   2   22204.2    450.4    -49.08442   0.07541  -0.52574   2.27734
   3   22898.0    436.7    -15.71619   0.07373   0.00970   0.64632
   4   23785.2    420.4    116.31720  -0.06994   0.49968  -4.14042
   5   24949.3    400.8    -39.05556   0.01896   0.92597  -4.72594
   6   26110.4    383.0    -125.53058  -0.03638  -0.45571   1.07753
   7   27194.1    367.7     39.98694  -0.02456  -0.50938   0.83941
   8   27766.2    360.1    -13.07282  -0.01407   0.05720   0.50502
   9   27854.6    359.0     -1.74604  -0.10235   0.42011  -0.84161
  10   28802.4    347.2    -26.37536   0.11279   0.45635  -3.25447
  11   29257.6    341.8    -10.44811  -0.10046   0.14271  -3.76986
  12   29339.7    340.8     71.73945   0.25084  -0.34056   5.40264
  13   30683.0    325.9     -2.11326  -0.08980  -0.18495  -0.33576
  14   31015.6    322.4    -91.40380  -0.10112  -1.50200   5.64271
  15   31485.3    317.6    -52.11829  -0.08939  -0.39226   1.16881
  16   31802.9    314.4    -77.25454  -0.15287  -0.52316   0.89379
  17   32028.4    312.2     32.30005  -0.04765   0.58600  -4.89657
  18   32331.1    309.3    -19.30079   0.01151   2.36620 -11.20954
  19   32633.3    306.4    124.50392   0.00652   0.50098  -0.90321
  20   32830.8    304.6    -18.94591  -0.05451   0.45890  -4.40999
  21   33066.1    302.4     49.38611   0.03972  -0.85561   4.43626
  22   33281.2    300.5      5.75323   0.04949   0.18715   0.76666
  23   33473.4    298.7    -19.63080   0.05236   0.15423  -0.69690
  24   33608.1    297.5     11.98448  -0.00356   0.38070  -3.13782
  25   33659.3    297.1     -6.28109   0.02113  -0.04150   0.70073
  26   33957.3    294.5    -89.56393   0.32741   0.31319   3.06573
  27   34342.1    291.2    -142.31257   0.00152  -1.17896   5.61704
  28   34528.4    289.6    -174.64989   0.12532   1.95779  -5.89469
  29   35023.6    285.5    170.51521  -0.00509  -0.66047   2.86133
  30   35265.1    283.6    -28.12401  -0.03431  -0.17428   1.85723
  31   35384.9    282.6     -8.42705   0.01948   0.31699   0.22156
  32   35722.0    279.9    -27.47221   0.11587   0.17061  -0.38429
  33   36065.6    277.3      1.12746   0.02607  -0.13864   0.50160
  34   36271.5    275.7     -0.38065   0.09544   0.01261  -0.31003
  35   36323.1    275.3     15.45910  -0.23720   0.08648  -2.22799
  36   36580.1    273.4     82.79971  -0.12901   0.39852  -1.45314
  37   36732.1    272.2    -130.84057   0.30171   0.68658  -0.68414
  38   36988.6    270.4      3.68419  -0.08798  -0.06493   0.48645
  39   37225.3    268.6    -23.68272  -0.22153  -0.00784   0.68084
  40   37490.7    266.7     29.27793   0.03160  -1.61309   4.08610
  41   37535.0    266.4    -41.06150  -0.10498   1.22373  -4.01764
  42   37571.0    266.2     23.97942  -0.00331   0.34926  -3.89047
  43   37699.3    265.3    -15.36409   0.17987   0.36677   0.50214
  44   37765.4    264.8    -20.89034  -0.07575   0.44773  -0.62012
  45   37870.4    264.1     -1.99076  -0.03804  -0.26483   0.36676
  46   37890.3    263.9     32.12168   0.06353   0.78416   0.91299
  47   37986.8    263.2     12.96379   0.02072  -0.17532   2.59203
  48   38118.5    262.3      2.98351   0.05699  -0.19491   3.03069
  49   38313.4    261.0     29.26926  -0.09157   0.48109  -2.39641
  50   38555.5    259.4     22.61297   0.07804   0.31647  -3.69149
  51   38637.5    258.8    -31.22932  -0.10873  -0.24888   0.27545
  52   38796.7    257.8     33.82508  -0.09054   0.67091  -2.73469
  53   38895.1    257.1     -7.55550  -0.19474  -0.22488  -1.67930
  54   39006.6    256.4     34.87624   0.11926  -0.23266   0.87045
  55   39202.4    255.1     26.79026   0.02292  -0.41613   2.87763
  56   39385.2    253.9     -2.26806  -0.06791   0.05323  -2.01945
  57   39462.9    253.4     13.62505   0.04097  -0.56779   2.16803
  58   39526.4    253.0      3.21474  -0.04412  -0.33503   0.91322
  59   39784.2    251.4     23.01131   0.01171  -0.48301  -0.18969
  60   39870.5    250.8    -11.56984   0.17027  -0.53600   0.84339
  61   39992.3    250.0      6.02958  -0.03769  -0.02366   1.01370
  62   40117.5    249.3     -7.54636   0.07517   0.03326   0.05516

sTD-DFT done

Total run time:       19.956 sec

           *** ORCA-CIS/TD-DFT FINISHED WITHOUT ERROR ***

-------------------------   --------------------
FINAL SINGLE POINT ENERGY    -11533.103933002296
-------------------------   --------------------


                            ***************************************
                            *     ORCA property calculations      *
                            ***************************************

                                    ---------------------
                                    Active property flags
                                    ---------------------
   (+) Dipole Moment


------------------------------------------------------------------------------
                       ORCA ELECTRIC PROPERTIES CALCULATION
------------------------------------------------------------------------------

Dipole Moment Calculation                       ... on
Quadrupole Moment Calculation                   ... off
Polarizability Calculation                      ... off
GBWName                                         ... PTB7-Th_olig.gbw
Electron density file                           ... PTB7-Th_olig.scfp
The origin for moment calculation is the CENTER OF MASS  = (-18.036893,  2.194430 -0.135895)

-------------
DIPOLE MOMENT
-------------
                                X             Y             Z
Electronic contribution:      2.93803       0.21201      36.02276
Nuclear contribution   :     -0.62089      -3.80197     -38.85297
                        -----------------------------------------
Total Dipole Moment    :      2.31714      -3.58996      -2.83021
                        -----------------------------------------
Magnitude (a.u.)       :      5.12514
Magnitude (Debye)      :     13.02707



--------------------
Rotational spectrum 
--------------------
 
Rotational constants in cm-1:     0.000548     0.000078     0.000069 
Rotational constants in MHz :    16.442472     2.337894     2.067855 

 Dipole components along the rotational axes: 
x,y,z [a.u.] :     2.175991     3.916291    -2.488935 
x,y,z [Debye]:     5.530928     9.954420    -6.326370 

 

Timings for individual modules:

Sum of individual times         ...     9460.273 sec (= 157.671 min)
GTO integral calculation        ...        7.194 sec (=   0.120 min)   0.1 %
SCF iterations                  ...     9432.963 sec (= 157.216 min)  99.7 %
CIS module                      ...       20.115 sec (=   0.335 min)   0.2 %
                             ****ORCA TERMINATED NORMALLY****
TOTAL RUN TIME: 0 days 2 hours 37 minutes 41 seconds 543 msec
