
                                 *****************
                                 * O   R   C   A *
                                 *****************

           --- An Ab Initio, DFT and Semiempirical electronic structure package ---

                  #######################################################
                  #                        -***-                        #
                  #          Department of theory and spectroscopy      #
                  #               Directorship: Frank Neese             #
                  #        Max Planck Institute fuer Kohlenforschung    #
                  #                Kaiser Wilhelm Platz 1               #
                  #                 D-45470 Muelheim/Ruhr               #
                  #                      Germany                        #
                  #                                                     #
                  #                  All rights reserved                #
                  #                        -***-                        #
                  #######################################################


                         Program Version 4.2.0 -  RELEASE  -


 With contributions from (in alphabetic order):
   Daniel Aravena         : Magnetic Suceptibility
   Michael Atanasov       : Ab Initio Ligand Field Theory (pilot matlab implementation)
   Alexander A. Auer      : GIAO ZORA, VPT2
   Ute Becker             : Parallelization
   Giovanni Bistoni       : ED, misc. LED, open-shell LED, HFLED
   Martin Brehm           : Molecular dynamics
   Dmytro Bykov           : SCF Hessian
   Vijay G. Chilkuri      : MRCI spin determinant printing, contributions to CSF-ICE
   Dipayan Datta          : RHF DLPNO-CCSD density
   Achintya Kumar Dutta   : EOM-CC, STEOM-CC
   Dmitry Ganyushin       : Spin-Orbit,Spin-Spin,Magnetic field MRCI
   Miquel Garcia          : C-PCM Hessian, Gaussian charge scheme
   Yang Guo               : DLPNO-NEVPT2, CIM, IAO-localization
   Andreas Hansen         : Spin unrestricted coupled pair/coupled cluster methods
   Benjamin Helmich-Paris : CASSCF linear response (MC-RPA)
   Lee Huntington         : MR-EOM, pCC
   Robert Izsak           : Overlap fitted RIJCOSX, COSX-SCS-MP3, EOM
   Christian Kollmar      : KDIIS, OOCD, Brueckner-CCSD(T), CCSD density
   Simone Kossmann        : Meta GGA functionals, TD-DFT gradient, OOMP2, MP2 Hessian
   Martin Krupicka        : AUTO-CI
   Lucas Lang             : DCDCAS
   Dagmar Lenk            : GEPOL surface, SMD
   Dimitrios Liakos       : Extrapolation schemes; Compound Job, initial MDCI parallelization
   Dimitrios Manganas     : Further ROCIS development; embedding schemes
   Dimitrios Pantazis     : SARC Basis sets
   Taras Petrenko         : DFT Hessian,TD-DFT gradient, ASA, ECA, R-Raman, ABS, FL, XAS/XES, NRVS
   Peter Pinski           : DLPNO-MP2, DLPNO-MP2 Gradient
   Christoph Reimann      : Effective Core Potentials
   Marius Retegan         : Local ZFS, SOC
   Christoph Riplinger    : Optimizer, TS searches, QM/MM, DLPNO-CCSD(T), (RO)-DLPNO pert. Triples
   Tobias Risthaus        : Range-separated hybrids, TD-DFT gradient, RPA, STAB
   Michael Roemelt        : Original ROCIS implementation
   Masaaki Saitow         : Open-shell DLPNO-CCSD energy and density
   Barbara Sandhoefer     : DKH picture change effects
   Avijit Sen             : IP-ROCIS
   Kantharuban Sivalingam : CASSCF convergence, NEVPT2, FIC-MRCI
   Bernardo de Souza      : ESD, SOC TD-DFT
   Georgi Stoychev        : AutoAux, RI-MP2 NMR
   Willem Van den Heuvel  : Paramagnetic NMR
   Boris Wezisla          : Elementary symmetry handling
   Frank Wennmohs         : Technical directorship


 We gratefully acknowledge several colleagues who have allowed us to
 interface, adapt or use parts of their codes:
   Stefan Grimme, W. Hujo, H. Kruse,             : VdW corrections, initial TS optimization,
                  C. Bannwarth                     DFT functionals, gCP, sTDA/sTD-DF
   Ed Valeev, F. Pavosevic, A. Kumar             : LibInt (2-el integral package), F12 methods
   Garnet Chan, S. Sharma, J. Yang, R. Olivares  : DMRG
   Ulf Ekstrom                                   : XCFun DFT Library
   Mihaly Kallay                                 : mrcc  (arbitrary order and MRCC methods)
   Andreas Klamt, Michael Diedenhofen            : otool_cosmo (COSMO solvation model)
   Jiri Pittner, Ondrej Demel                    : Mk-CCSD
   Frank Weinhold                                : gennbo (NPA and NBO analysis)
   Christopher J. Cramer and Donald G. Truhlar   : smd solvation model
   Lars Goerigk                                  : TD-DFT with DH, B97 family of functionals
   V. Asgeirsson, H. Jonsson                     : NEB implementation
   FAccTs GmbH                                   : IRC, NEB, NEB-TS, Multilevel, MM, QM/MM, CI optimization
   S Lehtola, MJT Oliveira, MAL Marques          : LibXC Library


 Your calculation uses the libint2 library for the computation of 2-el integrals
 For citations please refer to: http://libint.valeyev.net

 Your ORCA version has been built with support for libXC version: 4.2.3
 For citations please refer to: https://tddft.org/programs/libxc/

 This ORCA versions uses:
   CBLAS   interface :  Fast vector & matrix operations
   LAPACKE interface :  Fast linear algebra routines
   SCALAPACK package :  Parallel linear algebra routines


XCFun DFT library Copyright 2009-2010 Ulf Ekstrom and contributors.
See http://admol.org/xcfun for more information. This is free soft-
ware; see the source code for copying conditions. There is ABSOLUTELY
NO WARRANTY; not even for MERCHANTABILITY or FITNESS FOR A PARTICULAR
PURPOSE. For details see the documentation. Scientific users of this 
library should cite U. Ekstrom, L. Visscher, R. Bast, A. J. Thorvald-
sen and K. Ruud; J.Chem.Theor.Comp. 2010, DOI: 10.1021/ct100117s
XCFun Version 0.99 
----- Orbital basis set information -----
Your calculation utilizes the basis: def2-SVP
   F. Weigend and R. Ahlrichs, Phys. Chem. Chem. Phys. 7, 3297 (2005).

----- AuxJ basis set information -----
Your calculation utilizes the auxiliary basis: def2/J
   F. Weigend, Phys. Chem. Chem. Phys. 8, 1057 (2006).

================================================================================
                                        WARNINGS
                       Please study these warnings very carefully!
================================================================================

INFO   : Checking CIS options ...

WARNING: CIS/ROCIS methods need fully converged wavefunctions
  ===> : Setting SCFConvForced true
         You can overwrite this default with %scf ConvForced false 


INFO   : the flag for use of LIBINT has been found!

================================================================================
                                       INPUT FILE
================================================================================
NAME = PTFB-O.inp
|  1> # ORCA input file
|  2> # SCF done       -360.949063937786          0.000441389604
|  3> ! CAM-B3LYP def2-SVP def2/J RIJCOSX Grid4 TightSCF
|  4> %maxcore 5000
|  5> %tddft
|  6>     Mode sTDDFT
|  7>     Ethresh 5.0
|  8>     maxcore 5000
|  9> end
| 10> * xyz 0 1
| 11>    C        0.62672        -1.30583        -0.38471
| 12>    C        1.79278        -0.57297        -0.63180
| 13>    C        1.76988         0.79698        -0.82513
| 14>    C        0.57721         1.52575        -0.76563
| 15>    C       -0.58933         0.78677        -0.52579
| 16>    C       -0.56850        -0.57357        -0.34756
| 17>    C        0.63676        -2.72747        -0.14479
| 18>    C        0.52756         2.96144        -0.89035
| 19>    F        2.98503        -1.19743        -0.68887
| 20>    F        2.94489         1.41877        -1.04464
| 21>    S       -0.87335         3.81844        -0.31124
| 22>    C        1.06348         5.18424        -1.29921
| 23>    C        1.45663         3.84468        -1.38641
| 24>    C       -0.43397        -3.59123        -0.20088
| 25>    C       -0.11687        -4.90536         0.15006
| 26>    C        1.20681        -5.07410         0.49478
| 27>    S        2.07221        -3.57477         0.34828
| 28>    C        1.89476        -6.23356         0.96470
| 29>    S        3.37464        -6.00946         1.85405
| 30>    C        3.54130        -7.72064         2.08549
| 31>    C        2.50416        -8.39982         1.48589
| 32>    C        1.56746        -7.57572         0.84695
| 33>    C        0.37311        -8.08840         0.09866
| 34>    C        0.48744        -9.55313        -0.31101
| 35>    C        4.65154        -8.22575         2.83686
| 36>    C        5.62626        -7.34668         3.36512
| 37>    C        6.74134        -7.78050         4.13829
| 38>    C        6.95732        -9.14958         4.43808
| 39>    C        5.99197        -9.99097         3.89959
| 40>    C        4.89554        -9.55787         3.13981
| 41>    N        5.70391        -6.01533         3.25952
| 42>    N        6.78223        -5.69789         3.91907
| 43>    N        7.44254        -6.68378         4.46332
| 44>    C        7.21128        -4.33837         4.03469
| 45>    F        4.05667       -10.52049         2.70603
| 46>    F        6.08155       -11.32124         4.10720
| 47>    C        8.06765        -9.59078         5.22720
| 48>    C        9.03091        -8.80145         5.81098
| 49>    C        9.99424        -9.52464         6.53445
| 50>    C        9.76543       -10.87754         6.50119
| 51>    S        8.36119       -11.27091         5.58097
| 52>    C       11.13960        -8.90139         7.26393
| 53>    C       10.57586       -11.94214         7.14945
| 54>    C       -9.62338        15.40976         9.12033
| 55>    C       -9.55612        16.76515         9.46457
| 56>    C      -10.09548        17.24757        10.64510
| 57>    C      -10.73542        16.40694        11.56322
| 58>    C      -10.82978        15.05636        11.19687
| 59>    C      -10.30001        14.57996        10.02685
| 60>    C       -9.01224        14.85409         7.94088
| 61>    C      -11.24513        16.85313        12.83462
| 62>    F       -8.95193        17.65309         8.65028
| 63>    F       -9.96363        18.56537        10.89463
| 64>    S      -11.74530        15.66545        14.00756
| 65>    C      -11.89431        18.14447        14.65476
| 66>    C      -11.39515        18.12020        13.34846
| 67>    C       -8.14736        15.41714         7.02957
| 68>    C       -7.69232        14.51940         6.06301
| 69>    C       -8.20335        13.24500         6.19758
| 70>    S       -9.28418        13.17513         7.55608
| 71>    C       -7.87044        12.10158         5.41974
| 72>    S       -6.54123        12.21218         4.29538
| 73>    C       -6.69815        10.53113         3.88698
| 74>    C       -7.74711         9.95579         4.57002
| 75>    C       -8.41585        10.82494         5.43937
| 76>    C       -9.57512        10.43015         6.30096
| 77>    C      -10.10944         9.02997         6.02634
| 78>    C       -5.75511         9.92050         3.00060
| 79>    C       -4.73718        10.67779         2.37282
| 80>    C       -3.71777        10.10154         1.55962
| 81>    C       -3.64444         8.70477         1.32808
| 82>    C       -4.67895         7.99122         1.92224
| 83>    C       -5.68407         8.56308         2.71198
| 84>    N       -4.51795        11.99707         2.41540
| 85>    N       -3.45449        12.17489         1.68243
| 86>    N       -2.92918        11.10509         1.14885
| 87>    C       -2.90029        13.47689         1.47435
| 88>    F       -6.59259         7.70716         3.22025
| 89>    F       -4.73690         6.65376         1.76363
| 90>    C       -2.57348         8.09956         0.59896
| 91>    C       -1.54447         8.74002        -0.05720
| 92>    C       -0.59499         7.88086        -0.62252
| 93>    C       -0.89470         6.54553        -0.39090
| 94>    S       -2.37542         6.37797         0.50388
| 95>    C        0.58932         8.38772        -1.37678
| 96>    C       -0.17608         5.35933        -0.72305
| 97>    C      -15.14684         7.10650        29.01079
| 98>    C      -15.00315         5.72534        28.83478
| 99>    C      -15.10246         4.83526        29.88881
|100>    C      -15.35506         5.25993        31.19728
|101>    C      -15.50084         6.64425        31.37038
|102>    C      -15.40153         7.52810        30.32496
|103>    C      -15.03252         8.04234        27.92267
|104>    C      -15.45826         4.34294        32.30777
|105>    F      -14.75838         5.21646        27.61132
|106>    F      -14.94837         3.52610        29.61373
|107>    S      -15.16623         2.63553        32.12896
|108>    C      -15.47004         2.36480        33.78994
|109>    C      -15.78285         3.51118        34.45249
|110>    C      -15.77618         4.63668        33.61288
|111>    C      -15.16015         9.41597        27.96763
|112>    C      -14.97555        10.03601        26.73521
|113>    C      -14.69997         9.15498        25.70721
|114>    S      -14.67984         7.52523        26.30029
|115>    C      -14.44448         9.49267        24.35010
|116>    S      -14.43094        11.17606        23.89171
|117>    C      -14.04465        10.76569        22.24880
|118>    C      -13.95129         9.39974        22.09348
|119>    C      -14.17459         8.66803        23.26558
|120>    C      -14.12849         7.17456        23.35270
|121>    C      -13.86589         6.47691        22.02410
|122>    C      -13.85521        11.80137        21.27960
|123>    C      -14.04847        13.16435        21.61058
|124>    C      -13.85064        14.23285        20.68759
|125>    C      -13.43211        14.00313        19.35261
|126>    C      -13.25826        12.65675        19.05283
|127>    C      -13.45961        11.60997        19.96129
|128>    N      -14.42961        13.70511        22.77366
|129>    N      -14.45237        14.98849        22.54503
|130>    N      -14.12322        15.37155        21.34084
|131>    C      -14.82136        15.92217        23.56363
|132>    F      -13.23466        10.36819        19.48855
|133>    F      -12.86472        12.29994        17.81390
|134>    C      -13.19915        15.06517        18.42368
|135>    C      -13.37282        16.41561        18.64022
|136>    C      -13.03940        17.22476        17.54790
|137>    C      -12.59457        16.48151        16.46348
|138>    S      -12.61028        14.77943        16.81665
|139>    C      -13.16826        18.71149        17.58605
|140>    C      -12.13375        16.89195        15.17801
|141>    H       -1.52891         1.31560        -0.47399
|142>    H       -1.49153        -1.09228        -0.14780
|143>    H        1.68527         5.99038        -1.63703
|144>    H        2.39710         3.54196        -1.80824
|145>    H       -1.42169        -3.29117        -0.50115
|146>    H       -0.84803        -5.68993         0.18775
|147>    H        2.42594        -9.46944         1.50740
|148>    H        0.23649        -7.47518        -0.79611
|149>    H       -0.51761        -7.96416         0.72357
|150>    H        1.40039        -9.72233        -0.87698
|151>    H       -0.36019        -9.82625        -0.93575
|152>    H        0.48892       -10.20493         0.55863
|153>    H        6.52390        -3.72390         3.45814
|154>    H        8.22537        -4.23644         3.64793
|155>    H        7.20172        -4.03203         5.08136
|156>    H        9.02768        -7.73196         5.71072
|157>    H       11.12250        -7.82226         7.14072
|158>    H       12.08768        -9.28331         6.88639
|159>    H       11.08734        -9.13398         8.32735
|160>    H       11.59908       -11.92550         6.77174
|161>    H       10.14661       -12.92117         6.95380
|162>    H       10.61810       -11.78587         8.22819
|163>    H      -11.32858        14.37460        11.86844
|164>    H      -10.38783        13.52955         9.79580
|165>    H      -12.05581        19.05813        15.19325
|166>    H      -11.15592        19.01460        12.80386
|167>    H       -7.83433        16.44382         7.06332
|168>    H       -7.00067        14.77945         5.28136
|169>    H       -8.01976         8.92587         4.44945
|170>    H      -10.38149        11.15676         6.16003
|171>    H       -9.26934        10.49674         7.35051
|172>    H      -10.41953         8.93147         4.98888
|173>    H      -10.97163         8.83866         6.66075
|174>    H       -9.35627         8.27636         6.24157
|175>    H       -3.48034        14.18267         2.06380
|176>    H       -2.95200        13.73977         0.41710
|177>    H       -1.85653        13.48885         1.78851
|178>    H       -1.48995         9.81188        -0.11138
|179>    H        0.51774         9.46648        -1.48892
|180>    H        0.63945         7.93601        -2.36643
|181>    H        1.51207         8.15738        -0.84476
|182>    H      -15.69175         7.02857        32.35855
|183>    H      -15.51968         8.58081        30.52118
|184>    H      -15.40109         1.36974        34.18240
|185>    H      -16.00970         3.55229        35.50280
|186>    H      -16.00432         5.62563        33.96599
|187>    H      -15.38152         9.96358        28.86539
|188>    H      -15.03584        11.09870        26.58120
|189>    H      -13.72640         8.93953        21.15146
|190>    H      -15.07839         6.81696        23.76330
|191>    H      -13.35058         6.88762        24.06798
|192>    H      -14.64095         6.71672        21.30008
|193>    H      -13.86160         5.40019        22.17534
|194>    H      -12.90081         6.76725        21.61617
|195>    H      -15.03747        15.35836        24.46771
|196>    H      -15.70175        16.48458        23.25110
|197>    H      -14.00316        16.62069        23.74087
|198>    H      -13.73397        16.79492        19.57856
|199>    H      -13.63192        19.01549        18.52083
|200>    H      -13.78182        19.06705        16.75957
|201>    H      -12.18911        19.18477        17.51719
|202> *
|203> 
|204>                          ****END OF INPUT****
================================================================================

                       ****************************
                       * Single Point Calculation *
                       ****************************

---------------------------------
CARTESIAN COORDINATES (ANGSTROEM)
---------------------------------
  C      0.626720   -1.305830   -0.384710
  C      1.792780   -0.572970   -0.631800
  C      1.769880    0.796980   -0.825130
  C      0.577210    1.525750   -0.765630
  C     -0.589330    0.786770   -0.525790
  C     -0.568500   -0.573570   -0.347560
  C      0.636760   -2.727470   -0.144790
  C      0.527560    2.961440   -0.890350
  F      2.985030   -1.197430   -0.688870
  F      2.944890    1.418770   -1.044640
  S     -0.873350    3.818440   -0.311240
  C      1.063480    5.184240   -1.299210
  C      1.456630    3.844680   -1.386410
  C     -0.433970   -3.591230   -0.200880
  C     -0.116870   -4.905360    0.150060
  C      1.206810   -5.074100    0.494780
  S      2.072210   -3.574770    0.348280
  C      1.894760   -6.233560    0.964700
  S      3.374640   -6.009460    1.854050
  C      3.541300   -7.720640    2.085490
  C      2.504160   -8.399820    1.485890
  C      1.567460   -7.575720    0.846950
  C      0.373110   -8.088400    0.098660
  C      0.487440   -9.553130   -0.311010
  C      4.651540   -8.225750    2.836860
  C      5.626260   -7.346680    3.365120
  C      6.741340   -7.780500    4.138290
  C      6.957320   -9.149580    4.438080
  C      5.991970   -9.990970    3.899590
  C      4.895540   -9.557870    3.139810
  N      5.703910   -6.015330    3.259520
  N      6.782230   -5.697890    3.919070
  N      7.442540   -6.683780    4.463320
  C      7.211280   -4.338370    4.034690
  F      4.056670  -10.520490    2.706030
  F      6.081550  -11.321240    4.107200
  C      8.067650   -9.590780    5.227200
  C      9.030910   -8.801450    5.810980
  C      9.994240   -9.524640    6.534450
  C      9.765430  -10.877540    6.501190
  S      8.361190  -11.270910    5.580970
  C     11.139600   -8.901390    7.263930
  C     10.575860  -11.942140    7.149450
  C     -9.623380   15.409760    9.120330
  C     -9.556120   16.765150    9.464570
  C    -10.095480   17.247570   10.645100
  C    -10.735420   16.406940   11.563220
  C    -10.829780   15.056360   11.196870
  C    -10.300010   14.579960   10.026850
  C     -9.012240   14.854090    7.940880
  C    -11.245130   16.853130   12.834620
  F     -8.951930   17.653090    8.650280
  F     -9.963630   18.565370   10.894630
  S    -11.745300   15.665450   14.007560
  C    -11.894310   18.144470   14.654760
  C    -11.395150   18.120200   13.348460
  C     -8.147360   15.417140    7.029570
  C     -7.692320   14.519400    6.063010
  C     -8.203350   13.245000    6.197580
  S     -9.284180   13.175130    7.556080
  C     -7.870440   12.101580    5.419740
  S     -6.541230   12.212180    4.295380
  C     -6.698150   10.531130    3.886980
  C     -7.747110    9.955790    4.570020
  C     -8.415850   10.824940    5.439370
  C     -9.575120   10.430150    6.300960
  C    -10.109440    9.029970    6.026340
  C     -5.755110    9.920500    3.000600
  C     -4.737180   10.677790    2.372820
  C     -3.717770   10.101540    1.559620
  C     -3.644440    8.704770    1.328080
  C     -4.678950    7.991220    1.922240
  C     -5.684070    8.563080    2.711980
  N     -4.517950   11.997070    2.415400
  N     -3.454490   12.174890    1.682430
  N     -2.929180   11.105090    1.148850
  C     -2.900290   13.476890    1.474350
  F     -6.592590    7.707160    3.220250
  F     -4.736900    6.653760    1.763630
  C     -2.573480    8.099560    0.598960
  C     -1.544470    8.740020   -0.057200
  C     -0.594990    7.880860   -0.622520
  C     -0.894700    6.545530   -0.390900
  S     -2.375420    6.377970    0.503880
  C      0.589320    8.387720   -1.376780
  C     -0.176080    5.359330   -0.723050
  C    -15.146840    7.106500   29.010790
  C    -15.003150    5.725340   28.834780
  C    -15.102460    4.835260   29.888810
  C    -15.355060    5.259930   31.197280
  C    -15.500840    6.644250   31.370380
  C    -15.401530    7.528100   30.324960
  C    -15.032520    8.042340   27.922670
  C    -15.458260    4.342940   32.307770
  F    -14.758380    5.216460   27.611320
  F    -14.948370    3.526100   29.613730
  S    -15.166230    2.635530   32.128960
  C    -15.470040    2.364800   33.789940
  C    -15.782850    3.511180   34.452490
  C    -15.776180    4.636680   33.612880
  C    -15.160150    9.415970   27.967630
  C    -14.975550   10.036010   26.735210
  C    -14.699970    9.154980   25.707210
  S    -14.679840    7.525230   26.300290
  C    -14.444480    9.492670   24.350100
  S    -14.430940   11.176060   23.891710
  C    -14.044650   10.765690   22.248800
  C    -13.951290    9.399740   22.093480
  C    -14.174590    8.668030   23.265580
  C    -14.128490    7.174560   23.352700
  C    -13.865890    6.476910   22.024100
  C    -13.855210   11.801370   21.279600
  C    -14.048470   13.164350   21.610580
  C    -13.850640   14.232850   20.687590
  C    -13.432110   14.003130   19.352610
  C    -13.258260   12.656750   19.052830
  C    -13.459610   11.609970   19.961290
  N    -14.429610   13.705110   22.773660
  N    -14.452370   14.988490   22.545030
  N    -14.123220   15.371550   21.340840
  C    -14.821360   15.922170   23.563630
  F    -13.234660   10.368190   19.488550
  F    -12.864720   12.299940   17.813900
  C    -13.199150   15.065170   18.423680
  C    -13.372820   16.415610   18.640220
  C    -13.039400   17.224760   17.547900
  C    -12.594570   16.481510   16.463480
  S    -12.610280   14.779430   16.816650
  C    -13.168260   18.711490   17.586050
  C    -12.133750   16.891950   15.178010
  H     -1.528910    1.315600   -0.473990
  H     -1.491530   -1.092280   -0.147800
  H      1.685270    5.990380   -1.637030
  H      2.397100    3.541960   -1.808240
  H     -1.421690   -3.291170   -0.501150
  H     -0.848030   -5.689930    0.187750
  H      2.425940   -9.469440    1.507400
  H      0.236490   -7.475180   -0.796110
  H     -0.517610   -7.964160    0.723570
  H      1.400390   -9.722330   -0.876980
  H     -0.360190   -9.826250   -0.935750
  H      0.488920  -10.204930    0.558630
  H      6.523900   -3.723900    3.458140
  H      8.225370   -4.236440    3.647930
  H      7.201720   -4.032030    5.081360
  H      9.027680   -7.731960    5.710720
  H     11.122500   -7.822260    7.140720
  H     12.087680   -9.283310    6.886390
  H     11.087340   -9.133980    8.327350
  H     11.599080  -11.925500    6.771740
  H     10.146610  -12.921170    6.953800
  H     10.618100  -11.785870    8.228190
  H    -11.328580   14.374600   11.868440
  H    -10.387830   13.529550    9.795800
  H    -12.055810   19.058130   15.193250
  H    -11.155920   19.014600   12.803860
  H     -7.834330   16.443820    7.063320
  H     -7.000670   14.779450    5.281360
  H     -8.019760    8.925870    4.449450
  H    -10.381490   11.156760    6.160030
  H     -9.269340   10.496740    7.350510
  H    -10.419530    8.931470    4.988880
  H    -10.971630    8.838660    6.660750
  H     -9.356270    8.276360    6.241570
  H     -3.480340   14.182670    2.063800
  H     -2.952000   13.739770    0.417100
  H     -1.856530   13.488850    1.788510
  H     -1.489950    9.811880   -0.111380
  H      0.517740    9.466480   -1.488920
  H      0.639450    7.936010   -2.366430
  H      1.512070    8.157380   -0.844760
  H    -15.691750    7.028570   32.358550
  H    -15.519680    8.580810   30.521180
  H    -15.401090    1.369740   34.182400
  H    -16.009700    3.552290   35.502800
  H    -16.004320    5.625630   33.965990
  H    -15.381520    9.963580   28.865390
  H    -15.035840   11.098700   26.581200
  H    -13.726400    8.939530   21.151460
  H    -15.078390    6.816960   23.763300
  H    -13.350580    6.887620   24.067980
  H    -14.640950    6.716720   21.300080
  H    -13.861600    5.400190   22.175340
  H    -12.900810    6.767250   21.616170
  H    -15.037470   15.358360   24.467710
  H    -15.701750   16.484580   23.251100
  H    -14.003160   16.620690   23.740870
  H    -13.733970   16.794920   19.578560
  H    -13.631920   19.015490   18.520830
  H    -13.781820   19.067050   16.759570
  H    -12.189110   19.184770   17.517190

----------------------------
CARTESIAN COORDINATES (A.U.)
----------------------------
  NO LB      ZA    FRAG     MASS         X           Y           Z
   0 C     6.0000    0    12.011    1.184329   -2.467661   -0.726997
   1 C     6.0000    0    12.011    3.387863   -1.082756   -1.193929
   2 C     6.0000    0    12.011    3.344588    1.506074   -1.559270
   3 C     6.0000    0    12.011    1.090769    2.883250   -1.446831
   4 C     6.0000    0    12.011   -1.113672    1.486780   -0.993599
   5 C     6.0000    0    12.011   -1.074309   -1.083890   -0.656793
   6 C     6.0000    0    12.011    1.203302   -5.154171   -0.273613
   7 C     6.0000    0    12.011    0.996944    5.596311   -1.682518
   8 F     9.0000    0    18.998    5.640889   -2.262815   -1.301776
   9 F     9.0000    0    18.998    5.565036    2.681087   -1.974084
  10 S    16.0000    0    32.060   -1.650392    7.215806   -0.588158
  11 C     6.0000    0    12.011    2.009686    9.796794   -2.455151
  12 C     6.0000    0    12.011    2.752632    7.265392   -2.619935
  13 C     6.0000    0    12.011   -0.820084   -6.786441   -0.379608
  14 C     6.0000    0    12.011   -0.220852   -9.269787    0.283572
  15 C     6.0000    0    12.011    2.280540   -9.588659    0.934999
  16 S    16.0000    0    32.060    3.915909   -6.755336    0.658154
  17 C     6.0000    0    12.011    3.580577  -11.779721    1.823019
  18 S    16.0000    0    32.060    6.377145  -11.356234    3.503647
  19 C     6.0000    0    12.011    6.692087  -14.589895    3.941005
  20 C     6.0000    0    12.011    4.732177  -15.873359    2.807925
  21 C     6.0000    0    12.011    2.962070  -14.316036    1.600504
  22 C     6.0000    0    12.011    0.705076  -15.284861    0.186440
  23 C     6.0000    0    12.011    0.921128  -18.052799   -0.587724
  24 C     6.0000    0    12.011    8.790137  -15.544415    5.360888
  25 C     6.0000    0    12.011   10.632091  -13.883213    6.359155
  26 C     6.0000    0    12.011   12.739286  -14.703014    7.820235
  27 C     6.0000    0    12.011   13.147429  -17.290200    8.386756
  28 C     6.0000    0    12.011   11.323182  -18.880197    7.369157
  29 C     6.0000    0    12.011    9.251230  -18.061757    5.933381
  30 N     7.0000    0    14.007   10.778828  -11.367326    6.159600
  31 N     7.0000    0    14.007   12.816557  -10.767452    7.405969
  32 N     7.0000    0    14.007   14.064362  -12.630514    8.434452
  33 C     6.0000    0    12.011   13.627344   -8.198331    7.624459
  34 F     9.0000    0    18.998    7.665995  -19.880845    5.113656
  35 F     9.0000    0    18.998   11.492464  -21.394043    7.761483
  36 C     6.0000    0    12.011   15.245649  -18.123948    9.877976
  37 C     6.0000    0    12.011   17.065947  -16.632330   10.981161
  38 C     6.0000    0    12.011   18.886377  -17.998961   12.348321
  39 C     6.0000    0    12.011   18.453988  -20.555572   12.285469
  40 S    16.0000    0    32.060   15.800359  -21.298933   10.546505
  41 C     6.0000    0    12.011   21.050793  -16.821189   13.726838
  42 C     6.0000    0    12.011   19.985479  -22.567374   13.510503
  43 C     6.0000    0    12.011  -18.185553   29.120226   17.234926
  44 C     6.0000    0    12.011  -18.058450   31.681542   17.885445
  45 C     6.0000    0    12.011  -19.077692   32.593184   20.116324
  46 C     6.0000    0    12.011  -20.287004   31.004623   21.851319
  47 C     6.0000    0    12.011  -20.465318   28.452397   21.159018
  48 C     6.0000    0    12.011  -19.464198   27.552131   18.948000
  49 C     6.0000    0    12.011  -17.030665   28.070162   15.006088
  50 C     6.0000    0    12.011  -21.250216   31.847800   24.253917
  51 F     9.0000    0    18.998  -16.916696   33.359506   16.346660
  52 F     9.0000    0    18.998  -18.828532   35.083465   20.587867
  53 S    16.0000    0    32.060  -22.195400   29.603410   26.470452
  54 C     6.0000    0    12.011  -22.476988   34.288079   27.693483
  55 C     6.0000    0    12.011  -21.533713   34.242215   25.224934
  56 C     6.0000    0    12.011  -15.396279   29.134172   13.283962
  57 C     6.0000    0    12.011  -14.536378   27.437690   11.457428
  58 C     6.0000    0    12.011  -15.502085   25.029423   11.711729
  59 S    16.0000    0    32.060  -17.544558   24.897387   14.278922
  60 C     6.0000    0    12.011  -14.872976   22.868672   10.241824
  61 S    16.0000    0    32.060  -12.361133   23.077676    8.117092
  62 C     6.0000    0    12.011  -12.657669   19.900952    7.345328
  63 C     6.0000    0    12.011  -14.639916   18.813717    8.636086
  64 C     6.0000    0    12.011  -15.903652   20.456172   10.278920
  65 C     6.0000    0    12.011  -18.094354   19.710127   11.907089
  66 C     6.0000    0    12.011  -19.104073   17.064170   11.388132
  67 C     6.0000    0    12.011  -10.875582   18.747028    5.670312
  68 C     6.0000    0    12.011   -8.951973   20.178099    4.483980
  69 C     6.0000    0    12.011   -7.025567   19.089144    2.947255
  70 C     6.0000    0    12.011   -6.886994   16.449631    2.509707
  71 C     6.0000    0    12.011   -8.841934   15.101217    3.632507
  72 C     6.0000    0    12.011  -10.741336   16.181876    5.124899
  73 N     7.0000    0    14.007   -8.537688   22.671177    4.564445
  74 N     7.0000    0    14.007   -6.528040   23.007208    3.179332
  75 N     7.0000    0    14.007   -5.535348   20.985579    2.171012
  76 C     6.0000    0    12.011   -5.480754   25.467631    2.786118
  77 F     9.0000    0    18.998  -12.458190   14.564422    6.085391
  78 F     9.0000    0    18.998   -8.951444   12.573784    3.332778
  79 C     6.0000    0    12.011   -4.863172   15.305950    1.131870
  80 C     6.0000    0    12.011   -2.918625   16.516244   -0.108092
  81 C     6.0000    0    12.011   -1.124368   14.892667   -1.176392
  82 C     6.0000    0    12.011   -1.690738   12.369259   -0.738694
  83 S    16.0000    0    32.060   -4.488893   12.052617    0.952195
  84 C     6.0000    0    12.011    1.113653   15.850494   -2.601737
  85 C     6.0000    0    12.011   -0.332743   10.127666   -1.366366
  86 C     6.0000    0    12.011  -28.623379   13.429339   54.822448
  87 C     6.0000    0    12.011  -28.351845   10.819325   54.489837
  88 C     6.0000    0    12.011  -28.539513    9.137317   56.481665
  89 C     6.0000    0    12.011  -29.016858    9.939827   58.954315
  90 C     6.0000    0    12.011  -29.292342   12.555813   59.281427
  91 C     6.0000    0    12.011  -29.104674   14.226047   57.305869
  92 C     6.0000    0    12.011  -28.407346   15.197820   52.766199
  93 C     6.0000    0    12.011  -29.211878    8.206967   61.052837
  94 F     9.0000    0    18.998  -27.889296    9.857681   52.177833
  95 F     9.0000    0    18.998  -28.248325    6.663363   55.961840
  96 S    16.0000    0    32.060  -28.660021    4.980430   60.714935
  97 C     6.0000    0    12.011  -29.234139    4.468824   63.853733
  98 C     6.0000    0    12.011  -29.825264    6.635169   65.105771
  99 C     6.0000    0    12.011  -29.812660    8.762055   63.519138
 100 C     6.0000    0    12.011  -28.648532   17.793605   52.851161
 101 C     6.0000    0    12.011  -28.299688   18.965310   50.522225
 102 C     6.0000    0    12.011  -27.778917   17.300405   48.579587
 103 S    16.0000    0    32.060  -27.740877   14.220624   49.700345
 104 C     6.0000    0    12.011  -27.296111   17.938547   46.015020
 105 S    16.0000    0    32.060  -27.270524   21.119693   45.148789
 106 C     6.0000    0    12.011  -26.540542   20.344206   42.044139
 107 C     6.0000    0    12.011  -26.364117   17.762934   41.750627
 108 C     6.0000    0    12.011  -26.786093   16.380203   43.965575
 109 C     6.0000    0    12.011  -26.698977   13.557954   44.130207
 110 C     6.0000    0    12.011  -26.202735   12.239586   41.619517
 111 C     6.0000    0    12.011  -26.182552   22.301357   40.212616
 112 C     6.0000    0    12.011  -26.547761   24.877016   40.838078
 113 C     6.0000    0    12.011  -26.173916   26.896189   39.093879
 114 C     6.0000    0    12.011  -25.383009   26.462081   36.571133
 115 C     6.0000    0    12.011  -25.054480   23.917791   36.004631
 116 C     6.0000    0    12.011  -25.434977   21.939664   37.721371
 117 N     7.0000    0    14.007  -27.268011   25.898905   43.035980
 118 N     7.0000    0    14.007  -27.311021   28.324141   42.603932
 119 N     7.0000    0    14.007  -26.689018   29.048020   40.328343
 120 C     6.0000    0    12.011  -28.008311   30.088541   44.528807
 121 F     9.0000    0    18.998  -25.009883   19.593040   36.828022
 122 F     9.0000    0    18.998  -24.310798   23.243518   33.663392
 123 C     6.0000    0    12.011  -24.942779   28.469045   34.815710
 124 C     6.0000    0    12.011  -25.270967   31.021007   35.224911
 125 C     6.0000    0    12.011  -24.640895   32.550079   33.160725
 126 C     6.0000    0    12.011  -23.800288   31.145540   31.111468
 127 S    16.0000    0    32.060  -23.829976   27.929075   31.778863
 128 C     6.0000    0    12.011  -24.884405   35.359592   33.232818
 129 C     6.0000    0    12.011  -22.929464   31.921159   28.682282
 130 H     1.0000    0     1.008   -2.889221    2.486124   -0.895711
 131 H     1.0000    0     1.008   -2.818583   -2.064110   -0.279302
 132 H     1.0000    0     1.008    3.184699   11.320178   -3.093538
 133 H     1.0000    0     1.008    4.529863    6.693334   -3.417078
 134 H     1.0000    0     1.008   -2.686605   -6.219410   -0.947036
 135 H     1.0000    0     1.008   -1.602544  -10.752409    0.354796
 136 H     1.0000    0     1.008    4.584362  -17.894648    2.848573
 137 H     1.0000    0     1.008    0.446901  -14.126043   -1.504430
 138 H     1.0000    0     1.008   -0.978141  -15.050081    1.367349
 139 H     1.0000    0     1.008    2.646354  -18.372541   -1.657252
 140 H     1.0000    0     1.008   -0.680660  -18.568921   -1.768311
 141 H     1.0000    0     1.008    0.923925  -19.284523    1.055658
 142 H     1.0000    0     1.008   12.328384   -7.037151    6.534938
 143 H     1.0000    0     1.008   15.543697   -8.005711    6.893589
 144 H     1.0000    0     1.008   13.609278   -7.619432    9.602379
 145 H     1.0000    0     1.008   17.059843  -14.611287   10.791697
 146 H     1.0000    0     1.008   21.018479  -14.781929   13.494005
 147 H     1.0000    0     1.008   22.842405  -17.542914   13.013391
 148 H     1.0000    0     1.008   20.952036  -17.260721   15.736411
 149 H     1.0000    0     1.008   21.919085  -22.535929   12.796734
 150 H     1.0000    0     1.008   19.174314  -24.417473   13.140778
 151 H     1.0000    0     1.008   20.065301  -22.272067   15.549026
 152 H     1.0000    0     1.008  -21.407914   27.164057   22.428101
 153 H     1.0000    0     1.008  -19.630154   25.567144   18.511379
 154 H     1.0000    0     1.008  -22.782179   36.014646   28.711082
 155 H     1.0000    0     1.008  -21.081634   35.932387   24.195789
 156 H     1.0000    0     1.008  -14.804738   31.074316   13.347740
 157 H     1.0000    0     1.008  -13.229349   27.929113    9.980324
 158 H     1.0000    0     1.008  -15.155150   16.867450    8.408242
 159 H     1.0000    0     1.008  -19.618173   21.083221   11.640770
 160 H     1.0000    0     1.008  -17.516514   19.835964   13.890451
 161 H     1.0000    0     1.008  -19.690058   16.878032    9.427617
 162 H     1.0000    0     1.008  -20.733376   16.702647   12.586993
 163 H     1.0000    0     1.008  -17.680788   15.640054   11.794858
 164 H     1.0000    0     1.008   -6.576889   26.801362    3.900017
 165 H     1.0000    0     1.008   -5.578472   25.964402    0.788205
 166 H     1.0000    0     1.008   -3.508333   25.490232    3.379794
 167 H     1.0000    0     1.008   -2.815597   18.541766   -0.210478
 168 H     1.0000    0     1.008    0.978387   17.889055   -2.813651
 169 H     1.0000    0     1.008    1.208385   14.996885   -4.471905
 170 H     1.0000    0     1.008    2.857398   15.415214   -1.596365
 171 H     1.0000    0     1.008  -29.653110   13.282072   61.148798
 172 H     1.0000    0     1.008  -29.327945   16.215381   57.676671
 173 H     1.0000    0     1.008  -29.103842    2.588433   64.595375
 174 H     1.0000    0     1.008  -30.253948    6.712855   67.090569
 175 H     1.0000    0     1.008  -30.243782   10.630900   64.186419
 176 H     1.0000    0     1.008  -29.066860   18.828438   54.547682
 177 H     1.0000    0     1.008  -28.413620   20.973503   50.231188
 178 H     1.0000    0     1.008  -25.939137   16.893263   39.970467
 179 H     1.0000    0     1.008  -28.494028   12.882187   44.906129
 180 H     1.0000    0     1.008  -25.228940   13.015716   45.481891
 181 H     1.0000    0     1.008  -27.667386   12.692761   40.251318
 182 H     1.0000    0     1.008  -26.194628   10.204880   41.905320
 183 H     1.0000    0     1.008  -24.378998   12.788249   40.848641
 184 H     1.0000    0     1.008  -28.416700   29.023094   46.237271
 185 H     1.0000    0     1.008  -29.672007   31.151342   43.938211
 186 H     1.0000    0     1.008  -26.462137   31.408552   44.863742
 187 H     1.0000    0     1.008  -25.953442   31.737799   36.998116
 188 H     1.0000    0     1.008  -25.760595   35.934068   34.999296
 189 H     1.0000    0     1.008  -26.043865   36.031503   31.670997
 190 H     1.0000    0     1.008  -23.034080   36.253961   33.102692

--------------------------------
INTERNAL COORDINATES (ANGSTROEM)
--------------------------------
 C      0   0   0     0.000000000000     0.00000000     0.00000000
 C      1   0   0     1.399225918606     0.00000000     0.00000000
 C      2   1   0     1.383713807621   121.96710126     0.00000000
 C      3   2   1     1.398966651425   121.59553629     0.87012013
 C      4   3   2     1.401581334636   116.24338172   358.81204147
 C      5   4   3     1.372124169818   122.16177547     0.51766856
 C      1   2   3     1.441777617249   122.68554442   181.74605733
 C      4   3   2     1.441952141023   122.98014850   176.54319118
 F      2   1   3     1.347095890796   120.14925050   180.05320978
 F      3   2   1     1.347388564706   117.72429112   179.39708148
 S      8   4   3     1.741369064903   119.27095620   199.39659568
 C      8   4   3     2.322760552877   163.75808220    13.33727221
 C      8   4   3     1.374539736094   130.37010096    17.52624220
 C      7   1   2     1.376840643866   127.32911080   196.40616051
 C     14   7   1     1.396656346601   113.79587808   183.10880593
 C     15  14   7     1.378199480627   113.33523900     0.52107093
 S     16  15  14     1.737345635992   110.58879055   358.89992008
 C     16  15  14     1.427742098735   130.13095705   176.74632616
 S     18  16  15     1.741036773563   118.23997198   202.25123442
 C     19  18  16     1.734784430873    91.30890763   178.48602131
 C     20  19  18     1.377122003310   110.85706879     0.59849350
 C     18  16  15     1.386500565489   130.12259265    21.27463925
 C     22  18  16     1.499750188865   124.14410961     2.92483965
 C     23  22  18     1.525232713621   113.74095666   159.31749086
 C     20  19  18     1.432594096944   119.48601821   181.30053753
 C     25  20  19     1.414885780160   120.70710935   358.59890219
 C     26  25  20     1.424568372420   123.55054730   178.94984722
 C     27  26  25     1.418062569459   121.86811104     0.02754126
 C     28  27  26     1.389175739315   113.38869429     0.42124615
 C     25  20  19     1.387753002843   126.10070472   177.88851444
 N     26  25  20     1.337786868302   128.96359591   358.96183860
 N     31  26  25     1.303283690721   104.50561149   180.05902864
 N     32  31  26     1.305448754528   116.45775094   359.90651558
 C     32  31  26     1.430295954444   121.37378939   179.90117467
 F     30  25  20     1.348519643795   120.37265974     0.73915026
 F     29  28  27     1.349349755030   119.42851756   179.81685181
 C     28  27  26     1.431852130389   122.14784888   180.71710892
 C     37  28  27     1.375394766931   126.88224149     1.41603622
 C     38  37  28     1.405139603705   113.78537547   179.64861399
 C     39  38  37     1.372515447527   112.36782178     0.08128935
 S     40  39  38     1.724365037601   111.93507635   359.91716740
 C     39  38  37     1.494132243980   124.21037276   180.23797862
 C     40  39  38     1.486745093316   127.18479072   179.92652076
 C     11   8   4    17.316934977305   156.49797669   122.78525275
 C     44  11   8     1.400038262799   139.25821500    47.67661262
 C     45  44  11     1.384662177898   121.88452797   206.90772268
 C     46  45  44     1.399687941971   121.87652761     0.17930342
 C     47  46  45     1.402562821588   115.96042678   358.25713681
 C     48  47  46     1.369875911643   122.13761372     1.52796458
 C     44  11   8     1.439917897312    23.23555351   104.31405773
 C     47  46  45     1.440606733359   123.68677139   176.47666736
 F     45  44  11     1.347794941302   120.71607833    26.62702860
 F     46  45  44     1.347681892510   117.41468475   179.11906455
 S     51  47  46     1.742567661498   118.98023483   191.46880135
 C     51  47  46     2.324199493933   164.16540620     5.74499205
 C     51  47  46     1.375501338022   130.81249124     9.65222357
 C     50  44  11     1.376781984557   130.61553361   229.62371743
 C     57  50  44     1.395434248827   113.59232695   175.49115782
 C     58  57  50     1.379621725619   113.94896154     0.52549813
 S     59  58  57     1.737411164866   110.11145928     0.41218297
 C     59  58  57     1.422418162883   127.05018641   183.93684790
 S     61  59  58     1.744481869697   118.67365149     8.37442524
 C     62  61  59     1.737050243631    91.22314918   176.08954314
 C     63  62  61     1.377634508424   110.87804457     1.49612319
 C     61  59  58     1.388404514038   129.75269530   185.30279640
 C     65  61  59     1.497365488149   123.69012543     3.29715672
 C     66  65  61     1.523620044237   114.21055594   172.71589392
 C     63  62  61     1.431035619019   119.93680726   184.56554965
 C     68  63  62     1.415548429903   121.35252691   355.82783016
 C     69  68  63     1.425677049896   123.42982817   175.32878300
 C     70  69  68     1.417728638845   121.89460978   359.45006864
 C     71  70  69     1.390104545781   113.41702192     2.36272865
 C     68  63  62     1.389581678924   125.39214047   172.59416314
 N     69  68  63     1.338048791225   129.13749045   356.12805046
 N     74  69  68     1.303768439908   104.49109433   179.37448868
 N     75  74  69     1.305806361028   116.49527947   359.86985626
 C     75  74  69     1.430258342538   121.46725128   179.66920816
 F     73  68  63     1.347718824421   120.50371058     3.81815084
 F     72  71  70     1.348078108345   119.40407294   179.10800802
 C     71  70  69     1.429982671259   122.61437087   184.79969831
 C     80  71  70     1.378258516135   127.24524542   354.69489910
 C     81  80  71     1.399733859846   114.42440031   176.51729633
 C     82  81  80     1.388013010530   112.12569456   359.66998826
 S     80  71  70     1.735551813718   122.22361346   171.49521093
 C     82  81  80     1.492784439663   122.26345835   179.79013320
 C     12   8   4     1.378087750218    80.81977910   186.22420537
 C     54  51  47    17.604630354171   163.83586712   147.13813734
 C     87  54  51     1.399724716435   110.65425917   212.52527779
 C     88  87  54     1.383142842732   122.12639247   174.35918778
 C     89  88  87     1.398658324896   122.03876681     0.10575876
 C     90  89  88     1.402696432162   115.71317943     0.00000000
 C     91  90  89     1.372572866918   122.27540765   359.95281081
 C     87  54  51     1.439746749397    12.72174223    52.12169702
 C     90  89  88     1.443852118536   122.65623416   180.14760771
 F     88  87  54     1.347488619210   120.36196887   354.42571332
 F     89  88  87     1.346592974919   117.49968915   180.00457060
 S     94  90  89     1.741408465898   122.12310856     4.35639015
 C     97  94  90     1.710102280391    91.47249789   179.54661390
 C     98  97  94     1.360518174447   112.36137515     0.18992380
 C     94  90  89     1.375015791218   127.65215210   184.00111786
 C     93  87  88     1.380279028095   127.94553037   179.61078399
 C    101  93  87     1.391900074718   113.71658425   179.25767898
 C    102 101  93     1.381644743521   113.65236180   359.97640377
 S    103 102 101     1.734426177674   110.30858697     0.23498045
 C    103 102 101     1.421638923321   126.48734059   181.08879401
 S    105 103 102     1.744736832820   118.77559307     1.48280490
 C    106 105 103     1.736887091638    91.27653405   178.73875866
 C    107 106 105     1.377918645821   110.84897518     0.55200437
 C    105 103 102     1.388904378314   129.73901865   180.69580145
 C    109 105 103     1.496718993432   123.57166367     1.16288002
 C    110 109 105     1.523434357792   114.29894728   177.80523142
 C    107 106 105     1.431037810821   119.93878761   181.28539111
 C    112 107 106     1.415843094555   121.35308229   356.44520720
 C    113 112 107     1.425741736431   123.44778825   178.90795528
 C    114 113 112     1.417783565887   121.94453253   359.63344570
 C    115 114 113     1.390262915890   113.38217445     0.71638614
 C    112 107 106     1.389631093528   125.48672848   175.56467055
 N    113 112 107     1.338074797461   129.13284382   358.92646881
 N    118 113 112     1.303784460292   104.49854513   180.00949345
 N    119 118 113     1.305813249358   116.49182904   359.96162504
 C    119 118 113     1.430195064493   121.48185942   179.87163360
 F    117 112 107     1.347628724278   120.47920308     0.85189849
 F    116 115 114     1.348011369611   119.40797636   179.82584649
 C    115 114 113     1.430073518425   122.64212087   181.49372179
 C    124 115 114     1.378672924990   127.22126639   357.84741094
 C    125 124 115     1.399662674111   114.43633816   178.86733881
 C    126 125 124     1.387898061026   112.11906880   359.84486281
 S    124 115 114     1.735211988605   122.31500260   176.83996449
 C    126 125 124     1.492791484100   122.36077975   179.60104304
 C     55  51  47     1.378378912527    80.84707610   185.65057744
 H      5   4   3     1.079423450412   118.31886840   180.04396656
 H      6   5   4     1.077473202729   119.23257289   178.87501896
 H     12   8   4     1.072663440274   155.28096649     4.68878452
 H     13   8   4     1.074273600253   123.52947613     2.43701564
 H     14   7   1     1.075076218182   123.41935550     4.02054146
 H     15  14   7     1.073110230405   122.82315683   177.90414939
 H     21  20  19     1.072691937557   122.54500414   179.52599528
 H     23  22  18     1.093305604897   108.42831510    37.68604201
 H     23  22  18     1.095139353735   108.91875865   280.91605210
 H     24  23  22     1.087395228700   110.61958416   305.49991634
 H     24  23  22     1.087828671667   109.69152884   185.92899123
 H     24  23  22     1.086793062179   111.16965621    66.47559999
 H     34  32  31     1.087416455550   107.73605147   357.27748640
 H     34  32  31     1.090115384076   109.83117081   237.09673377
 H     34  32  31     1.090620776485   109.99487247   117.36687447
 H     38  37  28     1.074184044100   121.98273146   359.68393516
 H     42  39  38     1.086275596246   110.30047636   359.24094439
 H     42  39  38     1.089612327573   110.58670692   238.81821615
 H     42  39  38     1.089812512362   110.52533286   119.57392316
 H     43  40  39     1.090834956398   110.45153709   300.08565863
 H     43  40  39     1.086753985914   110.56539487   179.63072293
 H     43  40  39     1.090818279137   110.47043723    59.12654659
 H     48  47  46     1.079168384683   118.48192461   180.89199801
 H     49  48  47     1.079100376703   119.33567177   179.22561228
 H     55  51  47     1.072766668805   155.27858615     4.06691906
 H     56  51  47     1.074137567028   123.59614542     2.06656314
 H     57  50  44     1.073870879482   123.59381894   356.53860672
 H     58  57  50     1.075631185630   123.88264640   180.93085497
 H     64  63  62     1.072198840607   122.61757508   179.22682913
 H     66  65  61     1.094557414620   108.73871435    50.51669570
 H     66  65  61     1.095212691216   108.61618457   294.66928980
 H     67  66  65     1.087281614716   110.80890364   301.86161181
 H     67  66  65     1.087403862555   109.54711804   182.38385363
 H     67  66  65     1.086976096287   111.00527743    62.98675919
 H     77  75  74     1.087214198491   107.77886235     3.32365472
 H     77  75  74     1.090668318509   110.00291683   243.26136924
 H     77  75  74     1.090080035961   109.82063751   123.55250210
 H     81  80  71     1.074612377744   121.69377554   357.01268600
 H     85  82  81     1.086932478860   109.68628050   354.13884278
 H     85  82  81     1.089018853602   110.78425142   234.11320904
 H     85  82  81     1.089756559283   110.69125259   113.72861829
 H     91  90  89     1.077324667591   118.92547724   180.31287023
 H     92  91  90     1.077339340691   118.85262585   180.20640548
 H     98  97  94     1.071878424869   119.41707417   180.10064987
 H     99  98  97     1.075314861192   123.80561565   179.85686301
 H    100  94  90     1.074596033028   123.88856335     0.72970415
 H    101  93  87     1.074641524696   123.59915258   359.23425966
 H    102 101  93     1.075483147381   124.02278822   180.12239323
 H    108 107 106     1.072273489647   122.59527072   179.61445542
 H    110 109 105     1.094888181505   108.72379662    55.67111268
 H    110 109 105     1.095036077077   108.74580191   299.96974387
 H    111 110 109     1.087396799747   110.90498241   300.14691888
 H    111 110 109     1.087298441137   109.44261360   180.73566578
 H    111 110 109     1.087236683938   110.97307182    61.33326686
 H    121 119 118     1.087173350759   107.75757803     0.68352161
 H    121 119 118     1.090443286512   109.93068388   240.56271171
 H    121 119 118     1.090318966175   109.90179546   120.85484190
 H    125 124 115     1.074610326677   121.68360178   358.97134117
 H    129 126 125     1.086834966313   109.71746569   354.67671195
 H    129 126 125     1.089012386339   110.75735324   234.63882346
 H    129 126 125     1.089711145442   110.69388899   114.30957559

---------------------------
INTERNAL COORDINATES (A.U.)
---------------------------
 C      0   0   0     0.000000000000     0.00000000     0.00000000
 C      1   0   0     2.644153785651     0.00000000     0.00000000
 C      2   1   0     2.614840144128   121.96710126     0.00000000
 C      3   2   1     2.643663841683   121.59553629     0.87012013
 C      4   3   2     2.648604876878   116.24338172   358.81204147
 C      5   4   3     2.592938902691   122.16177547     0.51766856
 C      1   2   3     2.724564842618   122.68554442   181.74605733
 C      4   3   2     2.724894644754   122.98014850   176.54319118
 F      2   1   3     2.545642309736   120.14925050   180.05320978
 F      3   2   1     2.546195383271   117.72429112   179.39708148
 S      8   4   3     3.290710630749   119.27095620   199.39659568
 C      8   4   3     4.389381319612   163.75808220    13.33727221
 C      8   4   3     2.597503661409   130.37010096    17.52624220
 C      7   1   2     2.601851746958   127.32911080   196.40616051
 C     14   7   1     2.639297998278   113.79587808   183.10880593
 C     15  14   7     2.604419576297   113.33523900     0.52107093
 S     16  15  14     3.283107451988   110.58879055   358.89992008
 C     16  15  14     2.698041556479   130.13095705   176.74632616
 S     18  16  15     3.290082691121   118.23997198   202.25123442
 C     19  18  16     3.278267475741    91.30890763   178.48602131
 C     20  19  18     2.602383439253   110.85706879     0.59849350
 C     18  16  15     2.620106353300   130.12259265    21.27463925
 C     22  18  16     2.834117126251   124.14410961     2.92483965
 C     23  22  18     2.882272119241   113.74095666   159.31749086
 C     20  19  18     2.707210504297   119.48601821   181.30053753
 C     25  20  19     2.673746635283   120.70710935   358.59890219
 C     26  25  20     2.692044082920   123.55054730   178.94984722
 C     27  26  25     2.679749897042   121.86811104     0.02754126
 C     28  27  26     2.625161699192   113.38869429     0.42124615
 C     25  20  19     2.622473116900   126.10070472   177.88851444
 N     26  25  20     2.528050806646   128.96359591   358.96183860
 N     31  26  25     2.462849250269   104.50561149   180.05902864
 N     32  31  26     2.466940627927   116.45775094   359.90651558
 C     32  31  26     2.702867644355   121.37378939   179.90117467
 F     30  25  20     2.548332812985   120.37265974     0.73915026
 F     29  28  27     2.549901495881   119.42851756   179.81685181
 C     28  27  26     2.705808390707   122.14784888   180.71710892
 C     37  28  27     2.599119435527   126.88224149     1.41603622
 C     38  37  28     2.655329030929   113.78537547   179.64861399
 C     39  38  37     2.593678310402   112.36782178     0.08128935
 S     40  39  38     3.258577675974   111.93507635   359.91716740
 C     39  38  37     2.823500748983   124.21037276   180.23797862
 C     40  39  38     2.809541057319   127.18479072   179.92652076
 C     11   8   4    32.724264586028   156.49797669   122.78525275
 C     44  11   8     2.645688893700   139.25821500    47.67661262
 C     45  44  11     2.616632304225   121.88452797   206.90772268
 C     46  45  44     2.645026883278   121.87652761     0.17930342
 C     47  46  45     2.650459618421   115.96042678   358.25713681
 C     48  47  46     2.588690310461   122.13761372     1.52796458
 C     44  11   8     2.721050481252    23.23555351   104.31405773
 C     47  46  45     2.722352192732   123.68677139   176.47666736
 F     45  44  11     2.546963323746   120.71607833    26.62702860
 F     46  45  44     2.546749692489   117.41468475   179.11906455
 S     51  47  46     3.292975650060   118.98023483   191.46880135
 C     51  47  46     4.392100524132   164.16540620     5.74499205
 C     51  47  46     2.599320825704   130.81249124     9.65222357
 C     50  44  11     2.601740896929   130.61553361   229.62371743
 C     57  50  44     2.636988568178   113.59232695   175.49115782
 C     58  57  50     2.607107229828   113.94896154     0.52549813
 S     59  58  57     3.283231283613   110.11145928     0.41218297
 C     59  58  57     2.687980775765   127.05018641   183.93684790
 S     61  59  58     3.296592979317   118.67365149     8.37442524
 C     62  61  59     3.282549241325    91.22314918   176.08954314
 C     63  62  61     2.603351933560   110.87804457     1.49612319
 C     61  59  58     2.623704294631   129.75269530   185.30279640
 C     65  61  59     2.829610694987   123.69012543     3.29715672
 C     66  65  61     2.879224615760   114.21055594   172.71589392
 C     63  62  61     2.704265407832   119.93680726   184.56554965
 C     68  63  62     2.674998861818   121.35252691   355.82783016
 C     69  68  63     2.694139179720   123.42982817   175.32878300
 C     70  69  68     2.679118859633   121.89460978   359.45006864
 C     71  70  69     2.626916889044   113.41702192     2.36272865
 C     68  63  62     2.625928813880   125.39214047   172.59416314
 N     69  68  63     2.528545769241   129.13749045   356.12805046
 N     74  69  68     2.463765293476   104.49109433   179.37448868
 N     75  74  69     2.467616406274   116.49527947   359.86985626
 C     75  74  69     2.702796568153   121.46725128   179.66920816
 F     73  68  63     2.546819483687   120.50371058     3.81815084
 F     72  71  70     2.547498431907   119.40407294   179.10800802
 C     71  70  69     2.702275624932   122.61437087   184.79969831
 C     80  71  70     2.604531137241   127.24524542   354.69489910
 C     81  80  71     2.645113655486   114.42440031   176.51729633
 C     82  81  80     2.622964460221   112.12569456   359.66998826
 S     80  71  70     3.279717619157   122.22361346   171.49521093
 C     82  81  80     2.820953767942   122.26345835   179.79013320
 C     12   8   4     2.604208436423    80.81977910   186.22420537
 C     54  51  47    33.267930058300   163.83586712   147.13813734
 C     87  54  51     2.645096376943   110.65425917   212.52527779
 C     88  87  54     2.613761176856   122.12639247   174.35918778
 C     89  88  87     2.643081188982   122.03876681     0.10575876
 C     90  89  88     2.650712105815   115.71317943     0.00000000
 C     91  90  89     2.593786817327   122.27540765   359.95281081
 C     87  54  51     2.720727058564    12.72174223    52.12169702
 C     90  89  88     2.728485081914   122.65623416   180.14760771
 F     88  87  54     2.546384458882   120.36196887   354.42571332
 F     89  88  87     2.544691936458   117.49968915   180.00457060
 S     94  90  89     3.290785087838   122.12310856     4.35639015
 C     97  94  90     3.231624970934    91.47249789   179.54661390
 C     98  97  94     2.571006749927   112.36137515     0.18992380
 C     94  90  89     2.598403275220   127.65215210   184.00111786
 C     93  87  88     2.608349351495   127.94553037   179.61078399
 C    101  93  87     2.630309947002   113.71658425   179.25767898
 C    102 101  93     2.610930179627   113.65236180   359.97640377
 S    103 102 101     3.277590475307   110.30858697     0.23498045
 C    103 102 101     2.686508226399   126.48734059   181.08879401
 S    105 103 102     3.297074789796   118.77559307     1.48280490
 C    106 105 103     3.282240928740    91.27653405   178.73875866
 C    107 106 105     2.603888875425   110.84897518     0.55200437
 C    105 103 102     2.624648901218   129.73901865   180.69580145
 C    109 105 103     2.828388997025   123.57166367     1.16288002
 C    110 109 105     2.878873719232   114.29894728   177.80523142
 C    107 106 105     2.704269549738   119.93878761   181.28539111
 C    112 107 106     2.675555697313   121.35308229   356.44520720
 C    113 112 107     2.694261419555   123.44778825   178.90795528
 C    114 113 112     2.679222656701   121.94453253   359.63344570
 C    115 114 113     2.627216165180   113.38217445     0.71638614
 C    112 107 106     2.626022193950   125.48672848   175.56467055
 N    113 112 107     2.528594913903   129.13284382   358.92646881
 N    118 113 112     2.463795567615   104.49854513   180.00949345
 N    119 118 113     2.467629423333   116.49182904   359.96162504
 C    119 118 113     2.702676989978   121.48185942   179.87163360
 F    117 112 107     2.546649219092   120.47920308     0.85189849
 F    116 115 114     2.547372313977   119.40797636   179.82584649
 C    115 114 113     2.702447301196   122.64212087   181.49372179
 C    124 115 114     2.605314256483   127.22126639   357.84741094
 C    125 124 115     2.644979133942   114.43633816   178.86733881
 C    126 125 124     2.622747237140   112.11906880   359.84486281
 S    124 115 114     3.279075442761   122.31500260   176.83996449
 C    126 125 124     2.820967079998   122.36077975   179.60104304
 C     55  51  47     2.604758653449    80.84707610   185.65057744
 H      5   4   3     2.039814703812   118.31886840   180.04396656
 H      6   5   4     2.036129269798   119.23257289   178.87501896
 H     12   8   4     2.027040135987   155.28096649     4.68878452
 H     13   8   4     2.030082897379   123.52947613     2.43701564
 H     14   7   1     2.031599625455   123.41935550     4.02054146
 H     15  14   7     2.027884446975   122.82315683   177.90414939
 H     21  20  19     2.027093988048   122.54500414   179.52599528
 H     23  22  18     2.066048173937   108.42831510    37.68604201
 H     23  22  18     2.069513457039   108.91875865   280.91605210
 H     24  23  22     2.054879181576   110.61958416   305.49991634
 H     24  23  22     2.055698270077   109.69152884   185.92899123
 H     24  23  22     2.053741251764   111.16965621    66.47559999
 H     34  32  31     2.054919294508   107.73605147   357.27748640
 H     34  32  31     2.060019530279   109.83117081   237.09673377
 H     34  32  31     2.060974583521   109.99487247   117.36687447
 H     38  37  28     2.029913660778   121.98273146   359.68393516
 H     42  39  38     2.052763382867   110.30047636   359.24094439
 H     42  39  38     2.059068891258   110.58670692   238.81821615
 H     42  39  38     2.059447185684   110.52533286   119.57392316
 H     43  40  39     2.061379324900   110.45153709   300.08565863
 H     43  40  39     2.053667408325   110.56539487   179.63072293
 H     43  40  39     2.061347809445   110.47043723    59.12654659
 H     48  47  46     2.039332699438   118.48192461   180.89199801
 H     49  48  47     2.039204182979   119.33567177   179.22561228
 H     55  51  47     2.027235209641   155.27858615     4.06691906
 H     56  51  47     2.029825831839   123.59614542     2.06656314
 H     57  50  44     2.029321865415   123.59381894   356.53860672
 H     58  57  50     2.032648361946   123.88264640   180.93085497
 H     64  63  62     2.026162169856   122.61757508   179.22682913
 H     66  65  61     2.068413751485   108.73871435    50.51669570
 H     66  65  61     2.069652044793   108.61618457   294.66928980
 H     67  66  65     2.054664482261   110.80890364   301.86161181
 H     67  66  65     2.054895497198   109.54711804   182.38385363
 H     67  66  65     2.054087136102   111.00527743    62.98675919
 H     77  75  74     2.054537084058   107.77886235     3.32365472
 H     77  75  74     2.061064424927   110.00291683   243.26136924
 H     77  75  74     2.059952732021   109.82063751   123.55250210
 H     81  80  71     2.030723094058   121.69377554   357.01268600
 H     85  82  81     2.054004711109   109.68628050   354.13884278
 H     85  82  81     2.057947387984   110.78425142   234.11320904
 H     85  82  81     2.059341449689   110.69125259   113.72861829
 H     91  90  89     2.035848579065   118.92547724   180.31287023
 H     92  91  90     2.035876307205   118.85262585   180.20640548
 H     98  97  94     2.025556671862   119.41707417   180.10064987
 H     99  98  97     2.032050595388   123.80561565   179.85686301
 H    100  94  90     2.030692207022   123.88856335     0.72970415
 H    101  93  87     2.030778173814   123.59915258   359.23425966
 H    102 101  93     2.032368610197   124.02278822   180.12239323
 H    108 107 106     2.026303236097   122.59527072   179.61445542
 H    110 109 105     2.069038810312   108.72379662    55.67111268
 H    110 109 105     2.069318292439   108.74580191   299.96974387
 H    111 110 109     2.054882150424   110.90498241   300.14691888
 H    111 110 109     2.054696279589   109.44261360   180.73566578
 H    111 110 109     2.054579575395   110.97307182    61.33326686
 H    121 119 118     2.054459893032   107.75757803     0.68352161
 H    121 119 118     2.060639176081   109.93068388   240.56271171
 H    121 119 118     2.060404244690   109.90179546   120.85484190
 H    125 124 115     2.030719218102   121.68360178   358.97134117
 H    129 126 125     2.053820439101   109.71746569   354.67671195
 H    129 126 125     2.057935166629   110.75735324   234.63882346
 H    129 126 125     2.059255629967   110.69388899   114.30957559

---------------------
BASIS SET INFORMATION
---------------------
There are 5 groups of distinct atoms

 Group   1 Type C   : 7s4p1d contracted to 3s2p1d pattern {511/31/1}
 Group   2 Type F   : 7s4p1d contracted to 3s2p1d pattern {511/31/1}
 Group   3 Type S   : 10s7p1d contracted to 4s3p1d pattern {5311/511/1}
 Group   4 Type N   : 7s4p1d contracted to 3s2p1d pattern {511/31/1}
 Group   5 Type H   : 4s1p contracted to 2s1p pattern {31/1}

Atom   0C    basis set group =>   1
Atom   1C    basis set group =>   1
Atom   2C    basis set group =>   1
Atom   3C    basis set group =>   1
Atom   4C    basis set group =>   1
Atom   5C    basis set group =>   1
Atom   6C    basis set group =>   1
Atom   7C    basis set group =>   1
Atom   8F    basis set group =>   2
Atom   9F    basis set group =>   2
Atom  10S    basis set group =>   3
Atom  11C    basis set group =>   1
Atom  12C    basis set group =>   1
Atom  13C    basis set group =>   1
Atom  14C    basis set group =>   1
Atom  15C    basis set group =>   1
Atom  16S    basis set group =>   3
Atom  17C    basis set group =>   1
Atom  18S    basis set group =>   3
Atom  19C    basis set group =>   1
Atom  20C    basis set group =>   1
Atom  21C    basis set group =>   1
Atom  22C    basis set group =>   1
Atom  23C    basis set group =>   1
Atom  24C    basis set group =>   1
Atom  25C    basis set group =>   1
Atom  26C    basis set group =>   1
Atom  27C    basis set group =>   1
Atom  28C    basis set group =>   1
Atom  29C    basis set group =>   1
Atom  30N    basis set group =>   4
Atom  31N    basis set group =>   4
Atom  32N    basis set group =>   4
Atom  33C    basis set group =>   1
Atom  34F    basis set group =>   2
Atom  35F    basis set group =>   2
Atom  36C    basis set group =>   1
Atom  37C    basis set group =>   1
Atom  38C    basis set group =>   1
Atom  39C    basis set group =>   1
Atom  40S    basis set group =>   3
Atom  41C    basis set group =>   1
Atom  42C    basis set group =>   1
Atom  43C    basis set group =>   1
Atom  44C    basis set group =>   1
Atom  45C    basis set group =>   1
Atom  46C    basis set group =>   1
Atom  47C    basis set group =>   1
Atom  48C    basis set group =>   1
Atom  49C    basis set group =>   1
Atom  50C    basis set group =>   1
Atom  51F    basis set group =>   2
Atom  52F    basis set group =>   2
Atom  53S    basis set group =>   3
Atom  54C    basis set group =>   1
Atom  55C    basis set group =>   1
Atom  56C    basis set group =>   1
Atom  57C    basis set group =>   1
Atom  58C    basis set group =>   1
Atom  59S    basis set group =>   3
Atom  60C    basis set group =>   1
Atom  61S    basis set group =>   3
Atom  62C    basis set group =>   1
Atom  63C    basis set group =>   1
Atom  64C    basis set group =>   1
Atom  65C    basis set group =>   1
Atom  66C    basis set group =>   1
Atom  67C    basis set group =>   1
Atom  68C    basis set group =>   1
Atom  69C    basis set group =>   1
Atom  70C    basis set group =>   1
Atom  71C    basis set group =>   1
Atom  72C    basis set group =>   1
Atom  73N    basis set group =>   4
Atom  74N    basis set group =>   4
Atom  75N    basis set group =>   4
Atom  76C    basis set group =>   1
Atom  77F    basis set group =>   2
Atom  78F    basis set group =>   2
Atom  79C    basis set group =>   1
Atom  80C    basis set group =>   1
Atom  81C    basis set group =>   1
Atom  82C    basis set group =>   1
Atom  83S    basis set group =>   3
Atom  84C    basis set group =>   1
Atom  85C    basis set group =>   1
Atom  86C    basis set group =>   1
Atom  87C    basis set group =>   1
Atom  88C    basis set group =>   1
Atom  89C    basis set group =>   1
Atom  90C    basis set group =>   1
Atom  91C    basis set group =>   1
Atom  92C    basis set group =>   1
Atom  93C    basis set group =>   1
Atom  94F    basis set group =>   2
Atom  95F    basis set group =>   2
Atom  96S    basis set group =>   3
Atom  97C    basis set group =>   1
Atom  98C    basis set group =>   1
Atom  99C    basis set group =>   1
Atom 100C    basis set group =>   1
Atom 101C    basis set group =>   1
Atom 102C    basis set group =>   1
Atom 103S    basis set group =>   3
Atom 104C    basis set group =>   1
Atom 105S    basis set group =>   3
Atom 106C    basis set group =>   1
Atom 107C    basis set group =>   1
Atom 108C    basis set group =>   1
Atom 109C    basis set group =>   1
Atom 110C    basis set group =>   1
Atom 111C    basis set group =>   1
Atom 112C    basis set group =>   1
Atom 113C    basis set group =>   1
Atom 114C    basis set group =>   1
Atom 115C    basis set group =>   1
Atom 116C    basis set group =>   1
Atom 117N    basis set group =>   4
Atom 118N    basis set group =>   4
Atom 119N    basis set group =>   4
Atom 120C    basis set group =>   1
Atom 121F    basis set group =>   2
Atom 122F    basis set group =>   2
Atom 123C    basis set group =>   1
Atom 124C    basis set group =>   1
Atom 125C    basis set group =>   1
Atom 126C    basis set group =>   1
Atom 127S    basis set group =>   3
Atom 128C    basis set group =>   1
Atom 129C    basis set group =>   1
Atom 130H    basis set group =>   5
Atom 131H    basis set group =>   5
Atom 132H    basis set group =>   5
Atom 133H    basis set group =>   5
Atom 134H    basis set group =>   5
Atom 135H    basis set group =>   5
Atom 136H    basis set group =>   5
Atom 137H    basis set group =>   5
Atom 138H    basis set group =>   5
Atom 139H    basis set group =>   5
Atom 140H    basis set group =>   5
Atom 141H    basis set group =>   5
Atom 142H    basis set group =>   5
Atom 143H    basis set group =>   5
Atom 144H    basis set group =>   5
Atom 145H    basis set group =>   5
Atom 146H    basis set group =>   5
Atom 147H    basis set group =>   5
Atom 148H    basis set group =>   5
Atom 149H    basis set group =>   5
Atom 150H    basis set group =>   5
Atom 151H    basis set group =>   5
Atom 152H    basis set group =>   5
Atom 153H    basis set group =>   5
Atom 154H    basis set group =>   5
Atom 155H    basis set group =>   5
Atom 156H    basis set group =>   5
Atom 157H    basis set group =>   5
Atom 158H    basis set group =>   5
Atom 159H    basis set group =>   5
Atom 160H    basis set group =>   5
Atom 161H    basis set group =>   5
Atom 162H    basis set group =>   5
Atom 163H    basis set group =>   5
Atom 164H    basis set group =>   5
Atom 165H    basis set group =>   5
Atom 166H    basis set group =>   5
Atom 167H    basis set group =>   5
Atom 168H    basis set group =>   5
Atom 169H    basis set group =>   5
Atom 170H    basis set group =>   5
Atom 171H    basis set group =>   5
Atom 172H    basis set group =>   5
Atom 173H    basis set group =>   5
Atom 174H    basis set group =>   5
Atom 175H    basis set group =>   5
Atom 176H    basis set group =>   5
Atom 177H    basis set group =>   5
Atom 178H    basis set group =>   5
Atom 179H    basis set group =>   5
Atom 180H    basis set group =>   5
Atom 181H    basis set group =>   5
Atom 182H    basis set group =>   5
Atom 183H    basis set group =>   5
Atom 184H    basis set group =>   5
Atom 185H    basis set group =>   5
Atom 186H    basis set group =>   5
Atom 187H    basis set group =>   5
Atom 188H    basis set group =>   5
Atom 189H    basis set group =>   5
Atom 190H    basis set group =>   5
---------------------------------
AUXILIARY/J BASIS SET INFORMATION
---------------------------------
There are 5 groups of distinct atoms

 Group   1 Type C   : 12s5p4d2f1g contracted to 6s4p3d1f1g pattern {711111/2111/211/2/1}
 Group   2 Type F   : 12s5p4d2f1g contracted to 6s4p3d1f1g pattern {711111/2111/211/2/1}
 Group   3 Type S   : 14s5p5d2f1g contracted to 8s4p3d1f1g pattern {71111111/2111/311/2/1}
 Group   4 Type N   : 12s5p4d2f1g contracted to 6s4p3d1f1g pattern {711111/2111/211/2/1}
 Group   5 Type H   : 5s2p1d contracted to 3s1p1d pattern {311/2/1}

Atom   0C    basis set group =>   1
Atom   1C    basis set group =>   1
Atom   2C    basis set group =>   1
Atom   3C    basis set group =>   1
Atom   4C    basis set group =>   1
Atom   5C    basis set group =>   1
Atom   6C    basis set group =>   1
Atom   7C    basis set group =>   1
Atom   8F    basis set group =>   2
Atom   9F    basis set group =>   2
Atom  10S    basis set group =>   3
Atom  11C    basis set group =>   1
Atom  12C    basis set group =>   1
Atom  13C    basis set group =>   1
Atom  14C    basis set group =>   1
Atom  15C    basis set group =>   1
Atom  16S    basis set group =>   3
Atom  17C    basis set group =>   1
Atom  18S    basis set group =>   3
Atom  19C    basis set group =>   1
Atom  20C    basis set group =>   1
Atom  21C    basis set group =>   1
Atom  22C    basis set group =>   1
Atom  23C    basis set group =>   1
Atom  24C    basis set group =>   1
Atom  25C    basis set group =>   1
Atom  26C    basis set group =>   1
Atom  27C    basis set group =>   1
Atom  28C    basis set group =>   1
Atom  29C    basis set group =>   1
Atom  30N    basis set group =>   4
Atom  31N    basis set group =>   4
Atom  32N    basis set group =>   4
Atom  33C    basis set group =>   1
Atom  34F    basis set group =>   2
Atom  35F    basis set group =>   2
Atom  36C    basis set group =>   1
Atom  37C    basis set group =>   1
Atom  38C    basis set group =>   1
Atom  39C    basis set group =>   1
Atom  40S    basis set group =>   3
Atom  41C    basis set group =>   1
Atom  42C    basis set group =>   1
Atom  43C    basis set group =>   1
Atom  44C    basis set group =>   1
Atom  45C    basis set group =>   1
Atom  46C    basis set group =>   1
Atom  47C    basis set group =>   1
Atom  48C    basis set group =>   1
Atom  49C    basis set group =>   1
Atom  50C    basis set group =>   1
Atom  51F    basis set group =>   2
Atom  52F    basis set group =>   2
Atom  53S    basis set group =>   3
Atom  54C    basis set group =>   1
Atom  55C    basis set group =>   1
Atom  56C    basis set group =>   1
Atom  57C    basis set group =>   1
Atom  58C    basis set group =>   1
Atom  59S    basis set group =>   3
Atom  60C    basis set group =>   1
Atom  61S    basis set group =>   3
Atom  62C    basis set group =>   1
Atom  63C    basis set group =>   1
Atom  64C    basis set group =>   1
Atom  65C    basis set group =>   1
Atom  66C    basis set group =>   1
Atom  67C    basis set group =>   1
Atom  68C    basis set group =>   1
Atom  69C    basis set group =>   1
Atom  70C    basis set group =>   1
Atom  71C    basis set group =>   1
Atom  72C    basis set group =>   1
Atom  73N    basis set group =>   4
Atom  74N    basis set group =>   4
Atom  75N    basis set group =>   4
Atom  76C    basis set group =>   1
Atom  77F    basis set group =>   2
Atom  78F    basis set group =>   2
Atom  79C    basis set group =>   1
Atom  80C    basis set group =>   1
Atom  81C    basis set group =>   1
Atom  82C    basis set group =>   1
Atom  83S    basis set group =>   3
Atom  84C    basis set group =>   1
Atom  85C    basis set group =>   1
Atom  86C    basis set group =>   1
Atom  87C    basis set group =>   1
Atom  88C    basis set group =>   1
Atom  89C    basis set group =>   1
Atom  90C    basis set group =>   1
Atom  91C    basis set group =>   1
Atom  92C    basis set group =>   1
Atom  93C    basis set group =>   1
Atom  94F    basis set group =>   2
Atom  95F    basis set group =>   2
Atom  96S    basis set group =>   3
Atom  97C    basis set group =>   1
Atom  98C    basis set group =>   1
Atom  99C    basis set group =>   1
Atom 100C    basis set group =>   1
Atom 101C    basis set group =>   1
Atom 102C    basis set group =>   1
Atom 103S    basis set group =>   3
Atom 104C    basis set group =>   1
Atom 105S    basis set group =>   3
Atom 106C    basis set group =>   1
Atom 107C    basis set group =>   1
Atom 108C    basis set group =>   1
Atom 109C    basis set group =>   1
Atom 110C    basis set group =>   1
Atom 111C    basis set group =>   1
Atom 112C    basis set group =>   1
Atom 113C    basis set group =>   1
Atom 114C    basis set group =>   1
Atom 115C    basis set group =>   1
Atom 116C    basis set group =>   1
Atom 117N    basis set group =>   4
Atom 118N    basis set group =>   4
Atom 119N    basis set group =>   4
Atom 120C    basis set group =>   1
Atom 121F    basis set group =>   2
Atom 122F    basis set group =>   2
Atom 123C    basis set group =>   1
Atom 124C    basis set group =>   1
Atom 125C    basis set group =>   1
Atom 126C    basis set group =>   1
Atom 127S    basis set group =>   3
Atom 128C    basis set group =>   1
Atom 129C    basis set group =>   1
Atom 130H    basis set group =>   5
Atom 131H    basis set group =>   5
Atom 132H    basis set group =>   5
Atom 133H    basis set group =>   5
Atom 134H    basis set group =>   5
Atom 135H    basis set group =>   5
Atom 136H    basis set group =>   5
Atom 137H    basis set group =>   5
Atom 138H    basis set group =>   5
Atom 139H    basis set group =>   5
Atom 140H    basis set group =>   5
Atom 141H    basis set group =>   5
Atom 142H    basis set group =>   5
Atom 143H    basis set group =>   5
Atom 144H    basis set group =>   5
Atom 145H    basis set group =>   5
Atom 146H    basis set group =>   5
Atom 147H    basis set group =>   5
Atom 148H    basis set group =>   5
Atom 149H    basis set group =>   5
Atom 150H    basis set group =>   5
Atom 151H    basis set group =>   5
Atom 152H    basis set group =>   5
Atom 153H    basis set group =>   5
Atom 154H    basis set group =>   5
Atom 155H    basis set group =>   5
Atom 156H    basis set group =>   5
Atom 157H    basis set group =>   5
Atom 158H    basis set group =>   5
Atom 159H    basis set group =>   5
Atom 160H    basis set group =>   5
Atom 161H    basis set group =>   5
Atom 162H    basis set group =>   5
Atom 163H    basis set group =>   5
Atom 164H    basis set group =>   5
Atom 165H    basis set group =>   5
Atom 166H    basis set group =>   5
Atom 167H    basis set group =>   5
Atom 168H    basis set group =>   5
Atom 169H    basis set group =>   5
Atom 170H    basis set group =>   5
Atom 171H    basis set group =>   5
[...]
  24      4.58     270.7   156 -> 162      gap,J,K:    5.386     0.916     0.056

average / max PT2 energy lowering (eV):       0.036       0.079

CSF included by PT:                   122 
total number of CSF included:         157 
 
sTD-DFT procedure...
setting up A+B and A-B matrices...  done
estimated time (min):    0.000
calculating (A-B)^0.5 ... done
calculating (A+B)*(A-B)^0.5 ... done
calculating (A-B)^0.5 *(A+B)*(A-B)^0.5 ... done
diagonalizing ...using LAPACKE_ssyevr ...done

   43 roots found, lowest/highest eigenvalue :     2.386     4.960

excitation energies, transition moments and amplitudes

molecular weight: 1965.314
state   eV        nm        fL         fV        Rl        RV
   0   2.386     519.7   3.017881   3.096303  -3064.883602  -3099.684727     0.60 ( 161-> 162)    0.14 ( 160-> 163)    0.11 ( 159-> 163)
   1   2.543     487.5   2.802145   2.831688  3558.806323  3571.747912     0.44 ( 161-> 163)    0.24 ( 160-> 162)    0.16 ( 159-> 162)
   2   2.811     441.1   0.955823   0.930673  -341.874611  -325.631402     0.33 ( 160-> 164)    0.22 ( 161-> 164)    0.13 ( 159-> 164)
   3   3.071     403.7   0.147172   0.137456  681.708781  669.828793     0.33 ( 158-> 162)    0.13 ( 161-> 165)    0.10 ( 159-> 163)
   4   3.204     387.0   0.040834   0.038206  -460.632534  -444.527002     0.28 ( 158-> 163)    0.15 ( 160-> 162)    0.11 ( 159-> 163)
   5   3.389     365.9   0.133703   0.114463  -774.833627  -726.512587     0.25 ( 159-> 162)    0.21 ( 160-> 165)    0.12 ( 161-> 163)
   6   3.421     362.5   0.084003   0.069440  -592.826821  -531.106594     0.18 ( 161-> 165)    0.10 ( 158-> 162)    0.09 ( 161-> 164)
   7   3.516     352.6   0.081326   0.071287  10.652826   7.004688     0.12 ( 158-> 162)    0.12 ( 161-> 165)    0.09 ( 160-> 166)
   8   3.554     348.8   0.405167   0.356752  827.388877  777.013905     0.15 ( 161-> 167)    0.11 ( 157-> 162)    0.08 ( 160-> 166)
   9   3.616     342.8   0.314745   0.272688  200.321336  249.862518     0.15 ( 161-> 166)    0.12 ( 160-> 167)    0.09 ( 157-> 162)
  10   3.700     335.1   0.260915   0.239027  662.543397  607.893183     0.27 ( 161-> 162)    0.21 ( 160-> 163)    0.10 ( 161-> 167)
  11   3.792     327.0   0.076660   0.069882  -154.117900  -146.422686     0.14 ( 156-> 164)    0.11 ( 157-> 164)    0.09 ( 160-> 162)
  12   3.855     321.7   0.085172   0.079186  -607.034573  -567.733409     0.24 ( 160-> 162)    0.14 ( 159-> 163)    0.08 ( 156-> 164)
  13   3.922     316.1   0.043804   0.037471  -33.913672  -31.655067     0.12 ( 161-> 163)    0.12 ( 156-> 164)    0.09 ( 159-> 167)
  14   3.949     314.0   0.092587   0.081025  -183.136610  -175.460392     0.12 ( 160-> 167)    0.12 ( 161-> 168)    0.12 ( 159-> 165)
  15   4.064     305.1   0.091606   0.080704  165.578206  155.773431     0.18 ( 157-> 163)    0.12 ( 155-> 162)    0.08 ( 158-> 165)
  16   4.092     303.0   0.012936   0.012533  -8.802157  -8.752439     0.19 ( 161-> 164)    0.07 ( 159-> 166)    0.07 ( 159-> 167)
  17   4.141     299.4   0.089660   0.077651  -69.436676  -59.942218     0.15 ( 158-> 163)    0.13 ( 157-> 162)    0.10 ( 155-> 163)
  18   4.178     296.8   0.010488   0.008957  -17.062951  -16.430049     0.27 ( 160-> 164)    0.17 ( 159-> 164)    0.11 ( 161-> 164)
  19   4.295     288.7   0.169096   0.137849  -382.691040  -337.152865     0.15 ( 155-> 163)    0.13 ( 157-> 165)    0.10 ( 155-> 162)
  20   4.334     286.0   0.124077   0.110210  -27.630715  -21.465237     0.14 ( 161-> 166)    0.14 ( 161-> 168)    0.08 ( 161-> 169)
  21   4.378     283.2   0.022043   0.017664  333.020481  290.016395     0.16 ( 158-> 162)    0.10 ( 156-> 162)    0.08 ( 156-> 163)
  22   4.399     281.8   0.018940   0.017362  25.509998  19.748244     0.21 ( 158-> 164)    0.13 ( 156-> 162)    0.10 ( 159-> 164)
  23   4.421     280.4   0.107450   0.091134  -41.623253  -41.838895     0.16 ( 159-> 165)    0.12 ( 160-> 165)    0.10 ( 158-> 165)
  24   4.527     273.9   0.007928   0.006943  42.420634  33.467674     0.11 ( 158-> 167)    0.09 ( 161-> 165)    0.08 ( 161-> 170)
  25   4.566     271.5   0.053054   0.039446  58.540881  49.539657     0.15 ( 158-> 165)    0.09 ( 161-> 168)    0.08 ( 160-> 169)
  26   4.584     270.5   0.027687   0.022517  93.867657  100.370059     0.18 ( 160-> 166)    0.12 ( 161-> 165)    0.08 ( 159-> 168)
  27   4.642     267.1   0.018228   0.014955  85.522752  76.883645     0.11 ( 160-> 165)    0.11 ( 159-> 166)    0.08 ( 161-> 169)
  28   4.654     266.4   0.016192   0.014277  24.951034  15.467538     0.10 ( 155-> 162)    0.09 ( 154-> 162)    0.08 ( 157-> 163)
  29   4.668     265.6   0.051674   0.027429  129.564293  97.874515     0.10 ( 152-> 164)    0.06 ( 161-> 169)    0.05 ( 150-> 162)
  30   4.705     263.5   0.030408   0.023070  277.680356  242.875562     0.18 ( 152-> 164)    0.11 ( 151-> 164)    0.10 ( 150-> 162)
  31   4.724     262.5   0.075273   0.042135  -685.870249  -542.870396     0.12 ( 152-> 164)    0.10 ( 161-> 166)    0.09 ( 160-> 167)
  32   4.733     262.0   0.090112   0.059390  13.890928   9.021742     0.13 ( 149-> 163)    0.11 ( 160-> 170)    0.09 ( 147-> 162)
  33   4.746     261.2   0.029799   0.021378  -28.323082  -25.365739     0.10 ( 148-> 162)    0.09 ( 160-> 167)    0.08 ( 161-> 166)
  34   4.759     260.5   0.053471   0.035514  -16.098181  -33.476293     0.29 ( 148-> 162)    0.13 ( 147-> 163)    0.06 ( 150-> 163)
  35   4.777     259.6   0.043699   0.031225  61.690876  45.907991     0.47 ( 153-> 164)    0.17 ( 152-> 164)    0.03 ( 153-> 166)
  36   4.790     258.8   0.009003   0.006830  65.708481  21.110032     0.08 ( 154-> 163)    0.07 ( 157-> 167)    0.05 ( 155-> 165)
  37   4.800     258.3   0.021107   0.012646  51.225571  26.128975     0.15 ( 147-> 162)    0.09 ( 160-> 167)    0.07 ( 147-> 163)
  38   4.822     257.1   0.120453   0.089638  70.064410  57.069557     0.09 ( 159-> 169)    0.06 ( 156-> 163)    0.06 ( 156-> 162)
  39   4.879     254.1   0.117512   0.086842  84.638930  79.191205     0.09 ( 157-> 167)    0.08 ( 157-> 164)    0.07 ( 158-> 164)
  40   4.886     253.8   0.005166   0.004244  -128.661731  -121.287838     0.11 ( 159-> 167)    0.10 ( 161-> 167)    0.10 ( 160-> 166)
  41   4.926     251.7   0.023685   0.019955  13.064439  15.020432     0.17 ( 157-> 164)    0.14 ( 159-> 167)    0.13 ( 157-> 165)
  42   4.960     250.0   0.005748   0.005149  -69.518287  -63.368001     0.15 ( 158-> 166)    0.12 ( 156-> 163)    0.08 ( 159-> 165)

-----------------------------------------------------------------------------
         ABSORPTION SPECTRUM VIA TRANSITION ELECTRIC DIPOLE MOMENTS
-----------------------------------------------------------------------------
State   Energy  Wavelength   fosc         T2         TX        TY        TZ  
        (cm-1)    (nm)                  (au**2)     (au)      (au)      (au) 
-----------------------------------------------------------------------------
   0   19242.2    519.7   3.017880585  51.63240   3.79799  -1.44779  -5.92550
   1   20513.7    487.5   2.802145397  44.96988   1.85128  -5.94591   2.48774
   2   22673.1    441.1   0.955823092  13.87847   1.88402  -1.74942   2.69601
   3   24770.1    403.7   0.147171551   1.95601   0.77604  -1.04114   0.51943
   4   25840.0    387.0   0.040833870   0.52024  -0.48307  -0.47859   0.24049
   5   27332.0    365.9   0.133703026   1.61044  -0.67065  -1.06447   0.16603
   6   27589.1    362.5   0.084003018   1.00238   0.72633   0.31217  -0.61431
   7   28358.7    352.6   0.081326287   0.94410   0.37492  -0.74126   0.50405
   8   28665.9    348.8   0.405167206   4.65311   0.92014   1.73817   0.88614
   9   29168.4    342.8   0.314744696   3.55240  -0.28788  -0.51678   1.78954
  10   29845.8    335.1   0.260915069   2.87800   0.27841  -0.87315  -1.42762
  11   30584.2    327.0   0.076660327   0.82518  -0.70631   0.48804  -0.29685
  12   31088.8    321.7   0.085172442   0.90193   0.63758   0.58779  -0.38720
  13   31634.7    316.1   0.043803930   0.45585   0.33811   0.58407   0.01983
  14   31847.4    314.0   0.092587213   0.95709  -0.25510  -0.77943   0.53338
  15   32776.7    305.1   0.091606247   0.92010  -0.09560   0.89557   0.33003
  16   33001.2    303.0   0.012936407   0.12905  -0.19247   0.30331  -0.00264
  17   33403.3    299.4   0.089659534   0.88366  -0.29057  -0.29246   0.84480
  18   33698.0    296.8   0.010488451   0.10247   0.15571   0.17565  -0.21764
  19   34642.5    288.7   0.169095694   1.60694  -0.26502  -1.03691   0.67935
  20   34959.8    286.0   0.124076797   1.16842   0.09596  -1.06390   0.16531
  21   35309.1    283.2   0.022043339   0.20553   0.31195   0.28310   0.16755
  22   35480.5    281.8   0.018939852   0.17574  -0.18076   0.10455   0.36350
  23   35657.7    280.4   0.107449678   0.99204  -0.35339  -0.48284   0.79625
  24   36514.6    273.9   0.007928126   0.07148  -0.19396   0.13633   0.12357
  25   36826.2    271.5   0.053054323   0.47429  -0.27351   0.62702   0.07955
  26   36973.5    270.5   0.027686617   0.24652   0.17228  -0.44728   0.12954
  27   37441.7    267.1   0.018228420   0.16028  -0.21594   0.06110   0.33153
  28   37540.3    266.4   0.016191883   0.14200   0.04594   0.20417  -0.31337
  29   37646.9    265.6   0.051673866   0.45187   0.46314   0.48526   0.04356
  30   37947.6    263.5   0.030408280   0.26381  -0.19174   0.13546  -0.45683
  31   38099.0    262.5   0.075273156   0.65043   0.42768   0.68239  -0.04309
  32   38174.8    262.0   0.090111926   0.77711   0.37004  -0.22122  -0.76892
  33   38282.9    261.2   0.029799005   0.25626   0.01153   0.50604  -0.00673
  34   38386.2    260.5   0.053470568   0.45858  -0.36298  -0.48650   0.30024
  35   38526.5    259.6   0.043698836   0.37341   0.21527   0.54710   0.16656
  36   38637.1    258.8   0.009002817   0.07671   0.12749  -0.23435   0.07441
  37   38715.4    258.3   0.021107377   0.17948   0.35960   0.20384   0.09284
  38   38888.7    257.1   0.120452560   1.01969   0.33265  -0.89758  -0.32154
  39   39355.6    254.1   0.117512343   0.98300   0.29225  -0.91119   0.25945
  40   39404.7    253.8   0.005165578   0.04316  -0.13461  -0.05417  -0.14867
  41   39732.7    251.7   0.023685428   0.19625  -0.11738   0.36178  -0.22712
  42   40004.1    250.0   0.005747716   0.04730  -0.15330  -0.07206  -0.13641

-----------------------------------------------------------------------------
         ABSORPTION SPECTRUM VIA TRANSITION VELOCITY DIPOLE MOMENTS
-----------------------------------------------------------------------------
State   Energy  Wavelength   fosc         P2         PX        PY        PZ  
        (cm-1)    (nm)                  (au**2)     (au)      (au)      (au) 
-----------------------------------------------------------------------------
   0   19242.2    519.7   3.096302716   0.40720   0.33712  -0.12805  -0.52645
   1   20513.7    487.5   2.831688123   0.39701   0.17427  -0.55892   0.23290
   2   22673.1    441.1   0.930673252   0.14422   0.19130  -0.17674   0.27637
   3   24770.1    403.7   0.137455671   0.02327   0.08508  -0.11285   0.05741
   4   25840.0    387.0   0.038206310   0.00675  -0.05594  -0.05415   0.02620
   5   27332.0    365.9   0.114463060   0.02138  -0.08066  -0.12023   0.02053
   6   27589.1    362.5   0.069440278   0.01309   0.08480   0.03319  -0.06929
   7   28358.7    352.6   0.071287401   0.01382   0.04462  -0.08947   0.06181
   8   28665.9    348.8   0.356752342   0.06989   0.11477   0.21261   0.10733
   9   29168.4    342.8   0.272687643   0.05436  -0.03400  -0.06000   0.22272
  10   29845.8    335.1   0.239026966   0.04876   0.03838  -0.11144  -0.18672
  11   30584.2    327.0   0.069882084   0.01461  -0.09344   0.06535  -0.04007
  12   31088.8    321.7   0.079186179   0.01683   0.08445   0.08198  -0.05453
  13   31634.7    316.1   0.037471470   0.00810   0.04242   0.07934   0.00272
  14   31847.4    314.0   0.081025099   0.01764  -0.03525  -0.10577   0.07215
  15   32776.7    305.1   0.080703887   0.01808  -0.01393   0.12569   0.04567
  16   33001.2    303.0   0.012533316   0.00283  -0.02846   0.04490  -0.00062
  17   33403.3    299.4   0.077651033   0.01773  -0.04289  -0.03702   0.12049
  18   33698.0    296.8   0.008957444   0.00206   0.02167   0.02614  -0.03017
  19   34642.5    288.7   0.137849264   0.03264  -0.03643  -0.14823   0.09663
  20   34959.8    286.0   0.110209937   0.02633   0.01447  -0.15959   0.02559
  21   35309.1    283.2   0.017664421   0.00426   0.04153   0.04141   0.02869
  22   35480.5    281.8   0.017361754   0.00421  -0.02810   0.01058   0.05752
  23   35657.7    280.4   0.091133932   0.02221  -0.05324  -0.07297   0.11854
  24   36514.6    273.9   0.006942891   0.00173  -0.02877   0.02163   0.02091
  25   36826.2    271.5   0.039446081   0.00993  -0.04205   0.08942   0.01281
  26   36973.5    270.5   0.022516969   0.00569   0.02839  -0.06695   0.02003
  27   37441.7    267.1   0.014955349   0.00383  -0.03218   0.00305   0.05275
  28   37540.3    266.4   0.014277333   0.00366   0.00696   0.03590  -0.04823
  29   37646.9    265.6   0.027429034   0.00706   0.06260   0.05561   0.00677
  30   37947.6    263.5   0.023069805   0.00598  -0.02620   0.01292  -0.07162
  31   38099.0    262.5   0.042135165   0.01097   0.06316   0.08268  -0.01208
  32   38174.8    262.0   0.059389913   0.01550   0.04927  -0.02890  -0.11060
  33   38282.9    261.2   0.021377819   0.00559   0.00559   0.07456  -0.00180
  34   38386.2    260.5   0.035513734   0.00932  -0.04431  -0.08044   0.02971
  35   38526.5    259.6   0.031225141   0.00822   0.03523   0.07995   0.02426
  36   38637.1    258.8   0.006829786   0.00180   0.01327  -0.03955   0.00794
  37   38715.4    258.3   0.012645508   0.00335   0.05343   0.01343   0.01762
  38   38888.7    257.1   0.089637862   0.02382   0.05787  -0.13246  -0.05412
  39   39355.6    254.1   0.086842490   0.02336   0.04570  -0.13986   0.04134
  40   39404.7    253.8   0.004244361   0.00114  -0.02399  -0.01026  -0.02150
  41   39732.7    251.7   0.019954749   0.00542  -0.02137   0.06023  -0.03652
  42   40004.1    250.0   0.005148640   0.00141  -0.02391  -0.01427  -0.02514

-------------------------------------------------------------------
                             CD SPECTRUM
-------------------------------------------------------------------
State   Energy Wavelength       R         MX        MY        MZ   
        (cm-1)   (nm)       (1e40*cgs)   (au)      (au)      (au)  
-------------------------------------------------------------------
   0   19242.2    519.7    -3064.88360  19.78925   6.94909   8.79191
   1   20513.7    487.5    3558.80632 -15.00748  -5.07403  -7.02811
   2   22673.1    441.1    -341.87461   3.82425   0.40235  -1.87341
   3   24770.1    403.7    681.70878  -2.24404  -1.16703  -4.55418
   4   25840.0    387.0    -460.63253  -1.76114  -1.64778   1.30889
   5   27332.0    365.9    -774.83363  -2.66629  -1.45469  -0.29853
   6   27589.1    362.5    -592.82682   0.88303   1.47521  -2.30024
   7   28358.7    352.6     10.65283  -3.59842  -2.23075  -0.69365
   8   28665.9    348.8    827.38888  -0.53211  -1.74691   0.01808
   9   29168.4    342.8    200.32134  -8.81780  -4.38688  -3.16022
  10   29845.8    335.1    662.54340   5.18871   2.43101   1.49385
  11   30584.2    327.0    -154.11790  -0.92762  -0.13882  -0.22359
  12   31088.8    321.7    -607.03457   3.86718   1.06497   1.33363
  13   31634.7    316.1    -33.91367   0.04468   0.25703  -1.07736
  14   31847.4    314.0    -183.13661  -3.34644  -1.26762  -1.99629
  15   32776.7    305.1    165.57821  -0.67182  -1.10979   0.68854
  16   33001.2    303.0     -8.80216   0.49567   0.43623  -0.16404
  17   33403.3    299.4    -69.43668  -4.38441  -2.05212  -1.86973
  18   33698.0    296.8    -17.06295   1.72823   0.29314   1.14044
  19   34642.5    288.7    -382.69104  -5.20035  -1.93662  -2.59480
  20   34959.8    286.0    -27.63072  -5.48175  -1.12155  -3.32688
  21   35309.1    283.2    333.02048  -2.93044  -1.29439  -0.78900
  22   35480.5    281.8     25.51000  -2.33769  -0.79652  -1.23106
  23   35657.7    280.4    -41.62325  -2.35327  -0.99225  -1.42434
  24   36514.6    273.9     42.42063   1.85730   0.48277   0.92631
  25   36826.2    271.5     58.54088   0.83758  -0.26429   1.84106
  26   36973.5    270.5     93.86766  -4.29784  -1.19701  -1.49121
  27   37441.7    267.1     85.52275   1.04087   0.02743  -0.42145
  28   37540.3    266.4     24.95103   3.48677   1.22075   1.64433
  29   37646.9    265.6    129.56429  -0.76994  -0.35255  -0.50448
  30   37947.6    263.5    277.68036   2.71708   0.47504   1.57909
  31   38099.0    262.5    -685.87025   5.74349   0.82899   2.60957
  32   38174.8    262.0     13.89093   0.83023   1.74839  -0.02684
  33   38282.9    261.2    -28.32308   0.23535   0.22959  -0.18719
  34   38386.2    260.5    -16.09818  -2.29985   0.03776  -2.49181
  35   38526.5    259.6     61.69088   1.01987  -0.09586  -2.57452
  36   38637.1    258.8     65.70848  -3.34027  -0.88525  -0.81138
  37   38715.4    258.3     51.22557  -0.24102  -0.71747   0.16813
  38   38888.7    257.1     70.06441  -0.38591   0.42219  -0.65340
  39   39355.6    254.1     84.63893  -3.08911  -1.07164  -1.66791
  40   39404.7    253.8    -128.66173  -2.84817  -0.23486  -1.00701
  41   39732.7    251.7     13.06444   1.54118   0.59425   0.39411
  42   40004.1    250.0    -69.51829  -1.30491  -0.31222  -0.53057

sTD-DFT done

Total run time:       20.835 sec

           *** ORCA-CIS/TD-DFT FINISHED WITHOUT ERROR ***

-------------------------   --------------------
FINAL SINGLE POINT ENERGY    -10194.129684084059
-------------------------   --------------------


                            ***************************************
                            *     ORCA property calculations      *
                            ***************************************

                                    ---------------------
                                    Active property flags
                                    ---------------------
   (+) Dipole Moment


------------------------------------------------------------------------------
                       ORCA ELECTRIC PROPERTIES CALCULATION
------------------------------------------------------------------------------

Dipole Moment Calculation                       ... on
Quadrupole Moment Calculation                   ... off
Polarizability Calculation                      ... off
GBWName                                         ... PTFB-O.gbw
Electron density file                           ... PTFB-O.scfp
The origin for moment calculation is the CENTER OF MASS  = (-10.893971, 10.638707 20.208356)

-------------
DIPOLE MOMENT
-------------
                                X             Y             Z
Electronic contribution:    -34.65855      32.38124      -4.14604
Nuclear contribution   :     34.55735     -28.92041       6.38642
                        -----------------------------------------
Total Dipole Moment    :     -0.10120       3.46083       2.24038
                        -----------------------------------------
Magnitude (a.u.)       :      4.12394
Magnitude (Debye)      :     10.48223



--------------------
Rotational spectrum 
--------------------
 
Rotational constants in cm-1:     0.000138     0.000043     0.000034 
Rotational constants in MHz :     4.124404     1.297090     1.012689 

 Dipole components along the rotational axes: 
x,y,z [a.u.] :     3.206693     1.277257    -2.256686 
x,y,z [Debye]:     8.150765     3.246530    -5.736040 

 

Timings for individual modules:

Sum of individual times         ...     9078.696 sec (= 151.312 min)
GTO integral calculation        ...        9.980 sec (=   0.166 min)   0.1 %
SCF iterations                  ...     9047.760 sec (= 150.796 min)  99.7 %
CIS module                      ...       20.956 sec (=   0.349 min)   0.2 %
                             ****ORCA TERMINATED NORMALLY****
TOTAL RUN TIME: 0 days 2 hours 31 minutes 20 seconds 37 msec
