
                                 *****************
                                 * O   R   C   A *
                                 *****************

           --- An Ab Initio, DFT and Semiempirical electronic structure package ---

                  #######################################################
                  #                        -***-                        #
                  #          Department of theory and spectroscopy      #
                  #               Directorship: Frank Neese             #
                  #        Max Planck Institute fuer Kohlenforschung    #
                  #                Kaiser Wilhelm Platz 1               #
                  #                 D-45470 Muelheim/Ruhr               #
                  #                      Germany                        #
                  #                                                     #
                  #                  All rights reserved                #
                  #                        -***-                        #
                  #######################################################


                         Program Version 4.2.0 -  RELEASE  -


 With contributions from (in alphabetic order):
   Daniel Aravena         : Magnetic Suceptibility
   Michael Atanasov       : Ab Initio Ligand Field Theory (pilot matlab implementation)
   Alexander A. Auer      : GIAO ZORA, VPT2
   Ute Becker             : Parallelization
   Giovanni Bistoni       : ED, misc. LED, open-shell LED, HFLED
   Martin Brehm           : Molecular dynamics
   Dmytro Bykov           : SCF Hessian
   Vijay G. Chilkuri      : MRCI spin determinant printing, contributions to CSF-ICE
   Dipayan Datta          : RHF DLPNO-CCSD density
   Achintya Kumar Dutta   : EOM-CC, STEOM-CC
   Dmitry Ganyushin       : Spin-Orbit,Spin-Spin,Magnetic field MRCI
   Miquel Garcia          : C-PCM Hessian, Gaussian charge scheme
   Yang Guo               : DLPNO-NEVPT2, CIM, IAO-localization
   Andreas Hansen         : Spin unrestricted coupled pair/coupled cluster methods
   Benjamin Helmich-Paris : CASSCF linear response (MC-RPA)
   Lee Huntington         : MR-EOM, pCC
   Robert Izsak           : Overlap fitted RIJCOSX, COSX-SCS-MP3, EOM
   Christian Kollmar      : KDIIS, OOCD, Brueckner-CCSD(T), CCSD density
   Simone Kossmann        : Meta GGA functionals, TD-DFT gradient, OOMP2, MP2 Hessian
   Martin Krupicka        : AUTO-CI
   Lucas Lang             : DCDCAS
   Dagmar Lenk            : GEPOL surface, SMD
   Dimitrios Liakos       : Extrapolation schemes; Compound Job, initial MDCI parallelization
   Dimitrios Manganas     : Further ROCIS development; embedding schemes
   Dimitrios Pantazis     : SARC Basis sets
   Taras Petrenko         : DFT Hessian,TD-DFT gradient, ASA, ECA, R-Raman, ABS, FL, XAS/XES, NRVS
   Peter Pinski           : DLPNO-MP2, DLPNO-MP2 Gradient
   Christoph Reimann      : Effective Core Potentials
   Marius Retegan         : Local ZFS, SOC
   Christoph Riplinger    : Optimizer, TS searches, QM/MM, DLPNO-CCSD(T), (RO)-DLPNO pert. Triples
   Tobias Risthaus        : Range-separated hybrids, TD-DFT gradient, RPA, STAB
   Michael Roemelt        : Original ROCIS implementation
   Masaaki Saitow         : Open-shell DLPNO-CCSD energy and density
   Barbara Sandhoefer     : DKH picture change effects
   Avijit Sen             : IP-ROCIS
   Kantharuban Sivalingam : CASSCF convergence, NEVPT2, FIC-MRCI
   Bernardo de Souza      : ESD, SOC TD-DFT
   Georgi Stoychev        : AutoAux, RI-MP2 NMR
   Willem Van den Heuvel  : Paramagnetic NMR
   Boris Wezisla          : Elementary symmetry handling
   Frank Wennmohs         : Technical directorship


 We gratefully acknowledge several colleagues who have allowed us to
 interface, adapt or use parts of their codes:
   Stefan Grimme, W. Hujo, H. Kruse,             : VdW corrections, initial TS optimization,
                  C. Bannwarth                     DFT functionals, gCP, sTDA/sTD-DF
   Ed Valeev, F. Pavosevic, A. Kumar             : LibInt (2-el integral package), F12 methods
   Garnet Chan, S. Sharma, J. Yang, R. Olivares  : DMRG
   Ulf Ekstrom                                   : XCFun DFT Library
   Mihaly Kallay                                 : mrcc  (arbitrary order and MRCC methods)
   Andreas Klamt, Michael Diedenhofen            : otool_cosmo (COSMO solvation model)
   Jiri Pittner, Ondrej Demel                    : Mk-CCSD
   Frank Weinhold                                : gennbo (NPA and NBO analysis)
   Christopher J. Cramer and Donald G. Truhlar   : smd solvation model
   Lars Goerigk                                  : TD-DFT with DH, B97 family of functionals
   V. Asgeirsson, H. Jonsson                     : NEB implementation
   FAccTs GmbH                                   : IRC, NEB, NEB-TS, Multilevel, MM, QM/MM, CI optimization
   S Lehtola, MJT Oliveira, MAL Marques          : LibXC Library


 Your calculation uses the libint2 library for the computation of 2-el integrals
 For citations please refer to: http://libint.valeyev.net

 Your ORCA version has been built with support for libXC version: 4.2.3
 For citations please refer to: https://tddft.org/programs/libxc/

 This ORCA versions uses:
   CBLAS   interface :  Fast vector & matrix operations
   LAPACKE interface :  Fast linear algebra routines
   SCALAPACK package :  Parallel linear algebra routines


XCFun DFT library Copyright 2009-2010 Ulf Ekstrom and contributors.
See http://admol.org/xcfun for more information. This is free soft-
ware; see the source code for copying conditions. There is ABSOLUTELY
NO WARRANTY; not even for MERCHANTABILITY or FITNESS FOR A PARTICULAR
PURPOSE. For details see the documentation. Scientific users of this 
library should cite U. Ekstrom, L. Visscher, R. Bast, A. J. Thorvald-
sen and K. Ruud; J.Chem.Theor.Comp. 2010, DOI: 10.1021/ct100117s
XCFun Version 0.99 
----- Orbital basis set information -----
Your calculation utilizes the basis: def2-SVP
   F. Weigend and R. Ahlrichs, Phys. Chem. Chem. Phys. 7, 3297 (2005).

----- AuxJ basis set information -----
Your calculation utilizes the auxiliary basis: def2/J
   F. Weigend, Phys. Chem. Chem. Phys. 8, 1057 (2006).

================================================================================
                                        WARNINGS
                       Please study these warnings very carefully!
================================================================================

INFO   : Checking CIS options ...

WARNING: CIS/ROCIS methods need fully converged wavefunctions
  ===> : Setting SCFConvForced true
         You can overwrite this default with %scf ConvForced false 


INFO   : the flag for use of LIBINT has been found!

================================================================================
                                       INPUT FILE
================================================================================
NAME = PTQ2.inp
|  1> # ORCA input file
|  2> # SCF done       -322.773642923835          0.000721580608
|  3> ! CAM-B3LYP def2-SVP def2/J RIJCOSX Grid4 TightSCF
|  4> %maxcore 5000
|  5> %tddft
|  6>     Mode sTDDFT
|  7>     Ethresh 5.0
|  8>     maxcore 5000
|  9> end
| 10> * xyz 0 1
| 11>    C       -0.04921        -0.65384         0.11415
| 12>    C        0.20700        -2.01541         0.35074
| 13>    C       -0.86053        -2.90371         0.62949
| 14>    C       -2.19330        -2.51192         0.67520
| 15>    C       -2.44241        -1.13937         0.46014
| 16>    C       -1.38018        -0.24299         0.19262
| 17>    C        1.46238        -2.69116         0.36284
| 18>    C        1.37255        -4.01735         0.60281
| 19>    S       -0.27815        -4.53284         0.84811
| 20>    C        0.99321         0.29569        -0.22370
| 21>    C       -3.25773        -3.46326         0.91875
| 22>    C        1.09783         1.60038         0.16766
| 23>    C        2.21707         2.23744        -0.40169
| 24>    C        2.96914         1.46735        -1.23738
| 25>    S        2.28447        -0.11897        -1.32079
| 26>    C       -3.25305        -4.53239         1.77054
| 27>    C       -4.46838        -5.24282         1.73845
| 28>    C       -5.40591        -4.76449         0.87195
| 29>    S       -4.77332        -3.37667         0.05793
| 30>    C        4.21470         1.83231        -1.96856
| 31>    C        5.42148         1.05331        -1.44370
| 32>    C       -6.79435        -5.24940         0.63565
| 33>    C       -7.82700        -4.19299         1.03158
| 34>    F        2.52274         3.52139        -0.13612
| 35>    F       -4.68545        -6.31943         2.51703
| 36>    C        2.47040        -5.01339         0.68421
| 37>    C       -3.68125        -0.46912         0.47585
| 38>    C       -3.60338         0.87217         0.19945
| 39>    S       -1.95371         1.38426        -0.06124
| 40>    C       -4.75107         1.71256         0.12098
| 41>    S       -6.29772         0.93256         0.27980
| 42>    C       -6.27984         3.47058        -0.09054
| 43>    C       -4.92234         3.07952        -0.07583
| 44>    C       -3.83738         4.04691        -0.25381
| 45>    O       -2.65698         3.77873        -0.29863
| 46>    O       -4.30405         5.29650        -0.37759
| 47>    C       -3.33177         6.32800        -0.55063
| 48>    C       -2.71225         6.74440         0.77564
| 49>    C      -11.90505         4.04443         0.03036
| 50>    C      -10.79125         3.18321         0.08617
| 51>    C      -10.98238         1.78077         0.18150
| 52>    C      -12.23303         1.17270         0.20953
| 53>    C      -13.34446         2.04140         0.17402
| 54>    C      -13.15992         3.44231         0.09172
| 55>    C       -9.41672         3.52685         0.06221
| 56>    C       -8.58132         2.44920         0.10425
| 57>    S       -9.45841         0.93952         0.19608
| 58>    C      -11.78455         5.48023        -0.11798
| 59>    C      -12.36973        -0.26840         0.24576
| 60>    C      -12.57710         6.44555         0.43722
| 61>    C      -12.21291         7.73938         0.01988
| 62>    C      -11.16861         7.80136        -0.85379
| 63>    S      -10.59635         6.20007        -1.17264
| 64>    C      -11.57786        -1.17456         0.89612
| 65>    C      -11.99972        -2.49969         0.67908
| 66>    C      -13.08430        -2.64611        -0.13419
| 67>    S      -13.61763        -1.08823        -0.65758
| 68>    C      -10.53123         9.00447        -1.45792
| 69>    C       -9.07980         9.16019        -1.00232
| 70>    C      -13.80314        -3.89276        -0.51736
| 71>    C      -15.23628        -3.89295         0.01684
| 72>    F      -12.86248         8.83699         0.45288
| 73>    F      -11.36954        -3.54968         1.23817
| 74>    C       -7.15483         2.43312         0.08371
| 75>    C      -14.71435         1.70719         0.20772
| 76>    C      -15.56834         2.77517         0.11307
| 77>    S      -14.68555         4.28053         0.01581
| 78>    C      -16.98954         2.63618         0.08582
| 79>    S      -17.57635         0.99447         0.00426
| 80>    C      -19.31536         2.86725         0.11491
| 81>    C      -18.06252         3.51867         0.13180
| 82>    C      -18.06144         4.98997         0.21906
| 83>    O      -19.04548         5.63454         0.49177
| 84>    O      -16.87341         5.53202        -0.06445
| 85>    C      -16.74485         6.95058         0.03925
| 86>    C      -16.56694         7.39029         1.48488
| 87>    C      -23.80727        -0.55172        -0.09196
| 88>    C      -22.40561        -0.42610        -0.03293
| 89>    C      -21.59082        -1.58636        -0.05345
| 90>    C      -22.09283        -2.88193        -0.13252
| 91>    C      -23.49706        -3.00460        -0.17467
| 92>    C      -24.31167        -1.84749        -0.17003
| 93>    C      -21.63390         0.76204        -0.00744
| 94>    C      -20.28787         0.54022         0.00319
| 95>    S      -19.90157        -1.16545        -0.02166
| 96>    C      -24.70588         0.58319        -0.04393
| 97>    C      -21.20404        -4.02317        -0.19888
| 98>    C      -25.89114         0.73871        -0.70747
| 99>    C      -26.54335         1.93554        -0.35563
|100>    C      -25.90262         2.70143         0.57244
|101>    S      -24.42298         1.93008         1.02720
|102>    C      -20.00226        -4.19503         0.43015
|103>    C      -19.38453        -5.40718         0.06929
|104>    C      -20.06626        -6.16790        -0.83325
|105>    S      -21.54243        -5.37150        -1.25258
|106>    C      -26.30963         4.02233         1.12667
|107>    C      -25.36564         5.13517         0.66820
|108>    C      -19.70402        -7.50216        -1.38677
|109>    C      -20.66919        -8.58573        -0.90341
|110>    F      -27.72647         2.28770        -0.89255
|111>    F      -18.19561        -5.78309         0.57708
|112>    C      -19.23600         1.50304         0.04035
|113>    C      -24.27808        -4.18355        -0.17055
|114>    C      -25.62897        -3.96608        -0.17541
|115>    S      -26.00226        -2.26127        -0.18465
|116>    C      -26.62095        -4.99617        -0.21239
|117>    S      -26.05292        -6.64654        -0.16753
|118>    C      -27.64503        -7.26199        -0.34975
|119>    C      -28.56035        -6.27089        -0.45311
|120>    C      -27.99551        -4.97179        -0.36219
|121>    C      -28.90010        -3.80875        -0.46288
|122>    O      -29.91592        -3.81759        -1.11364
|123>    O      -28.50272        -2.77072         0.27798
|124>    C      -29.30492        -1.58835         0.21541
|125>    C      -28.86900        -0.64739         1.32179
|126>    H        2.40226        -2.19527         0.20591
|127>    H        0.43156         2.09133         0.85107
|128>    H       -2.44380        -4.78914         2.42781
|129>    H        4.38159         2.90451        -1.84490
|130>    H        4.08860         1.62437        -3.03455
|131>    H        5.57079         1.25372        -0.38505
|132>    H        6.31942         1.34481        -1.98225
|133>    H        5.26590        -0.01525        -1.57641
|134>    H       -6.94443        -6.15757         1.22319
|135>    H       -6.92171        -5.49927        -0.42125
|136>    H       -7.71986        -3.93359         2.08224
|137>    H       -8.83334        -4.56957         0.87206
|138>    H       -7.69295        -3.29150         0.43706
|139>    H        3.42859        -4.52827         0.51597
|140>    H        2.33207        -5.79398        -0.06335
|141>    H        2.48070        -5.49125         1.66343
|142>    H       -4.61739        -0.94916         0.69493
|143>    H       -6.58298         4.48997        -0.23801
|144>    H       -3.88072         7.15439        -1.00706
|145>    H       -2.55401         5.97202        -1.23418
|146>    H       -3.48737         7.04663         1.47614
|147>    H       -2.03417         7.57719         0.61351
|148>    H       -2.15329         5.91445         1.20053
|149>    H       -9.05458         4.53661         0.02982
|150>    H      -13.36196         6.25871         1.14459
|151>    H      -10.75589        -0.92424         1.53977
|152>    H      -11.11026         9.88243        -1.16345
|153>    H      -10.55853         8.92504        -2.54828
|154>    H       -9.02961         9.25518         0.08015
|155>    H       -8.64048        10.04802        -1.44937
|156>    H       -8.49592         8.29267        -1.30265
|157>    H      -13.25300        -4.74417        -0.11127
|158>    H      -13.82450        -3.98516        -1.60669
|159>    H      -15.23751        -3.80103         1.10033
|160>    H      -15.73734        -4.81951        -0.24792
|161>    H      -15.79722        -3.06002        -0.40213
|162>    H      -15.07562         0.70088         0.31262
|163>    H      -20.23555         3.42001         0.15856
|164>    H      -17.63393         7.41882        -0.39511
|165>    H      -15.86264         7.19166        -0.55714
|166>    H      -17.47202         7.18750         2.05235
|167>    H      -16.35836         8.45546         1.51711
|168>    H      -15.73793         6.85348         1.93998
|169>    H      -22.05709         1.74823        -0.01244
|170>    H      -26.27289         0.05963        -1.44607
|171>    H      -19.58167        -3.51847         1.14980
|172>    H      -26.30975         3.97759         2.21888
|173>    H      -27.32649         4.23566         0.79031
|174>    H      -24.35192         4.93525         1.00816
|175>    H      -25.68729         6.08966         1.07596
|176>    H      -25.36067         5.20543        -0.41713
|177>    H      -18.68697        -7.74108        -1.06876
|178>    H      -19.72366        -7.46389        -2.47909
|179>    H      -20.65207        -8.65181         0.18204
|180>    H      -20.38494        -9.55067        -1.31453
|181>    H      -21.68388        -8.35559        -1.22109
|182>    H      -23.86178        -5.17409        -0.15205
|183>    H      -27.80136        -8.32177        -0.37247
|184>    H      -29.61588        -6.42416        -0.58424
|185>    H      -30.35760        -1.87299         0.31807
|186>    H      -29.16935        -1.12739        -0.76907
|187>    H      -29.02524        -1.10773         2.29353
|188>    H      -29.44687         0.27027         1.26325
|189>    H      -27.81400        -0.41116         1.21387
|190> *
|191> 
|192>                          ****END OF INPUT****
================================================================================

                       ****************************
                       * Single Point Calculation *
                       ****************************

---------------------------------
CARTESIAN COORDINATES (ANGSTROEM)
---------------------------------
  C     -0.049210   -0.653840    0.114150
  C      0.207000   -2.015410    0.350740
  C     -0.860530   -2.903710    0.629490
  C     -2.193300   -2.511920    0.675200
  C     -2.442410   -1.139370    0.460140
  C     -1.380180   -0.242990    0.192620
  C      1.462380   -2.691160    0.362840
  C      1.372550   -4.017350    0.602810
  S     -0.278150   -4.532840    0.848110
  C      0.993210    0.295690   -0.223700
  C     -3.257730   -3.463260    0.918750
  C      1.097830    1.600380    0.167660
  C      2.217070    2.237440   -0.401690
  C      2.969140    1.467350   -1.237380
  S      2.284470   -0.118970   -1.320790
  C     -3.253050   -4.532390    1.770540
  C     -4.468380   -5.242820    1.738450
  C     -5.405910   -4.764490    0.871950
  S     -4.773320   -3.376670    0.057930
  C      4.214700    1.832310   -1.968560
  C      5.421480    1.053310   -1.443700
  C     -6.794350   -5.249400    0.635650
  C     -7.827000   -4.192990    1.031580
  F      2.522740    3.521390   -0.136120
  F     -4.685450   -6.319430    2.517030
  C      2.470400   -5.013390    0.684210
  C     -3.681250   -0.469120    0.475850
  C     -3.603380    0.872170    0.199450
  S     -1.953710    1.384260   -0.061240
  C     -4.751070    1.712560    0.120980
  S     -6.297720    0.932560    0.279800
  C     -6.279840    3.470580   -0.090540
  C     -4.922340    3.079520   -0.075830
  C     -3.837380    4.046910   -0.253810
  O     -2.656980    3.778730   -0.298630
  O     -4.304050    5.296500   -0.377590
  C     -3.331770    6.328000   -0.550630
  C     -2.712250    6.744400    0.775640
  C    -11.905050    4.044430    0.030360
  C    -10.791250    3.183210    0.086170
  C    -10.982380    1.780770    0.181500
  C    -12.233030    1.172700    0.209530
  C    -13.344460    2.041400    0.174020
  C    -13.159920    3.442310    0.091720
  C     -9.416720    3.526850    0.062210
  C     -8.581320    2.449200    0.104250
  S     -9.458410    0.939520    0.196080
  C    -11.784550    5.480230   -0.117980
  C    -12.369730   -0.268400    0.245760
  C    -12.577100    6.445550    0.437220
  C    -12.212910    7.739380    0.019880
  C    -11.168610    7.801360   -0.853790
  S    -10.596350    6.200070   -1.172640
  C    -11.577860   -1.174560    0.896120
  C    -11.999720   -2.499690    0.679080
  C    -13.084300   -2.646110   -0.134190
  S    -13.617630   -1.088230   -0.657580
  C    -10.531230    9.004470   -1.457920
  C     -9.079800    9.160190   -1.002320
  C    -13.803140   -3.892760   -0.517360
  C    -15.236280   -3.892950    0.016840
  F    -12.862480    8.836990    0.452880
  F    -11.369540   -3.549680    1.238170
  C     -7.154830    2.433120    0.083710
  C    -14.714350    1.707190    0.207720
  C    -15.568340    2.775170    0.113070
  S    -14.685550    4.280530    0.015810
  C    -16.989540    2.636180    0.085820
  S    -17.576350    0.994470    0.004260
  C    -19.315360    2.867250    0.114910
  C    -18.062520    3.518670    0.131800
  C    -18.061440    4.989970    0.219060
  O    -19.045480    5.634540    0.491770
  O    -16.873410    5.532020   -0.064450
  C    -16.744850    6.950580    0.039250
  C    -16.566940    7.390290    1.484880
  C    -23.807270   -0.551720   -0.091960
  C    -22.405610   -0.426100   -0.032930
  C    -21.590820   -1.586360   -0.053450
  C    -22.092830   -2.881930   -0.132520
  C    -23.497060   -3.004600   -0.174670
  C    -24.311670   -1.847490   -0.170030
  C    -21.633900    0.762040   -0.007440
  C    -20.287870    0.540220    0.003190
  S    -19.901570   -1.165450   -0.021660
  C    -24.705880    0.583190   -0.043930
  C    -21.204040   -4.023170   -0.198880
  C    -25.891140    0.738710   -0.707470
  C    -26.543350    1.935540   -0.355630
  C    -25.902620    2.701430    0.572440
  S    -24.422980    1.930080    1.027200
  C    -20.002260   -4.195030    0.430150
  C    -19.384530   -5.407180    0.069290
  C    -20.066260   -6.167900   -0.833250
  S    -21.542430   -5.371500   -1.252580
  C    -26.309630    4.022330    1.126670
  C    -25.365640    5.135170    0.668200
  C    -19.704020   -7.502160   -1.386770
  C    -20.669190   -8.585730   -0.903410
  F    -27.726470    2.287700   -0.892550
  F    -18.195610   -5.783090    0.577080
  C    -19.236000    1.503040    0.040350
  C    -24.278080   -4.183550   -0.170550
  C    -25.628970   -3.966080   -0.175410
  S    -26.002260   -2.261270   -0.184650
  C    -26.620950   -4.996170   -0.212390
  S    -26.052920   -6.646540   -0.167530
  C    -27.645030   -7.261990   -0.349750
  C    -28.560350   -6.270890   -0.453110
  C    -27.995510   -4.971790   -0.362190
  C    -28.900100   -3.808750   -0.462880
  O    -29.915920   -3.817590   -1.113640
  O    -28.502720   -2.770720    0.277980
  C    -29.304920   -1.588350    0.215410
  C    -28.869000   -0.647390    1.321790
  H      2.402260   -2.195270    0.205910
  H      0.431560    2.091330    0.851070
  H     -2.443800   -4.789140    2.427810
  H      4.381590    2.904510   -1.844900
  H      4.088600    1.624370   -3.034550
  H      5.570790    1.253720   -0.385050
  H      6.319420    1.344810   -1.982250
  H      5.265900   -0.015250   -1.576410
  H     -6.944430   -6.157570    1.223190
  H     -6.921710   -5.499270   -0.421250
  H     -7.719860   -3.933590    2.082240
  H     -8.833340   -4.569570    0.872060
  H     -7.692950   -3.291500    0.437060
  H      3.428590   -4.528270    0.515970
  H      2.332070   -5.793980   -0.063350
  H      2.480700   -5.491250    1.663430
  H     -4.617390   -0.949160    0.694930
  H     -6.582980    4.489970   -0.238010
  H     -3.880720    7.154390   -1.007060
  H     -2.554010    5.972020   -1.234180
  H     -3.487370    7.046630    1.476140
  H     -2.034170    7.577190    0.613510
  H     -2.153290    5.914450    1.200530
  H     -9.054580    4.536610    0.029820
  H    -13.361960    6.258710    1.144590
  H    -10.755890   -0.924240    1.539770
  H    -11.110260    9.882430   -1.163450
  H    -10.558530    8.925040   -2.548280
  H     -9.029610    9.255180    0.080150
  H     -8.640480   10.048020   -1.449370
  H     -8.495920    8.292670   -1.302650
  H    -13.253000   -4.744170   -0.111270
  H    -13.824500   -3.985160   -1.606690
  H    -15.237510   -3.801030    1.100330
  H    -15.737340   -4.819510   -0.247920
  H    -15.797220   -3.060020   -0.402130
  H    -15.075620    0.700880    0.312620
  H    -20.235550    3.420010    0.158560
  H    -17.633930    7.418820   -0.395110
  H    -15.862640    7.191660   -0.557140
  H    -17.472020    7.187500    2.052350
  H    -16.358360    8.455460    1.517110
  H    -15.737930    6.853480    1.939980
  H    -22.057090    1.748230   -0.012440
  H    -26.272890    0.059630   -1.446070
  H    -19.581670   -3.518470    1.149800
  H    -26.309750    3.977590    2.218880
  H    -27.326490    4.235660    0.790310
  H    -24.351920    4.935250    1.008160
  H    -25.687290    6.089660    1.075960
  H    -25.360670    5.205430   -0.417130
  H    -18.686970   -7.741080   -1.068760
  H    -19.723660   -7.463890   -2.479090
  H    -20.652070   -8.651810    0.182040
  H    -20.384940   -9.550670   -1.314530
  H    -21.683880   -8.355590   -1.221090
  H    -23.861780   -5.174090   -0.152050
  H    -27.801360   -8.321770   -0.372470
  H    -29.615880   -6.424160   -0.584240
  H    -30.357600   -1.872990    0.318070
  H    -29.169350   -1.127390   -0.769070
  H    -29.025240   -1.107730    2.293530
  H    -29.446870    0.270270    1.263250
  H    -27.814000   -0.411160    1.213870

----------------------------
CARTESIAN COORDINATES (A.U.)
----------------------------
  NO LB      ZA    FRAG     MASS         X           Y           Z
   0 C     6.0000    0    12.011   -0.092993   -1.235579    0.215712
   1 C     6.0000    0    12.011    0.391173   -3.808573    0.662803
   2 C     6.0000    0    12.011   -1.626166   -5.487217    1.189564
   3 C     6.0000    0    12.011   -4.144736   -4.746841    1.275943
   4 C     6.0000    0    12.011   -4.615486   -2.153097    0.869539
   5 C     6.0000    0    12.011   -2.608162   -0.459185    0.363999
   6 C     6.0000    0    12.011    2.763498   -5.085555    0.685668
   7 C     6.0000    0    12.011    2.593744   -7.591691    1.139146
   8 S    16.0000    0    32.060   -0.525627   -8.565826    1.602696
   9 C     6.0000    0    12.011    1.876895    0.558773   -0.422732
  10 C     6.0000    0    12.011   -6.156218   -6.544613    1.736186
  11 C     6.0000    0    12.011    2.074598    3.024280    0.316831
  12 C     6.0000    0    12.011    4.189655    4.228149   -0.759084
  13 C     6.0000    0    12.011    5.610861    2.772890   -2.338309
  14 S    16.0000    0    32.060    4.317023   -0.224821   -2.495931
  15 C     6.0000    0    12.011   -6.147374   -8.564976    3.345836
  16 C     6.0000    0    12.011   -8.444014   -9.907494    3.285194
  17 C     6.0000    0    12.011  -10.215689   -9.003581    1.647747
  18 S    16.0000    0    32.060   -9.020268   -6.380982    0.109472
  19 C     6.0000    0    12.011    7.964629    3.462564   -3.720039
  20 C     6.0000    0    12.011   10.245112    1.990467   -2.728198
  21 C     6.0000    0    12.011  -12.839461   -9.919928    1.201204
  22 C     6.0000    0    12.011  -14.790886   -7.923603    1.949404
  23 F     9.0000    0    18.998    4.767288    6.654463   -0.257230
  24 F     9.0000    0    18.998   -8.854217  -11.941992    4.756497
  25 C     6.0000    0    12.011    4.668379   -9.473934    1.292970
  26 C     6.0000    0    12.011   -6.956554   -0.886508    0.899226
  27 C     6.0000    0    12.011   -6.809401    1.648162    0.376906
  28 S    16.0000    0    32.060   -3.691977    2.615872   -0.115727
  29 C     6.0000    0    12.011   -8.978221    3.236269    0.228619
  30 S    16.0000    0    32.060  -11.900966    1.762283    0.528745
  31 C     6.0000    0    12.011  -11.867178    6.558446   -0.171096
  32 C     6.0000    0    12.011   -9.301875    5.819449   -0.143298
  33 C     6.0000    0    12.011   -7.251597    7.647552   -0.479631
  34 O     8.0000    0    15.999   -5.020965    7.140765   -0.564329
  35 O     8.0000    0    15.999   -8.133476   10.008934   -0.713542
  36 C     6.0000    0    12.011   -6.296133   11.958187   -1.040540
  37 C     6.0000    0    12.011   -5.125410   12.745069    1.465747
  38 C     6.0000    0    12.011  -22.497284    7.642865    0.057372
  39 C     6.0000    0    12.011  -20.392507    6.015395    0.162838
  40 C     6.0000    0    12.011  -20.753690    3.365168    0.342985
  41 C     6.0000    0    12.011  -23.117076    2.216082    0.395954
  42 C     6.0000    0    12.011  -25.217375    3.857687    0.328850
  43 C     6.0000    0    12.011  -24.868645    6.505023    0.173326
  44 C     6.0000    0    12.011  -17.795022    6.664781    0.117560
  45 C     6.0000    0    12.011  -16.216345    4.628317    0.197004
  46 S    16.0000    0    32.060  -17.873805    1.775435    0.370538
  47 C     6.0000    0    12.011  -22.269572   10.356134   -0.222950
  48 C     6.0000    0    12.011  -23.375402   -0.507202    0.464419
  49 C     6.0000    0    12.011  -23.767275   12.180324    0.826226
  50 C     6.0000    0    12.011  -23.079055   14.625309    0.037568
  51 C     6.0000    0    12.011  -21.105614   14.742434   -1.613429
  52 S    16.0000    0    32.060  -20.024200   11.716434   -2.215968
  53 C     6.0000    0    12.011  -21.878985   -2.219597    1.693421
  54 C     6.0000    0    12.011  -22.676184   -4.723730    1.283275
  55 C     6.0000    0    12.011  -24.725744   -5.000423   -0.253582
  56 S    16.0000    0    32.060  -25.733591   -2.056457   -1.242646
  57 C     6.0000    0    12.011  -19.901141   17.015982   -2.755070
  58 C     6.0000    0    12.011  -17.158335   17.310250   -1.894110
  59 C     6.0000    0    12.011  -26.084154   -7.356250   -0.977669
  60 C     6.0000    0    12.011  -28.792396   -7.356609    0.031823
  61 F     9.0000    0    18.998  -24.306565   16.699491    0.855819
  62 F     9.0000    0    18.998  -21.485317   -6.707923    2.339802
  63 C     6.0000    0    12.011  -13.520669    4.597930    0.158189
  64 C     6.0000    0    12.011  -27.806092    3.226122    0.392534
  65 C     6.0000    0    12.011  -29.419899    5.244311    0.213671
  66 S    16.0000    0    32.060  -27.751668    8.089029    0.029877
  67 C     6.0000    0    12.011  -32.105578    4.981658    0.162176
  68 S    16.0000    0    32.060  -33.214488    1.879276    0.008050
  69 C     6.0000    0    12.011  -36.500741    5.418317    0.217148
  70 C     6.0000    0    12.011  -34.133216    6.649323    0.249066
  71 C     6.0000    0    12.011  -34.131175    9.429677    0.413963
  72 O     8.0000    0    15.999  -35.990741   10.647737    0.929311
  73 O     8.0000    0    15.999  -31.886124   10.454003   -0.121793
  74 C     6.0000    0    12.011  -31.643181   13.134693    0.074172
  75 C     6.0000    0    12.011  -31.306979   13.965624    2.806017
  76 C     6.0000    0    12.011  -44.989220   -1.042600   -0.173779
  77 C     6.0000    0    12.011  -42.340467   -0.805212   -0.062229
  78 C     6.0000    0    12.011  -40.800737   -2.997786   -0.101006
  79 C     6.0000    0    12.011  -41.749398   -5.446058   -0.250427
  80 C     6.0000    0    12.011  -44.403008   -5.677871   -0.330078
  81 C     6.0000    0    12.011  -45.942398   -3.491250   -0.321310
  82 C     6.0000    0    12.011  -40.882146    1.440047   -0.014060
  83 C     6.0000    0    12.011  -38.338518    1.020868    0.006028
  84 S    16.0000    0    32.060  -37.608517   -2.202381   -0.040931
  85 C     6.0000    0    12.011  -46.687347    1.102069   -0.083016
  86 C     6.0000    0    12.011  -40.069829   -7.602689   -0.375829
  87 C     6.0000    0    12.011  -48.927164    1.395960   -1.336925
  88 C     6.0000    0    12.011  -50.159662    3.657641   -0.672043
  89 C     6.0000    0    12.011  -48.948858    5.104963    1.081755
  90 S    16.0000    0    32.060  -46.152744    3.647323    1.941127
  91 C     6.0000    0    12.011  -37.798793   -7.927458    0.812866
  92 C     6.0000    0    12.011  -36.631453  -10.218089    0.130939
  93 C     6.0000    0    12.011  -37.919736  -11.655642   -1.574614
  94 S    16.0000    0    32.060  -40.709293  -10.150664   -2.367033
  95 C     6.0000    0    12.011  -49.717995    7.601102    2.129098
  96 C     6.0000    0    12.011  -47.934113    9.704065    1.262715
  97 C     6.0000    0    12.011  -37.235202  -14.177028   -2.620616
  98 C     6.0000    0    12.011  -39.059109  -16.224678   -1.707197
  99 F     9.0000    0    18.998  -52.395435    4.323126   -1.686675
 100 F     9.0000    0    18.998  -34.384720  -10.928456    1.090523
 101 C     6.0000    0    12.011  -36.350772    2.840334    0.076250
 102 C     6.0000    0    12.011  -45.878922   -7.905764   -0.322293
 103 C     6.0000    0    12.011  -48.431734   -7.494805   -0.331477
 104 S    16.0000    0    32.060  -49.137150   -4.273181   -0.348938
 105 C     6.0000    0    12.011  -50.306305   -9.441393   -0.401359
 106 S    16.0000    0    32.060  -49.232884  -12.560140   -0.316586
 107 C     6.0000    0    12.011  -52.241536  -13.723172   -0.660932
 108 C     6.0000    0    12.011  -53.971240  -11.850265   -0.856254
 109 C     6.0000    0    12.011  -52.903847   -9.395321   -0.684440
 110 C     6.0000    0    12.011  -54.613274   -7.197494   -0.874716
 111 O     8.0000    0    15.999  -56.532896   -7.214200   -2.104475
 112 O     8.0000    0    15.999  -53.862335   -5.235902    0.525306
 113 C     6.0000    0    12.011  -55.378273   -3.001547    0.407066
 114 C     6.0000    0    12.011  -54.554504   -1.223390    2.497821
 115 H     1.0000    0     1.008    4.539614   -4.148459    0.389114
 116 H     1.0000    0     1.008    0.815530    3.952041    1.608289
 117 H     1.0000    0     1.008   -4.618113   -9.050163    4.587896
 118 H     1.0000    0     1.008    8.280005    5.488728   -3.486356
 119 H     1.0000    0     1.008    7.726334    3.069614   -5.734468
 120 H     1.0000    0     1.008   10.527267    2.369187   -0.727639
 121 H     1.0000    0     1.008   11.941973    2.541323   -3.745910
 122 H     1.0000    0     1.008    9.951109   -0.028818   -2.978983
 123 H     1.0000    0     1.008  -13.123071  -11.636121    2.311494
 124 H     1.0000    0     1.008  -13.080136  -10.392114   -0.796047
 125 H     1.0000    0     1.008  -14.588421   -7.433408    3.934863
 126 H     1.0000    0     1.008  -16.692593   -8.635236    1.647955
 127 H     1.0000    0     1.008  -14.537569   -6.220034    0.825924
 128 H     1.0000    0     1.008    6.479096   -8.557190    0.975042
 129 H     1.0000    0     1.008    4.406974  -10.949035   -0.119714
 130 H     1.0000    0     1.008    4.687844  -10.376959    3.143427
 131 H     1.0000    0     1.008   -8.725603   -1.793652    1.313227
 132 H     1.0000    0     1.008  -12.440029    8.484814   -0.449774
 133 H     1.0000    0     1.008   -7.333498   13.519838   -1.903068
 134 H     1.0000    0     1.008   -4.826379   11.285482   -2.332262
 135 H     1.0000    0     1.008   -6.590174   13.316201    2.789500
 136 H     1.0000    0     1.008   -3.844024   14.318814    1.159366
 137 H     1.0000    0     1.008   -4.069128   11.176691    2.268673
 138 H     1.0000    0     1.008  -17.110676    8.572950    0.056352
 139 H     1.0000    0     1.008  -25.250445   11.827248    2.162962
 140 H     1.0000    0     1.008  -20.325686   -1.746560    2.909744
 141 H     1.0000    0     1.008  -20.995349   18.675086   -2.198602
 142 H     1.0000    0     1.008  -19.952730   16.865881   -4.815551
 143 H     1.0000    0     1.008  -17.063490   17.489756    0.151462
 144 H     1.0000    0     1.008  -16.328141   18.988006   -2.738912
 145 H     1.0000    0     1.008  -16.054962   15.670875   -2.461652
 146 H     1.0000    0     1.008  -25.044540   -8.965182   -0.210270
 147 H     1.0000    0     1.008  -26.124519   -7.530861   -3.036204
 148 H     1.0000    0     1.008  -28.794721   -7.182906    2.079322
 149 H     1.0000    0     1.008  -29.739263   -9.107554   -0.468501
 150 H     1.0000    0     1.008  -29.852419   -5.782600   -0.759916
 151 H     1.0000    0     1.008  -28.488793    1.324471    0.590766
 152 H     1.0000    0     1.008  -38.239648    6.462882    0.299635
 153 H     1.0000    0     1.008  -33.323298   14.019538   -0.746650
 154 H     1.0000    0     1.008  -29.976045   13.590268   -1.052842
 155 H     1.0000    0     1.008  -33.017333   13.582407    3.878379
 156 H     1.0000    0     1.008  -30.912820   15.978504    2.866922
 157 H     1.0000    0     1.008  -29.740378   12.951200    3.666031
 158 H     1.0000    0     1.008  -41.681859    3.303676   -0.023508
 159 H     1.0000    0     1.008  -49.648567    0.112684   -2.732676
 160 H     1.0000    0     1.008  -37.003994   -6.648945    2.172807
 161 H     1.0000    0     1.008  -49.718222    7.516556    4.193076
 162 H     1.0000    0     1.008  -51.639582    8.004237    1.493469
 163 H     1.0000    0     1.008  -46.018460    9.326271    1.905146
 164 H     1.0000    0     1.008  -48.541943   11.507790    2.033270
 165 H     1.0000    0     1.008  -47.924721    9.836837   -0.788261
 166 H     1.0000    0     1.008  -35.313256  -14.628521   -2.019664
 167 H     1.0000    0     1.008  -37.272316  -14.104708   -4.684801
 168 H     1.0000    0     1.008  -39.026756  -16.349551    0.344006
 169 H     1.0000    0     1.008  -38.521954  -18.048151   -2.484102
 170 H     1.0000    0     1.008  -40.976595  -15.789777   -2.307526
 171 H     1.0000    0     1.008  -45.092229   -9.777613   -0.287333
 172 H     1.0000    0     1.008  -52.536957  -15.725866   -0.703866
 173 H     1.0000    0     1.008  -55.965902  -12.139903   -1.104054
 174 H     1.0000    0     1.008  -57.367550   -3.539438    0.601065
 175 H     1.0000    0     1.008  -55.122083   -2.130458   -1.453332
 176 H     1.0000    0     1.008  -54.849755   -2.093306    4.334144
 177 H     1.0000    0     1.008  -55.646520    0.510736    2.387197
 178 H     1.0000    0     1.008  -52.560843   -0.776980    2.293882

--------------------------------
INTERNAL COORDINATES (ANGSTROEM)
--------------------------------
 C      0   0   0     0.000000000000     0.00000000     0.00000000
 C      1   0   0     1.405521702821     0.00000000     0.00000000
 C      2   1   0     1.416474056734   120.21549673     0.00000000
 C      3   2   1     1.389915350336   123.52948107     0.63122515
 C      4   3   2     1.411453186684   115.99774470   358.31941922
 C      1   2   3     1.395147448946   116.72517086     1.05823735
 C      2   1   3     1.425750124285   128.39461572   180.41838574
 C      7   2   1     1.350716456515   114.09835124   181.00694690
 S      3   2   1     1.743853699626   111.02920358   178.73850613
 C      1   2   3     1.449961827015   122.85785838   182.29110818
 C      4   3   2     1.448231895450   121.67709550   177.83890608
 C     10   1   2     1.366134689590   127.85883429   216.95227765
 C     12  10   1     1.408084885119   112.15537610   182.55507610
 C     13  12  10     1.362727290803   115.52889533     0.92258564
 S     14  13  12     1.729780731596   109.23046295   359.43392472
 C     11   4   3     1.366970030176   128.02789769    38.20656923
 C     16  11   4     1.408107794844   112.17546688   180.37251830
 C     17  16  11     1.363299064696   115.53155834     0.89279913
 S     18  17  16     1.728827065065   109.22583707   359.89419250
 C     14  13  12     1.489711283303   128.60782575   181.23977692
 C     20  14  13     1.529260274773   111.50267199   113.00853886
 C     18  17  16     1.489543900562   128.87500364   182.43094371
 C     22  18  17     1.529421026238   111.31116151   115.65697384
 F     13  12  10     1.346287181956   122.15367008   180.97314422
 F     17  16  11     1.346252314167   121.96906603   181.08890956
 C      8   7   2     1.484586226563   128.26494485   179.99241027
 C      5   4   3     1.408618618434   128.04107288   181.31350587
 C     27   5   4     1.371684935034   114.39988287   181.41574686
 S      6   1   2     1.743939254389   125.47413789   180.12033253
 C     28  27   5     1.424642140715   122.83281477   177.69946454
 S     30  28  27     1.739468313853   116.53556149   355.65050544
 C     30  28  27     2.339340236840   167.09735901   177.67689596
 C     30  28  27     1.391634733183   133.34358871   176.39885302
 C     33  30  28     1.464465258755   125.09070414   359.50340512
 O     34  33  30     1.211310655777   125.46458846     2.67893154
 O     34  33  30     1.339618432764   111.67405907   182.10200102
 C     36  34  33     1.428027832362   116.60229042   179.72200325
 C     37  36  34     1.521902133286   111.66562150   279.17038962
 C     32  30  33     5.655696966475   136.41062268   180.39221460
 C     39  32  30     1.409029838045    32.07199303   357.40497772
 C     40  39  32     1.418610742734   120.02703583   182.80419587
 C     41  40  39     1.390920640547   123.68902009     0.78506343
 C     42  41  40     1.411090817418   116.01255060   358.30744203
 C     39  32  30     1.393202160815   148.53336080   353.99729561
 C     40  39  32     1.417037491424   128.16059994     2.92444383
 C     45  40  39     1.364181089189   113.69831355   181.29601507
 S     41  40  39     1.740804038311   111.12227554   178.62803520
 C     39  32  30     1.448463546521    90.89640645   177.06203993
 C     42  41  40     1.448022345442   121.36373920   177.11398317
 C     48  39  32     1.366830364347   127.60650224   215.17052307
 C     50  48  39     1.407410068388   112.25679523   183.23915025
 C     51  50  48     1.362975890946   115.47676630     0.63274264
 S     52  51  50     1.730108809931   109.23688665   359.59354380
 C     49  42  41     1.367900644089   128.06276789    36.24306119
 C     54  49  42     1.407494844786   112.13912268   181.37698845
 C     55  54  49     1.363510427426   115.56187483     0.81693271
 S     56  55  54     1.727821771885   109.23125952   359.88458898
 C     52  51  50     1.489530125039   128.65052158   181.22038621
 C     58  52  51     1.529205389508   111.56499468   115.38052032
 C     56  55  54     1.489189852571   128.85285897   182.58524038
 C     60  56  55     1.529463937365   111.25632665   115.25005037
 F     51  50  48     1.346914212933   121.93937962   180.25479780
 F     55  54  49     1.346175122560   122.00443180   180.72450397
 C     32  30  33     1.368317877615    80.59502365   179.70351131
 C     43  42  41     1.410471774337   128.20701054   180.88974447
 C     65  43  42     1.370707416993   114.76108655   182.08158689
 S     44  39  32     1.742389736368   125.36800265   183.08390533
 C     66  65  43     1.428240253809   123.05556230   177.93136283
 S     68  66  65     1.745339432260   115.27650709   353.54106445
 C     68  66  65     2.337451228454   168.59721003   166.92073262
 C     68  66  65     1.390031956791   134.88543179   172.21983567
 C     71  68  66     1.473885736412   129.43105507     0.59855421
 O     72  71  68     1.207549564449   123.06706893   193.71253156
 O     72  71  68     1.336267714008   113.14276308    15.19802228
 C     74  72  71     1.428143493211   117.87536445   182.34170410
 C     75  74  72     1.521460794467   111.50514435    79.36416358
 C     70  68  71     5.648841164867   136.96578323   178.50229018
 C     77  70  68     1.408515417346    32.13082140     4.47108997
 C     78  77  70     1.417923510666   119.88451577   182.21696829
 C     79  78  77     1.391678026664   123.73201725     0.11489349
 C     80  79  78     1.410207943638   116.22336993   359.12740601
 C     77  70  68     1.392671597255   148.56089387     0.56788362
 C     78  77  70     1.416990728198   128.13359783   359.30277131
 C     83  78  77     1.364226473207   113.65012224   182.20855850
 S     79  78  77     1.741189649263   111.06468100   178.19259997
 C     77  70  68     1.448387904223    91.02469227   181.35683168
 C     80  79  78     1.448026260570   120.99085345   177.71182454
 C     86  77  70     1.367228243418   127.65339175   142.42224666
 C     88  86  77     1.407682960968   112.15203868   176.11835578
 C     89  88  86     1.363244787226   115.47102223   359.27798509
 S     90  89  88     1.729486053630   109.30184280     0.56937455
 C     87  80  79     1.367292861424   128.13187641    36.20253626
 C     92  87  80     1.407521905691   112.08914951   183.27263984
 C     93  92  87     1.363095434260   115.52314311     0.81931512
 S     94  93  92     1.728921189008   109.30143976   359.46826863
 C     90  89  88     1.489162463602   128.55347375   178.49335127
 C     96  90  89     1.529615875506   111.41366633   248.46861243
 C     94  93  92     1.489245431620   128.64179573   181.64329596
 C     98  94  93     1.529481599562   111.33206369   112.17244224
 F     89  88  86     1.346132492142   122.00177147   179.93960386
 F     93  92  87     1.346361681941   122.09399041   180.41236008
 C     70  68  71     1.368548913010    80.97183161   179.29481597
 C     81  80  79     1.414189632723   128.48891466   184.36345059
 C    103  81  80     1.368291128598   114.37721638   177.97780866
 S     82  77  70     1.740552263191   124.99074542   179.56943926
 C    104 103  81     1.430551379329   124.76796110   178.06255109
 S    106 104 103     1.745964386063   117.02492399     3.19028222
 C    107 106 104     1.716623745321    91.97283938   183.73504629
 C    108 107 106     1.353060679349   111.89507163     0.59394641
 C    106 104 103     1.382913452823   132.79225508   187.88778344
 C    110 106 104     1.476849208890   129.05619472   356.24256754
 O    111 110 106     1.206423224080   123.14422072   147.89043545
 O    111 110 106     1.335773440708   113.07567990   325.53937974
 C    113 111 110     1.430188330885   116.82828883   178.57268872
 C    114 113 111     1.516413094246   108.65287640   168.33759694
 H      7   2   1     1.074201252745   123.39217394     1.60517513
 H     12  10   1     1.073311158751   124.86957640     4.27468093
 H     16  11   4     1.073689889074   124.82401344     3.03516573
 H     20  14  13     1.092134107013   108.22246928   352.00007701
 H     20  14  13     1.093377763493   109.60322568   234.03201839
 H     21  20  14     1.087748806802   110.39542252   300.72238725
 H     21  20  14     1.086878372266   110.19805938   180.72852332
 H     21  20  14     1.087951080748   110.21870717    60.72031649
 H     22  18  17     1.092016486551   108.26957729   354.60712894
 H     22  18  17     1.093477570186   109.65093655   236.63839435
 H     23  22  18     1.087498862160   110.38611563   300.96800697
 H     23  22  18     1.086268531441   110.36729422   181.14145106
 H     23  22  18     1.088167107112   110.34166530    60.94793748
 H     26   8   7     1.087094378653   110.11617679   359.89080556
 H     26   8   7     1.089633833267   110.43448418   239.47411103
 H     26   8   7     1.089645849806   110.51750609   120.43970897
 H     27   5   4     1.074612743085   123.77026511     2.09115740
 H     32  30  33     1.073683953778   155.56452096     0.80076523
 H     37  36  34     1.092059924867   104.77352339   158.68074452
 H     37  36  34     1.094930582503   108.93153629    40.99949806
 H     38  37  36     1.087591024834   110.31653600   304.26912395
 H     38  37  36     1.086102116470   109.50245037   184.12356308
 H     38  37  36     1.087099257750   109.93943837    64.60650781
 H     45  40  39     1.073223997728   123.77863366     2.21782975
 H     50  48  39     1.072980299027   124.67705601     5.79412559
 H     54  49  42     1.073582836022   125.01616114     4.19408408
 H     58  52  51     1.092154789121   108.24510733   354.29051576
 H     58  52  51     1.093590117229   109.57486436   236.37940365
 H     59  58  52     1.087788323664   110.43600540   300.45098986
 H     59  58  52     1.086783269010   110.13987369   180.47438272
 H     59  58  52     1.087982037398   110.23857830    60.50685739
 H     60  56  55     1.091999128113   108.29010973   354.24201886
 H     60  56  55     1.093450437148   109.66384906   236.22190522
 H     61  60  56     1.087382811801   110.43054828   301.25652462
 H     61  60  56     1.086127255343   110.31851694   181.53449547
 H     61  60  56     1.088100146770   110.39399285    61.31980931
 H     65  43  42     1.074327621817   123.42744416     2.89682045
 H     70  68  71     1.074336342213   154.63879406   358.40987171
 H     75  74  72     1.094705692686   108.84081369   317.35403195
 H     75  74  72     1.091831068710   104.61929489   199.59229607
 H     76  75  74     1.087343456043   110.15999673   293.52600398
 H     76  75  74     1.085878224388   109.52125345   173.51716825
 H     76  75  74     1.087445891160   110.12830611    53.67497396
 H     83  78  77     1.073166106528   123.75849168     1.23437165
 H     88  86  77     1.073504852760   124.76681917   353.50414812
 H     92  87  80     1.073557406104   124.99668111     5.78952722
 H     96  90  89     1.093125960766   109.60841119   127.45585316
 H     96  90  89     1.092086076324   108.24787403     9.40438626
 H     97  96  90     1.087735742908   110.35006694   299.39232901
 H     97  96  90     1.086636139745   110.11488270   179.43575583
 H     97  96  90     1.087613156136   110.42116559    59.50571815
 H     98  94  93     1.092064022391   108.31894896   351.20477400
 H     98  94  93     1.093166640956   109.61238462   233.12915525
 H     99  98  94     1.087594300877   110.39660549   300.22146957
 H     99  98  94     1.086704615109   110.14833463   180.25303492
 H     99  98  94     1.087879036520   110.26911254    60.22775775
 H    103  81  80     1.074624321147   123.67848292   358.75287949
 H    108 107 106     1.071489111331   119.48353956   180.36279208
 H    109 108 107     1.074630332114   124.70192649   179.31776273
 H    114 113 111     1.095305522491   108.67098776    46.64713427
 H    114 113 111     1.095474425489   108.52845052   289.18471951
 H    115 114 113     1.086555327998   110.38195040   298.23088103
 H    115 114 113     1.086029716030   109.39198437   177.99014532
 H    115 114 113     1.086497279932   109.97309584    58.15822096

---------------------------
INTERNAL COORDINATES (A.U.)
---------------------------
 C      0   0   0     0.000000000000     0.00000000     0.00000000
 C      1   0   0     2.656051093614     0.00000000     0.00000000
 C      2   1   0     2.676748043031   120.21549673     0.00000000
 C      3   2   1     2.626559361468   123.52948107     0.63122515
 C      4   3   2     2.667259973683   115.99774470   358.31941922
 C      1   2   3     2.636446594946   116.72517086     1.05823735
 C      2   1   3     2.694277270304   128.39461572   180.41838574
 C      7   2   1     2.552484187394   114.09835124   181.00694690
 S      3   2   1     3.295405909919   111.02920358   178.73850613
 C      1   2   3     2.740030757698   122.85785838   182.29110818
 C      4   3   2     2.736761660811   121.67709550   177.83890608
 C     10   1   2     2.581620425374   127.85883429   216.95227765
 C     12  10   1     2.660894806188   112.15537610   182.55507610
 C     13  12  10     2.575181374839   115.52889533     0.92258564
 S     14  13  12     3.268811854450   109.23046295   359.43392472
 C     11   4   3     2.583198990311   128.02789769    38.20656923
 C     16  11   4     2.660938099295   112.17546688   180.37251830
 C     17  16  11     2.576261870906   115.53155834     0.89279913
 S     18  17  16     3.267009685883   109.22583707   359.89419250
 C     14  13  12     2.815146344055   128.60782575   181.23977692
 C     20  14  13     2.889883106807   111.50267199   113.00853886
 C     18  17  16     2.814830036514   128.87500364   182.43094371
 C     22  18  17     2.890186883051   111.31116151   115.65697384
 F     13  12  10     2.544114071506   122.15367008   180.97314422
 F     17  16  11     2.544048180933   121.96906603   181.08890956
 C      8   7   2     2.805461390395   128.26494485   179.99241027
 C      5   4   3     2.661903415984   128.04107288   181.31350587
 C     27   5   4     2.592108869240   114.39988287   181.41574686
 S      6   1   2     3.295567584991   125.47413789   180.12033253
 C     28  27   5     2.692183484794   122.83281477   177.69946454
 S     30  28  27     3.287118731817   116.53556149   355.65050544
 C     30  28  27     4.420712381691   167.09735901   177.67689596
 C     30  28  27     2.629808524168   133.34358871   176.39885302
 C     33  30  28     2.767438271689   125.09070414   359.50340512
 O     34  33  30     2.289045402520   125.46458846     2.67893154
 O     34  33  30     2.531511961876   111.67405907   182.10200102
 C     36  34  33     2.698581514781   116.60229042   179.72200325
 C     37  36  34     2.875978234541   111.66562150   279.17038962
 C     32  30  33    10.687718363088   136.41062268   180.39221460
 C     39  32  30     2.662680508428    32.07199303   357.40497772
 C     40  39  32     2.680785794406   120.02703583   182.80419587
 C     41  40  39     2.628459084652   123.68902009     0.78506343
 C     42  41  40     2.666575195010   116.01255060   358.30744203
 C     39  32  30     2.632770533128   148.53336080   353.99729561
 C     40  39  32     2.677812780289   128.16059994     2.92444383
 C     45  40  39     2.577928655641   113.69831355   181.29601507
 S     41  40  39     3.289642885232   111.12227554   178.62803520
 C     39  32  30     2.737199417893    90.89640645   177.06203993
 C     42  41  40     2.736365668684   121.36373920   177.11398317
 C     48  39  32     2.582935060143   127.60650224   215.17052307
 C     50  48  39     2.659619587377   112.25679523   183.23915025
 C     51  50  48     2.575651161025   115.47676630     0.63274264
 S     52  51  50     3.269431832654   109.23688665   359.59354380
 C     49  42  41     2.584957595743   128.06276789    36.24306119
 C     54  49  42     2.659779791552   112.13912268   181.37698845
 C     55  54  49     2.576661288581   115.56187483     0.81693271
 S     56  55  54     3.265109957089   109.23125952   359.88458898
 C     52  51  50     2.814804004550   128.65052158   181.22038621
 C     58  52  51     2.889779388686   111.56499468   115.38052032
 C     56  55  54     2.814160982773   128.85285897   182.58524038
 C     60  56  55     2.890267973329   111.25632665   115.25005037
 F     51  50  48     2.545298988329   121.93937962   180.25479780
 F     55  54  49     2.543902309937   122.00443180   180.72450397
 C     32  30  33     2.585746052840    80.59502365   179.70351131
 C     43  42  41     2.665405373122   128.20701054   180.88974447
 C     65  43  42     2.590261627852   114.76108655   182.08158689
 S     44  39  32     3.292639420290   125.36800265   183.08390533
 C     66  65  43     2.698982933141   123.05556230   177.93136283
 S     68  66  65     3.298213537704   115.27650709   353.54106445
 C     68  66  65     4.417142673175   168.59721003   166.92073262
 C     68  66  65     2.626779715733   134.88543179   172.21983567
 C     71  68  66     2.785240394512   129.43105507     0.59855421
 O     72  71  68     2.281937969944   123.06706893   193.71253156
 O     72  71  68     2.525180021076   113.14276308    15.19802228
 C     74  72  71     2.698800082110   117.87536445   182.34170410
 C     75  74  72     2.875144225041   111.50514435    79.36416358
 C     70  68  71    10.674762775620   136.96578323   178.50229018
 C     77  70  68     2.661708394189    32.13082140     4.47108997
 C     78  77  70     2.679487114007   119.88451577   182.21696829
 C     79  78  77     2.629890336991   123.73201725     0.11489349
 C     80  79  78     2.664906805356   116.22336993   359.12740601
 C     77  70  68     2.631767913302   148.56089387     0.56788362
 C     78  77  70     2.677724410600   128.13359783   359.30277131
 C     83  78  77     2.578014419007   113.65012224   182.20855850
 S     79  78  77     3.290371584325   111.06468100   178.19259997
 C     77  70  68     2.737056474666    91.02469227   181.35683168
 C     80  79  78     2.736373067203   120.99085345   177.71182454
 C     86  77  70     2.583686942622   127.65339175   142.42224666
 C     88  86  77     2.660135279617   112.15203868   176.11835578
 C     89  88  86     2.576159301354   115.47102223   359.27798509
 S     90  89  88     3.268254993797   109.30184280     0.56937455
 C     87  80  79     2.583809052956   128.13187641    36.20253626
 C     92  87  80     2.659830929251   112.08914951   183.27263984
 C     93  92  87     2.575877065150   115.52314311     0.81931512
 S     94  93  92     3.267187554358   109.30143976   359.46826863
 C     90  89  88     2.814109225123   128.55347375   178.49335127
 C     96  90  89     2.890555094805   111.41366633   248.46861243
 C     94  93  92     2.814266011954   128.64179573   181.64329596
 C     98  94  93     2.890301350045   111.33206369   112.17244224
 F     89  88  86     2.543821750121   122.00177147   179.93960386
 F     93  92  87     2.544254856075   122.09399041   180.41236008
 C     70  68  71     2.586182646464    80.97183161   179.29481597
 C     81  80  79     2.672431107276   128.48891466   184.36345059
 C    103  81  80     2.585695504524   114.37721638   177.97780866
 S     82  77  70     3.289167099208   124.99074542   179.56943926
 C    104 103  81     2.703350327435   124.76796110   178.06255109
 S    106 104 103     3.299394529239   117.02492399     3.19028222
 C    107 106 104     3.243948753643    91.97283938   183.73504629
 C    108 107 106     2.556914126547   111.89507163     0.59394641
 C    106 104 103     2.613327692752   132.79225508   187.88778344
 C    110 106 104     2.790840545901   129.05619472   356.24256754
 O    111 110 106     2.279809495114   123.14422072   147.89043545
 O    111 110 106     2.524245979903   113.07567990   325.53937974
 C    113 111 110     2.702664265303   116.82828883   178.57268872
 C    114 113 111     2.865605454017   108.65287640   168.33759694
 H      7   2   1     2.029946180404   123.39217394     1.60517513
 H     12  10   1     2.028264146522   124.86957640     4.27468093
 H     16  11   4     2.028979843110   124.82401344     3.03516573
 H     20  14  13     2.063834363768   108.22246928   352.00007701
 H     20  14  13     2.066184533920   109.60322568   234.03201839
 H     21  20  14     2.055547347356   110.39542252   300.72238725
 H     21  20  14     2.053902464465   110.19805938   180.72852332
 H     21  20  14     2.055929589717   110.21870717    60.72031649
 H     22  18  17     2.063612093309   108.26957729   354.60712894
 H     22  18  17     2.066373141237   109.65093655   236.63839435
 H     23  22  18     2.055075020434   110.38611563   300.96800697
 H     23  22  18     2.052750032321   110.36729422   181.14145106
 H     23  22  18     2.056337820383   110.34166530    60.94793748
 H     26   8   7     2.054310657380   110.11617679   359.89080556
 H     26   8   7     2.059109531129   110.43448418   239.47411103
 H     26   8   7     2.059132239098   110.51750609   120.43970897
 H     27   5   4     2.030723784452   123.77026511     2.09115740
 H     32  30  33     2.028968627026   155.56452096     0.80076523
 H     37  36  34     2.063694179829   104.77352339   158.68074452
 H     37  36  34     2.069118936585   108.93153629    40.99949806
 H     38  37  36     2.055249182647   110.31653600   304.26912395
 H     38  37  36     2.052435553600   109.50245037   184.12356308
 H     38  37  36     2.054319877536   109.93943837    64.60650781
 H     45  40  39     2.028099436059   123.77863366     2.21782975
 H     50  48  39     2.027638912254   124.67705601     5.79412559
 H     54  49  42     2.028777542159   125.01616114     4.19408408
 H     58  52  51     2.063873447289   108.24510733   354.29051576
 H     58  52  51     2.066585824325   109.57486436   236.37940365
 H     59  58  52     2.055622023402   110.43600540   300.45098986
 H     59  58  52     2.053722745357   110.13987369   180.47438272
 H     59  58  52     2.055988089307   110.23857830    60.50685739
 H     60  56  55     2.063579290615   108.29010973   354.24201886
 H     60  56  55     2.066321867227   109.66384906   236.22190522
 H     61  60  56     2.054855717037   110.43054828   301.25652462
 H     61  60  56     2.052483059187   110.31851694   181.53449547
 H     61  60  56     2.056211283674   110.39399285    61.31980931
 H     65  43  42     2.030184983342   123.42744416     2.89682045
 H     70  68  71     2.030201462502   154.63879406   358.40987171
 H     75  74  72     2.068693956422   108.84081369   317.35403195
 H     75  74  72     2.063261704368   104.61929489   199.59229607
 H     76  75  74     2.054781345433   110.15999673   293.52600398
 H     76  75  74     2.052012458882   109.52125345   173.51716825
 H     76  75  74     2.054974919750   110.12830611    53.67497396
 H     83  78  77     2.027990037544   123.75849168     1.23437165
 H     88  86  77     2.028630175153   124.76681917   353.50414812
 H     92  87  80     2.028729486579   124.99668111     5.78952722
 H     96  90  89     2.065708695727   109.60841119   127.45585316
 H     96  90  89     2.063743598920   108.24787403     9.40438626
 H     97  96  90     2.055522660174   110.35006694   299.39232901
 H     97  96  90     2.053444711340   110.11488270   179.43575583
 H     97  96  90     2.055291004747   110.42116559    59.50571815
 H     98  94  93     2.063701923027   108.31894896   351.20477400
 H     98  94  93     2.065785570146   109.61238462   233.12915525
 H     99  98  94     2.055255373471   110.39660549   300.22146957
 H     99  98  94     2.053574111025   110.14833463   180.25303492
 H     99  98  94     2.055793445857   110.26911254    60.22775775
 H    103  81  80     2.030745663818   123.67848292   358.75287949
 H    108 107 106     2.024820975893   119.48353956   180.36279208
 H    109 108 107     2.030757022901   124.70192649   179.31776273
 H    114 113 111     2.069827470480   108.67098776    46.64713427
 H    114 113 111     2.070146650889   108.52845052   289.18471951
 H    115 114 113     2.053291999268   110.38195040   298.23088103
 H    115 114 113     2.052298736597   109.39198437   177.99014532
 H    115 114 113     2.053182304322   109.97309584    58.15822096

---------------------
BASIS SET INFORMATION
---------------------
There are 5 groups of distinct atoms

 Group   1 Type C   : 7s4p1d contracted to 3s2p1d pattern {511/31/1}
 Group   2 Type S   : 10s7p1d contracted to 4s3p1d pattern {5311/511/1}
 Group   3 Type F   : 7s4p1d contracted to 3s2p1d pattern {511/31/1}
 Group   4 Type O   : 7s4p1d contracted to 3s2p1d pattern {511/31/1}
 Group   5 Type H   : 4s1p contracted to 2s1p pattern {31/1}

Atom   0C    basis set group =>   1
Atom   1C    basis set group =>   1
Atom   2C    basis set group =>   1
Atom   3C    basis set group =>   1
Atom   4C    basis set group =>   1
Atom   5C    basis set group =>   1
Atom   6C    basis set group =>   1
Atom   7C    basis set group =>   1
Atom   8S    basis set group =>   2
Atom   9C    basis set group =>   1
Atom  10C    basis set group =>   1
Atom  11C    basis set group =>   1
Atom  12C    basis set group =>   1
Atom  13C    basis set group =>   1
Atom  14S    basis set group =>   2
Atom  15C    basis set group =>   1
Atom  16C    basis set group =>   1
Atom  17C    basis set group =>   1
Atom  18S    basis set group =>   2
Atom  19C    basis set group =>   1
Atom  20C    basis set group =>   1
Atom  21C    basis set group =>   1
Atom  22C    basis set group =>   1
Atom  23F    basis set group =>   3
Atom  24F    basis set group =>   3
Atom  25C    basis set group =>   1
Atom  26C    basis set group =>   1
Atom  27C    basis set group =>   1
Atom  28S    basis set group =>   2
Atom  29C    basis set group =>   1
Atom  30S    basis set group =>   2
Atom  31C    basis set group =>   1
Atom  32C    basis set group =>   1
Atom  33C    basis set group =>   1
Atom  34O    basis set group =>   4
Atom  35O    basis set group =>   4
Atom  36C    basis set group =>   1
Atom  37C    basis set group =>   1
Atom  38C    basis set group =>   1
Atom  39C    basis set group =>   1
Atom  40C    basis set group =>   1
Atom  41C    basis set group =>   1
Atom  42C    basis set group =>   1
Atom  43C    basis set group =>   1
Atom  44C    basis set group =>   1
Atom  45C    basis set group =>   1
Atom  46S    basis set group =>   2
Atom  47C    basis set group =>   1
Atom  48C    basis set group =>   1
Atom  49C    basis set group =>   1
Atom  50C    basis set group =>   1
Atom  51C    basis set group =>   1
Atom  52S    basis set group =>   2
Atom  53C    basis set group =>   1
Atom  54C    basis set group =>   1
Atom  55C    basis set group =>   1
Atom  56S    basis set group =>   2
Atom  57C    basis set group =>   1
Atom  58C    basis set group =>   1
Atom  59C    basis set group =>   1
Atom  60C    basis set group =>   1
Atom  61F    basis set group =>   3
Atom  62F    basis set group =>   3
Atom  63C    basis set group =>   1
Atom  64C    basis set group =>   1
Atom  65C    basis set group =>   1
Atom  66S    basis set group =>   2
Atom  67C    basis set group =>   1
Atom  68S    basis set group =>   2
Atom  69C    basis set group =>   1
Atom  70C    basis set group =>   1
Atom  71C    basis set group =>   1
Atom  72O    basis set group =>   4
Atom  73O    basis set group =>   4
Atom  74C    basis set group =>   1
Atom  75C    basis set group =>   1
Atom  76C    basis set group =>   1
Atom  77C    basis set group =>   1
Atom  78C    basis set group =>   1
Atom  79C    basis set group =>   1
Atom  80C    basis set group =>   1
Atom  81C    basis set group =>   1
Atom  82C    basis set group =>   1
Atom  83C    basis set group =>   1
Atom  84S    basis set group =>   2
Atom  85C    basis set group =>   1
Atom  86C    basis set group =>   1
Atom  87C    basis set group =>   1
Atom  88C    basis set group =>   1
Atom  89C    basis set group =>   1
Atom  90S    basis set group =>   2
Atom  91C    basis set group =>   1
Atom  92C    basis set group =>   1
Atom  93C    basis set group =>   1
Atom  94S    basis set group =>   2
Atom  95C    basis set group =>   1
Atom  96C    basis set group =>   1
Atom  97C    basis set group =>   1
Atom  98C    basis set group =>   1
Atom  99F    basis set group =>   3
Atom 100F    basis set group =>   3
Atom 101C    basis set group =>   1
Atom 102C    basis set group =>   1
Atom 103C    basis set group =>   1
Atom 104S    basis set group =>   2
Atom 105C    basis set group =>   1
Atom 106S    basis set group =>   2
Atom 107C    basis set group =>   1
Atom 108C    basis set group =>   1
Atom 109C    basis set group =>   1
Atom 110C    basis set group =>   1
Atom 111O    basis set group =>   4
Atom 112O    basis set group =>   4
Atom 113C    basis set group =>   1
Atom 114C    basis set group =>   1
Atom 115H    basis set group =>   5
Atom 116H    basis set group =>   5
Atom 117H    basis set group =>   5
Atom 118H    basis set group =>   5
Atom 119H    basis set group =>   5
Atom 120H    basis set group =>   5
Atom 121H    basis set group =>   5
Atom 122H    basis set group =>   5
Atom 123H    basis set group =>   5
Atom 124H    basis set group =>   5
Atom 125H    basis set group =>   5
Atom 126H    basis set group =>   5
Atom 127H    basis set group =>   5
Atom 128H    basis set group =>   5
Atom 129H    basis set group =>   5
Atom 130H    basis set group =>   5
Atom 131H    basis set group =>   5
Atom 132H    basis set group =>   5
Atom 133H    basis set group =>   5
Atom 134H    basis set group =>   5
Atom 135H    basis set group =>   5
Atom 136H    basis set group =>   5
Atom 137H    basis set group =>   5
Atom 138H    basis set group =>   5
Atom 139H    basis set group =>   5
Atom 140H    basis set group =>   5
Atom 141H    basis set group =>   5
Atom 142H    basis set group =>   5
Atom 143H    basis set group =>   5
Atom 144H    basis set group =>   5
Atom 145H    basis set group =>   5
Atom 146H    basis set group =>   5
Atom 147H    basis set group =>   5
Atom 148H    basis set group =>   5
Atom 149H    basis set group =>   5
Atom 150H    basis set group =>   5
Atom 151H    basis set group =>   5
Atom 152H    basis set group =>   5
Atom 153H    basis set group =>   5
Atom 154H    basis set group =>   5
Atom 155H    basis set group =>   5
Atom 156H    basis set group =>   5
Atom 157H    basis set group =>   5
Atom 158H    basis set group =>   5
Atom 159H    basis set group =>   5
Atom 160H    basis set group =>   5
Atom 161H    basis set group =>   5
Atom 162H    basis set group =>   5
Atom 163H    basis set group =>   5
Atom 164H    basis set group =>   5
Atom 165H    basis set group =>   5
Atom 166H    basis set group =>   5
Atom 167H    basis set group =>   5
Atom 168H    basis set group =>   5
Atom 169H    basis set group =>   5
Atom 170H    basis set group =>   5
Atom 171H    basis set group =>   5
Atom 172H    basis set group =>   5
Atom 173H    basis set group =>   5
Atom 174H    basis set group =>   5
Atom 175H    basis set group =>   5
Atom 176H    basis set group =>   5
Atom 177H    basis set group =>   5
Atom 178H    basis set group =>   5
---------------------------------
AUXILIARY/J BASIS SET INFORMATION
---------------------------------
There are 5 groups of distinct atoms

 Group   1 Type C   : 12s5p4d2f1g contracted to 6s4p3d1f1g pattern {711111/2111/211/2/1}
 Group   2 Type S   : 14s5p5d2f1g contracted to 8s4p3d1f1g pattern {71111111/2111/311/2/1}
 Group   3 Type F   : 12s5p4d2f1g contracted to 6s4p3d1f1g pattern {711111/2111/211/2/1}
 Group   4 Type O   : 12s5p4d2f1g contracted to 6s4p3d1f1g pattern {711111/2111/211/2/1}
 Group   5 Type H   : 5s2p1d contracted to 3s1p1d pattern {311/2/1}

Atom   0C    basis set group =>   1
Atom   1C    basis set group =>   1
Atom   2C    basis set group =>   1
Atom   3C    basis set group =>   1
Atom   4C    basis set group =>   1
Atom   5C    basis set group =>   1
Atom   6C    basis set group =>   1
Atom   7C    basis set group =>   1
Atom   8S    basis set group =>   2
Atom   9C    basis set group =>   1
Atom  10C    basis set group =>   1
Atom  11C    basis set group =>   1
Atom  12C    basis set group =>   1
Atom  13C    basis set group =>   1
Atom  14S    basis set group =>   2
Atom  15C    basis set group =>   1
Atom  16C    basis set group =>   1
Atom  17C    basis set group =>   1
Atom  18S    basis set group =>   2
Atom  19C    basis set group =>   1
Atom  20C    basis set group =>   1
Atom  21C    basis set group =>   1
Atom  22C    basis set group =>   1
Atom  23F    basis set group =>   3
Atom  24F    basis set group =>   3
Atom  25C    basis set group =>   1
Atom  26C    basis set group =>   1
Atom  27C    basis set group =>   1
Atom  28S    basis set group =>   2
Atom  29C    basis set group =>   1
Atom  30S    basis set group =>   2
Atom  31C    basis set group =>   1
Atom  32C    basis set group =>   1
Atom  33C    basis set group =>   1
Atom  34O    basis set group =>   4
Atom  35O    basis set group =>   4
Atom  36C    basis set group =>   1
Atom  37C    basis set group =>   1
Atom  38C    basis set group =>   1
Atom  39C    basis set group =>   1
Atom  40C    basis set group =>   1
Atom  41C    basis set group =>   1
Atom  42C    basis set group =>   1
Atom  43C    basis set group =>   1
Atom  44C    basis set group =>   1
Atom  45C    basis set group =>   1
Atom  46S    basis set group =>   2
Atom  47C    basis set group =>   1
Atom  48C    basis set group =>   1
Atom  49C    basis set group =>   1
Atom  50C    basis set group =>   1
Atom  51C    basis set group =>   1
Atom  52S    basis set group =>   2
Atom  53C    basis set group =>   1
Atom  54C    basis set group =>   1
Atom  55C    basis set group =>   1
Atom  56S    basis set group =>   2
Atom  57C    basis set group =>   1
Atom  58C    basis set group =>   1
Atom  59C    basis set group =>   1
Atom  60C    basis set group =>   1
Atom  61F    basis set group =>   3
Atom  62F    basis set group =>   3
Atom  63C    basis set group =>   1
Atom  64C    basis set group =>   1
Atom  65C    basis set group =>   1
Atom  66S    basis set group =>   2
Atom  67C    basis set group =>   1
Atom  68S    basis set group =>   2
Atom  69C    basis set group =>   1
Atom  70C    basis set group =>   1
Atom  71C    basis set group =>   1
Atom  72O    basis set group =>   4
Atom  73O    basis set group =>   4
Atom  74C    basis set group =>   1
Atom  75C    basis set group =>   1
Atom  76C    basis set group =>   1
Atom  77C    basis set group =>   1
Atom  78C    basis set group =>   1
Atom  79C    basis set group =>   1
Atom  80C    basis set group =>   1
Atom  81C    basis set group =>   1
Atom  82C    basis set group =>   1
Atom  83C    basis set group =>   1
Atom  84S    basis set group =>   2
Atom  85C    basis set group =>   1
Atom  86C    basis set group =>   1
Atom  87C    basis set group =>   1
Atom  88C    basis set group =>   1
Atom  89C    basis set group =>   1
Atom  90S    basis set group =>   2
Atom  91C    basis set group =>   1
Atom  92C    basis set group =>   1
Atom  93C    basis set group =>   1
Atom  94S    basis set group =>   2
Atom  95C    basis set group =>   1
Atom  96C    basis set group =>   1
Atom  97C    basis set group =>   1
Atom  98C    basis set group =>   1
Atom  99F    basis set group =>   3
Atom 100F    basis set group =>   3
Atom 101C    basis set group =>   1
Atom 102C    basis set group =>   1
Atom 103C    basis set group =>   1
Atom 104S    basis set group =>   2
Atom 105C    basis set group =>   1
Atom 106S    basis set group =>   2
Atom 107C    basis set group =>   1
Atom 108C    basis set group =>   1
Atom 109C    basis set group =>   1
Atom 110C    basis set group =>   1
Atom 111O    basis set group =>   4
Atom 112O    basis set group =>   4
Atom 113C    basis set group =>   1
Atom 114C    basis set group =>   1
Atom 115H    basis set group =>   5
Atom 116H    basis set group =>   5
Atom 117H    basis set group =>   5
Atom 118H    basis set group =>   5
Atom 119H    basis set group =>   5
Atom 120H    basis set group =>   5
Atom 121H    basis set group =>   5
Atom 122H    basis set group =>   5
Atom 123H    basis set group =>   5
Atom 124H    basis set group =>   5
Atom 125H    basis set group =>   5
Atom 126H    basis set group =>   5
Atom 127H    basis set group =>   5
Atom 128H    basis set group =>   5
Atom 129H    basis set group =>   5
Atom 130H    basis set group =>   5
Atom 131H    basis set group =>   5
Atom 132H    basis set group =>   5
Atom 133H    basis set group =>   5
Atom 134H    basis set group =>   5
Atom 135H    basis set group =>   5
Atom 136H    basis set group =>   5
Atom 137H    basis set group =>   5
Atom 138H    basis set group =>   5
Atom 139H    basis set group =>   5
Atom 140H    basis set group =>   5
Atom 141H    basis set group =>   5
Atom 142H    basis set group =>   5
Atom 143H    basis set group =>   5
Atom 144H    basis set group =>   5
Atom 145H    basis set group =>   5
Atom 146H    basis set group =>   5
Atom 147H    basis set group =>   5
Atom 148H    basis set group =>   5
Atom 149H    basis set group =>   5
Atom 150H    basis set group =>   5
Atom 151H    basis set group =>   5
Atom 152H    basis set group =>   5
Atom 153H    basis set group =>   5
Atom 154H    basis set group =>   5
Atom 155H    basis set group =>   5
Atom 156H    basis set group =>   5
Atom 157H    basis set group =>   5
Atom 158H    basis set group =>   5
Atom 159H    basis set group =>   5
Atom 160H    basis set group =>   5
Atom 161H    basis set group =>   5
Atom 162H    basis set group =>   5
Atom 163H    basis set group =>   5
Atom 164H    basis set group =>   5
Atom 165H    basis set group =>   5
Atom 166H    basis set group =>   5
Atom 167H    basis set group =>   5
Atom 168H    basis set group =>   5
Atom 169H    basis set group =>   5
Atom 170H    basis set group =>   5
Atom 171H    basis set group =>   5
Atom 172H    basis set group =>   5
Atom 173H    basis set group =>   5
Atom 174H    basis set group =>   5
Atom 175H    basis set group =>   5
Atom 176H    basis set group =>   5
Atom 177H    basis set group =>   5
Atom 178H    basis set group =>   5
------------------------------------------------------------------------------
                           ORCA GTO INTEGRAL CALCULATION
                           -- RI-GTO INTEGRALS CHOSEN --
------------------------------------------------------------------------------

                         BASIS SET STATISTICS AND STARTUP INFO

Gaussian basis set:
 # of primitive gaussian shells          ... 1790
 # of primitive gaussian functions       ... 3388
 # of contracted shells                  ...  912
 # of contracted basis functions         ... 1990
 Highest angular momentum                ...    2
 Maximum contraction depth               ...    5
Auxiliary gaussian basis set:
 # of primitive gaussian shells          ... 3317
 # of primitive gaussian functions       ... 9179
 # of contracted shells                  ... 2075
 # of contracted aux-basis functions     ... 6369
 Highest angular momentum                ...    4
 Maximum contraction depth               ...    7
Ratio of auxiliary to basis functions    ...  3.20
Integral package used                  ... LIBINT
 One Electron integrals                  ... done
 Ordering auxiliary basis shells         ... done
 Integral threshhold             Thresh  ...  2.500e-11
 Primitive cut-off               TCut    ...  2.500e-12
 Pre-screening matrix                    ... done
 Shell pair data                         ... 
 Ordering of the shell pairs             ... done (   0.023 sec) 89083 of 416328 pairs
 Determination of significant pairs      ... done (   0.000 sec)
 Creation of shell pair data             ... done (   0.013 sec)
 Storage of shell pair data              ... done (   0.018 sec)
 Shell pair data done in (   0.054 sec)
 Computing two index integrals           ... done
 Cholesky decomposition of the V-matrix  ... done


Timings:
 Total evaluation time                   ...   6.950 sec (  0.116 min)
 One electron matrix time                ...   1.742 sec (  0.029 min) = 25.1%
 Schwartz matrix evaluation time         ...   1.893 sec (  0.032 min) = 27.2%
 Two index repulsion integral time       ...   1.179 sec (  0.020 min) = 17.0%
 Cholesky decomposition of V             ...   2.062 sec (  0.034 min) = 29.7%
 Three index repulsion integral time     ...   0.000 sec (  0.000 min) =  0.0%

-------------------------------------------------------------------------------
                                 ORCA SCF
-------------------------------------------------------------------------------

------------
SCF SETTINGS
------------
Hamiltonian:
 Density Functional     Method          .... DFT(GTOs)
 Exchange Functional    Exchange        .... WB88
 Correlation Functional Correlation     .... LYP
 LDA part of GGA corr.  LDAOpt          .... VWN-5
 Gradients option       PostSCFGGA      .... off
 Hybrid DFT is turned on
   Fraction HF Exchange ScalHFX         ....  0.190000
   Scaling of DF-GGA-X  ScalDFX         ....  0.350000
   Scaling of DF-GGA-C  ScalDFC         ....  0.810000
   Scaling of DF-LDA-C  ScalLDAC        ....  1.000000
   Perturbative correction              ....  0.000000
   Density functional embedding theory  .... OFF
 Long-range corrected/Screened/Range-Separated Hybrid DFT is turned on
   Amount of maximum screened exact exchange              ....  0.460000
   Range separation parameter mu (erf(mu*r12)/r12)        ....  0.330000
 RI-approximation to the Coulomb term is turned on
   Number of auxiliary basis functions  .... 6369
   RIJ-COSX (HFX calculated with COS-X)).... on


General Settings:
 Integral files         IntName         .... PTQ2
 Hartree-Fock type      HFTyp           .... RHF
 Total Charge           Charge          ....    0
 Multiplicity           Mult            ....    1
 Number of Electrons    NEL             ....  934
 Basis Dimension        Dim             .... 1990
[...]
  10   3.805     325.8   0.408785   0.391792  -211.486967  -204.597984     0.35 ( 156-> 162)    0.13 ( 155-> 162)    0.06 ( 156-> 157)
  11   3.843     322.6   0.455035   0.420189  -56.014767  -45.881522     0.22 ( 151-> 157)    0.18 ( 155-> 161)    0.09 ( 156-> 161)
  12   3.929     315.5   0.137409   0.124579   4.657323   4.673347     0.15 ( 156-> 160)    0.11 ( 154-> 158)    0.08 ( 156-> 159)
  13   3.965     312.7   0.137062   0.127326  -132.200609  -110.395141     0.19 ( 153-> 159)    0.17 ( 153-> 158)    0.10 ( 153-> 157)
  14   4.054     305.8   0.003662   0.003100  -32.860985  -33.521985     0.15 ( 151-> 158)    0.13 ( 152-> 158)    0.11 ( 155-> 158)
  15   4.120     301.0   0.112438   0.098384  -36.382478  -31.627219     0.22 ( 155-> 159)    0.14 ( 156-> 158)    0.10 ( 154-> 158)
  16   4.159     298.1   0.019348   0.017010  16.186496  10.896276     0.17 ( 147-> 157)    0.13 ( 154-> 159)    0.06 ( 145-> 157)
  17   4.165     297.7   0.052031   0.044428  -12.982279  -12.054015     0.32 ( 150-> 158)    0.28 ( 150-> 157)    0.13 ( 150-> 159)
  18   4.222     293.7   0.029842   0.028050  21.852910  24.603392     0.13 ( 147-> 157)    0.11 ( 145-> 157)    0.09 ( 148-> 157)
  19   4.265     290.7   0.021591   0.020494   3.956285   2.270838     0.33 ( 145-> 157)    0.15 ( 146-> 157)    0.09 ( 147-> 157)
  20   4.290     289.0   0.011026   0.009591   5.076032   4.519335     0.10 ( 151-> 157)    0.08 ( 152-> 159)    0.06 ( 147-> 157)
  21   4.325     286.7   0.041413   0.043298   2.409146   2.054365     0.20 ( 148-> 158)    0.14 ( 148-> 157)    0.13 ( 149-> 157)
  22   4.328     286.5   0.028268   0.026430  46.047774  49.604090     0.37 ( 146-> 157)    0.22 ( 146-> 158)    0.12 ( 145-> 157)
  23   4.349     285.1   0.018838   0.017523  -161.186573  -142.359542     0.14 ( 154-> 160)    0.12 ( 156-> 164)    0.06 ( 155-> 164)
  24   4.387     282.6   0.059099   0.052380   9.448500   8.706845     0.12 ( 151-> 157)    0.10 ( 144-> 157)    0.09 ( 156-> 163)
  25   4.401     281.7   0.016997   0.015175  -120.959466  -108.358002     0.13 ( 153-> 160)    0.07 ( 153-> 158)    0.05 ( 154-> 158)
  26   4.523     274.1   0.217800   0.179991  85.166774  75.392426     0.08 ( 153-> 162)    0.06 ( 151-> 158)    0.06 ( 155-> 162)
  27   4.544     272.9   0.079429   0.066487  -23.338609  -18.273730     0.09 ( 153-> 160)    0.07 ( 156-> 163)    0.07 ( 144-> 157)
  28   4.589     270.2   0.021576   0.018335  21.816576  21.637222     0.23 ( 155-> 160)    0.08 ( 153-> 160)    0.06 ( 156-> 160)
  29   4.618     268.5   0.019627   0.018492  -9.585004  -10.891162     0.12 ( 154-> 160)    0.07 ( 156-> 164)    0.06 ( 144-> 157)
  30   4.644     267.0   0.034207   0.027352  -20.258504  -8.772309     0.24 ( 152-> 161)    0.21 ( 140-> 157)    0.11 ( 154-> 161)
  31   4.654     266.4   0.050882   0.042108  25.214471  15.121333     0.58 ( 140-> 157)    0.05 ( 152-> 161)    0.05 ( 140-> 159)
  32   4.678     265.0   0.052205   0.046195  28.697317  25.508284     0.11 ( 152-> 158)    0.07 ( 152-> 159)    0.06 ( 153-> 158)
  33   4.708     263.3   0.002171   0.001668  -2.993398  -2.574978     0.14 ( 156-> 160)    0.11 ( 155-> 162)    0.10 ( 153-> 159)
  34   4.741     261.5   0.147735   0.123912  49.980501  45.841086     0.10 ( 156-> 167)    0.10 ( 156-> 166)    0.09 ( 155-> 160)
  35   4.753     260.9   0.007710   0.004612  -25.843297  -17.108631     0.21 ( 143-> 158)    0.20 ( 143-> 157)    0.19 ( 142-> 157)
  36   4.776     259.6   0.044234   0.038483  -5.669535  -6.735074     0.10 ( 155-> 164)    0.07 ( 155-> 163)    0.07 ( 154-> 163)
  37   4.808     257.9   0.018279   0.015579  49.457362  45.786652     0.22 ( 156-> 166)    0.09 ( 156-> 167)    0.08 ( 154-> 166)
  38   4.818     257.3   0.007174   0.005324  -2.374860  -0.037921     0.20 ( 155-> 165)    0.10 ( 154-> 165)    0.09 ( 137-> 157)
  39   4.837     256.3   0.062099   0.048914  -77.791396  -73.335864     0.22 ( 156-> 168)    0.16 ( 137-> 157)    0.12 ( 155-> 168)
  40   4.863     254.9   0.010651   0.008459  23.795812  21.390739     0.50 ( 139-> 157)    0.18 ( 139-> 158)    0.03 ( 137-> 158)
  41   4.866     254.8   0.089947   0.072993  -93.553589  -77.494964     0.07 ( 155-> 163)    0.07 ( 154-> 164)    0.06 ( 142-> 157)
  42   4.879     254.1   0.068796   0.051185  83.905677  58.824810     0.15 ( 137-> 157)    0.05 ( 156-> 161)    0.05 ( 152-> 159)
  43   4.895     253.3   0.049825   0.038629  33.202570  29.889932     0.20 ( 136-> 157)    0.09 ( 137-> 157)    0.07 ( 142-> 158)
  44   4.900     253.0   0.165592   0.131032  -9.708506  -2.573946     0.07 ( 156-> 168)    0.07 ( 141-> 158)    0.06 ( 150-> 157)
  45   4.942     250.9   0.020933   0.017597  -36.630816  -36.147836     0.20 ( 150-> 157)    0.10 ( 150-> 159)    0.04 ( 137-> 157)
  46   4.957     250.1   0.005606   0.003209  18.428261  18.777049     0.14 ( 150-> 157)    0.08 ( 150-> 159)    0.05 ( 154-> 163)
  47   4.962     249.8   0.019011   0.012190  26.606259   3.527430     0.52 ( 138-> 157)    0.23 ( 138-> 158)    0.06 ( 137-> 157)
  48   4.981     248.9   0.029195   0.019256  -18.027633  -15.612782     0.10 ( 152-> 161)    0.08 ( 156-> 161)    0.06 ( 151-> 161)

-----------------------------------------------------------------------------
         ABSORPTION SPECTRUM VIA TRANSITION ELECTRIC DIPOLE MOMENTS
-----------------------------------------------------------------------------
State   Energy  Wavelength   fosc         T2         TX        TY        TZ  
        (cm-1)    (nm)                  (au**2)     (au)      (au)      (au) 
-----------------------------------------------------------------------------
   0   20628.3    484.8   2.184393310  34.86120  -5.75360   1.30319  -0.24290
   1   22730.5    439.9   0.560099348   8.11207   1.81332   2.17411  -0.31179
   2   23703.2    421.9   0.145126893   2.01566   1.17278   0.79985   0.02178
   3   25718.2    388.8   0.519276536   6.64712  -2.26434  -1.22859   0.10239
   4   26073.7    383.5   0.479568661   6.05513  -0.11074   2.45807  -0.02769
   5   26999.5    370.4   0.348017931   4.24347   2.05983  -0.01457  -0.01841
   6   27213.8    367.5   0.076884257   0.93009  -0.19719   0.91584   0.22901
   7   28869.1    346.4   0.006997089   0.07979  -0.22631   0.11541   0.12352
   8   29300.0    341.3   0.457247719   5.13760  -0.93078  -2.05325   0.23540
   9   30081.0    332.4   0.413007357   4.52002  -0.93718  -1.90526   0.10810
  10   30692.7    325.8   0.408785216   4.38466  -2.07252  -0.04734   0.29510
  11   30994.0    322.6   0.455035132   4.83329  -0.99463  -1.94959  -0.20758
  12   31692.3    315.5   0.137409186   1.42737   0.72447  -0.93731  -0.15484
  13   31976.1    312.7   0.137061847   1.41113   0.06226  -1.17490  -0.16393
  14   32697.5    305.8   0.003662214   0.03687  -0.13360   0.11913  -0.06951
  15   33226.3    301.0   0.112438223   1.11406  -0.19663   1.03673   0.02411
  16   33544.5    298.1   0.019348234   0.18989   0.19366  -0.38874   0.03552
  17   33595.9    297.7   0.052030512   0.50986   0.71065   0.05523  -0.04228
  18   34052.9    293.7   0.029841723   0.28850  -0.06546  -0.53306  -0.00784
  19   34403.1    290.7   0.021591188   0.20661   0.02302  -0.45156   0.04667
  20   34600.9    289.0   0.011025912   0.10491  -0.19291  -0.24286   0.09332
  21   34883.4    286.7   0.041413115   0.39084  -0.55896  -0.26748   0.08281
  22   34909.7    286.5   0.028267880   0.26658  -0.17703   0.47586   0.09375
  23   35078.5    285.1   0.018838165   0.17680   0.29690   0.20746   0.21356
  24   35381.4    282.6   0.059098995   0.54990   0.73459  -0.09933  -0.02030
  25   35494.5    281.7   0.016996764   0.15765  -0.24999  -0.27648  -0.13677
  26   36476.8    274.1   0.217799697   1.96569  -0.53140  -1.28917   0.14615
  27   36646.2    272.9   0.079429083   0.71355   0.55350   0.63807  -0.00714
  28   37012.7    270.2   0.021575791   0.19191   0.03488   0.43656   0.01023
  29   37248.6    268.5   0.019627436   0.17347   0.19451   0.36796   0.01557
  30   37458.9    267.0   0.034207038   0.30063  -0.06059  -0.52002  -0.16291
  31   37534.7    266.4   0.050882420   0.44628  -0.28559   0.59880  -0.07849
  32   37730.9    265.0   0.052205225   0.45550  -0.54245   0.40095  -0.02205
  33   37974.7    263.3   0.002170867   0.01882   0.06044  -0.11979   0.02859
  34   38235.6    261.5   0.147734859   1.27201   0.65139  -0.91976   0.04169
  35   38333.8    260.9   0.007709734   0.06621   0.02156  -0.12489   0.22394
  36   38519.4    259.6   0.044234310   0.37806  -0.60912  -0.08204  -0.01741
  37   38779.8    257.9   0.018278623   0.15517  -0.16455   0.25966  -0.24632
  38   38859.7    257.3   0.007173634   0.06077   0.19740  -0.00794   0.14746
  39   39016.1    256.3   0.062098892   0.52398   0.69165   0.20777  -0.04930
  40   39225.8    254.9   0.010651095   0.08939   0.26469   0.13854   0.01185
  41   39244.5    254.8   0.089946779   0.75454  -0.68125   0.46489   0.27263
  42   39353.4    254.1   0.068795722   0.57551   0.70716  -0.10863  -0.25226
  43   39478.3    253.3   0.049825011   0.41549  -0.63451  -0.09949   0.05471
  44   39521.4    253.0   0.165592187   1.37938   1.16800   0.05122   0.11196
  45   39861.2    250.9   0.020933463   0.17289   0.29615  -0.25582   0.14049
  46   39978.7    250.1   0.005605549   0.04616   0.06487   0.20205   0.03360
  47   40024.6    249.8   0.019010860   0.15637   0.25480  -0.02973   0.30093
  48   40170.6    248.9   0.029195384   0.23927  -0.42895   0.23398   0.02290

-----------------------------------------------------------------------------
         ABSORPTION SPECTRUM VIA TRANSITION VELOCITY DIPOLE MOMENTS
-----------------------------------------------------------------------------
State   Energy  Wavelength   fosc         P2         PX        PY        PZ  
        (cm-1)    (nm)                  (au**2)     (au)      (au)      (au) 
-----------------------------------------------------------------------------
   0   20628.3    484.8   2.287222874   0.32246  -0.55326   0.12579  -0.02327
   1   22730.5    439.9   0.577434639   0.08971   0.18547   0.23309  -0.03123
   2   23703.2    421.9   0.141237341   0.02288   0.12375   0.08694   0.00256
   3   25718.2    388.8   0.444993251   0.07822  -0.24518  -0.13419   0.00980
   4   26073.7    383.5   0.437683741   0.07800  -0.01114   0.27904  -0.00314
   5   26999.5    370.4   0.321887628   0.05940   0.24370  -0.00260  -0.00140
   6   27213.8    367.5   0.067151421   0.01249  -0.02206   0.10599   0.02773
   7   28869.1    346.4   0.006839347   0.00135  -0.03088   0.01276   0.01527
   8   29300.0    341.3   0.418646646   0.08383  -0.11666  -0.26335   0.02954
   9   30081.0    332.4   0.393035069   0.08080  -0.12361  -0.25559   0.01406
  10   30692.7    325.8   0.391791937   0.08219  -0.28384  -0.00591   0.03979
  11   30994.0    322.6   0.420188832   0.08901  -0.13324  -0.26548  -0.02786
  12   31692.3    315.5   0.124578979   0.02698   0.10319  -0.12612  -0.02071
  13   31976.1    312.7   0.127325969   0.02783   0.00976  -0.16518  -0.02112
  14   32697.5    305.8   0.003099782   0.00069  -0.01786   0.01573  -0.01123
  15   33226.3    301.0   0.098383887   0.02234  -0.03026   0.14634   0.00303
  16   33544.5    298.1   0.017009649   0.00390   0.03071  -0.05425   0.00366
  17   33595.9    297.7   0.044427778   0.01020   0.10063   0.00628  -0.00593
  18   34052.9    293.7   0.028049935   0.00653  -0.01145  -0.07998   0.00099
  19   34403.1    290.7   0.020493525   0.00482   0.00510  -0.06893   0.00642
  20   34600.9    289.0   0.009591085   0.00227  -0.03155  -0.03303   0.01348
  21   34883.4    286.7   0.043297595   0.01032  -0.09085  -0.04367   0.01274
  22   34909.7    286.5   0.026430305   0.00631  -0.02548   0.07400   0.01343
  23   35078.5    285.1   0.017523236   0.00420   0.04247   0.03774   0.03120
  24   35381.4    282.6   0.052380421   0.01267   0.11130  -0.01633  -0.00339
  25   35494.5    281.7   0.015175324   0.00368  -0.03671  -0.04402  -0.01991
  26   36476.8    274.1   0.179991454   0.04487  -0.07966  -0.19509   0.02157
  27   36646.2    272.9   0.066487083   0.01665   0.08170   0.09987  -0.00176
  28   37012.7    270.2   0.018334883   0.00464   0.00532   0.06789   0.00035
  29   37248.6    268.5   0.018492172   0.00471   0.03149   0.06088   0.00304
  30   37458.9    267.0   0.027351514   0.00700  -0.00699  -0.08012  -0.02310
  31   37534.7    266.4   0.042107858   0.01080  -0.04063   0.09516  -0.00976
  32   37730.9    265.0   0.046194787   0.01191  -0.08973   0.06206  -0.00304
  33   37974.7    263.3   0.001667835   0.00043   0.00746  -0.01895   0.00427
  34   38235.6    261.5   0.123912161   0.03238   0.10706  -0.14447   0.00686
  35   38333.8    260.9   0.004611658   0.00121  -0.00307  -0.01486   0.03127
  36   38519.4    259.6   0.038482918   0.01013  -0.09910  -0.01724  -0.00371
  37   38779.8    257.9   0.015578878   0.00413  -0.02979   0.04138  -0.03910
  38   38859.7    257.3   0.005323971   0.00141   0.03065  -0.00018   0.02179
  39   39016.1    256.3   0.048913905   0.01304   0.10916   0.03327  -0.00456
  40   39225.8    254.9   0.008458859   0.00227   0.04188   0.02258   0.00200
  41   39244.5    254.8   0.072992501   0.01958  -0.11230   0.07322   0.04006
  42   39353.4    254.1   0.051184545   0.01377   0.11155  -0.01345  -0.03380
  43   39478.3    253.3   0.038629071   0.01042  -0.09951  -0.02133   0.00812
  44   39521.4    253.0   0.131031761   0.03539   0.18747   0.01208   0.01000
  45   39861.2    250.9   0.017596791   0.00479   0.04776  -0.04524   0.02161
  46   39978.7    250.1   0.003208737   0.00088   0.00424   0.02929   0.00095
  47   40024.6    249.8   0.012190329   0.00333   0.03916  -0.01169   0.04080
  48   40170.6    248.9   0.019256156   0.00529  -0.06253   0.03687   0.00416

-------------------------------------------------------------------
                             CD SPECTRUM
-------------------------------------------------------------------
State   Energy Wavelength       R         MX        MY        MZ   
        (cm-1)   (nm)       (1e40*cgs)   (au)      (au)      (au)  
-------------------------------------------------------------------
   0   20628.3    484.8    -60.50251   0.15222   0.40667  -2.48050
   1   22730.5    439.9    107.54264   0.08777  -0.01204   1.88979
   2   23703.2    421.9    -112.96490   0.10453   0.38355   2.28903
   3   25718.2    388.8    186.53259  -0.05470   0.27271  -5.66608
   4   26073.7    383.5    136.01264   0.12887  -0.14520   7.43361
   5   26999.5    370.4      6.39029  -0.00384   0.09962   0.96392
   6   27213.8    367.5    -342.64940   0.00472  -0.24098   7.31526
   7   28869.1    346.4    -101.27607   0.08269   0.09142   3.54444
   8   29300.0    341.3    233.46562  -0.23582  -0.04706  -5.55033
   9   30081.0    332.4    268.48574  -0.17175   0.29023  -6.91035
  10   30692.7    325.8    -211.48697  -0.09919  -0.07485   2.33170
  11   30994.0    322.6    -56.01477   0.05298   1.17398 -12.42469
  12   31692.3    315.5      4.65732   0.09508   1.10666  -6.12666
  13   31976.1    312.7    -132.20061  -0.05680   0.28288  -5.47027
  14   32697.5    305.8    -32.86098   0.07088   0.45443  -1.36297
  15   33226.3    301.0    -36.38248   0.11574   0.09645   3.19846
  16   33544.5    298.1     16.18650   0.01375   0.00969  -1.90205
  17   33595.9    297.7    -12.98228   0.04503  -0.04045  -0.59866
  18   34052.9    293.7     21.85291  -0.09975   0.20283  -1.13217
  19   34403.1    290.7      3.95629  -0.14317  -0.15817  -1.81957
  20   34600.9    289.0      5.07603  -0.06295  -0.07087  -0.54530
  21   34883.4    286.7      2.40915  -0.05851   0.03869  -0.39342
  22   34909.7    286.5     46.04777   0.02888  -0.94149   2.74959
  23   35078.5    285.1    -161.18657  -0.08680  -0.46603   3.77535
  24   35381.4    282.6      9.44850  -0.06297   0.07937  -0.69270
  25   35494.5    281.7    -120.95947  -0.11615   0.10255  -3.74685
  26   36476.8    274.1     85.16677  -0.14014  -0.00118  -2.99202
  27   36646.2    272.9    -23.33861   0.10973   0.09484   3.11693
  28   37012.7    270.2     21.81658   0.05299  -0.23664   0.87095
  29   37248.6    268.5     -9.58500   0.09612  -0.04765   2.53746
  30   37458.9    267.0    -20.25850  -0.15248   0.87511  -3.26416
  31   37534.7    266.4     25.21447  -0.18813   0.06554   2.54737
  32   37730.9    265.0     28.69732   0.11706  -0.01089   2.44280
  33   37974.7    263.3     -2.99340   0.04464  -0.06029   0.09718
  34   38235.6    261.5     49.98050  -0.00649   0.14705  -1.74027
  35   38333.8    260.9    -25.84330   0.24086  -0.45289   0.21381
  36   38519.4    259.6     -5.66954  -0.00344  -0.02350  -1.15032
  37   38779.8    257.9     49.45736   0.30498   0.63410   1.31648
  38   38859.7    257.3     -2.37486  -0.35113  -0.94935   0.48726
  39   39016.1    256.3    -77.79140   0.38054   0.54010   0.92092
  40   39225.8    254.9     23.79581  -0.11144  -0.63470   1.39104
  41   39244.5    254.8    -93.55359  -0.19303  -0.38477   1.62952
  42   39353.4    254.1     83.90568   0.15996   0.23579   1.75790
  43   39478.3    253.3     33.20257   0.07631   0.22743  -1.27607
  44   39521.4    253.0     -9.70851  -0.00482  -0.17486   0.49810
  45   39861.2    250.9    -36.63082   0.08558  -0.63886  -0.23759
  46   39978.7    250.1     18.42826   0.06668  -0.52832   0.72149
  47   40024.6    249.8     26.60626   0.13670  -1.55870  -0.64479
  48   40170.6    248.9    -18.02763  -0.04276   0.19721   0.52356

sTD-DFT done

Total run time:       16.884 sec

           *** ORCA-CIS/TD-DFT FINISHED WITHOUT ERROR ***

-------------------------   --------------------
FINAL SINGLE POINT ENERGY    -10408.007351001082
-------------------------   --------------------


                            ***************************************
                            *     ORCA property calculations      *
                            ***************************************

                                    ---------------------
                                    Active property flags
                                    ---------------------
   (+) Dipole Moment


------------------------------------------------------------------------------
                       ORCA ELECTRIC PROPERTIES CALCULATION
------------------------------------------------------------------------------

Dipole Moment Calculation                       ... on
Quadrupole Moment Calculation                   ... off
Polarizability Calculation                      ... off
GBWName                                         ... PTQ2.gbw
Electron density file                           ... PTQ2.scfp
The origin for moment calculation is the CENTER OF MASS  = (-24.909551,  0.077858  0.047025)

-------------
DIPOLE MOMENT
-------------
                                X             Y             Z
Electronic contribution:     -7.99047     -30.44947       0.57368
Nuclear contribution   :      8.37318      31.07985      -0.79143
                        -----------------------------------------
Total Dipole Moment    :      0.38271       0.63039      -0.21776
                        -----------------------------------------
Magnitude (a.u.)       :      0.76894
Magnitude (Debye)      :      1.95450



--------------------
Rotational spectrum 
--------------------
 
Rotational constants in cm-1:     0.000545     0.000098     0.000084 
Rotational constants in MHz :    16.344668     2.936896     2.513542 

 Dipole components along the rotational axes: 
x,y,z [a.u.] :    -0.435242     0.599562    -0.205831 
x,y,z [Debye]:    -1.106296     1.523966    -0.523180 

 

Timings for individual modules:

Sum of individual times         ...     9527.029 sec (= 158.784 min)
GTO integral calculation        ...        8.681 sec (=   0.145 min)   0.1 %
SCF iterations                  ...     9501.357 sec (= 158.356 min)  99.7 %
CIS module                      ...       16.991 sec (=   0.283 min)   0.2 %
                             ****ORCA TERMINATED NORMALLY****
TOTAL RUN TIME: 0 days 2 hours 38 minutes 48 seconds 197 msec
