
                                 *****************
                                 * O   R   C   A *
                                 *****************

           --- An Ab Initio, DFT and Semiempirical electronic structure package ---

                  #######################################################
                  #                        -***-                        #
                  #          Department of theory and spectroscopy      #
                  #               Directorship: Frank Neese             #
                  #        Max Planck Institute fuer Kohlenforschung    #
                  #                Kaiser Wilhelm Platz 1               #
                  #                 D-45470 Muelheim/Ruhr               #
                  #                      Germany                        #
                  #                                                     #
                  #                  All rights reserved                #
                  #                        -***-                        #
                  #######################################################


                         Program Version 4.2.0 -  RELEASE  -


 With contributions from (in alphabetic order):
   Daniel Aravena         : Magnetic Suceptibility
   Michael Atanasov       : Ab Initio Ligand Field Theory (pilot matlab implementation)
   Alexander A. Auer      : GIAO ZORA, VPT2
   Ute Becker             : Parallelization
   Giovanni Bistoni       : ED, misc. LED, open-shell LED, HFLED
   Martin Brehm           : Molecular dynamics
   Dmytro Bykov           : SCF Hessian
   Vijay G. Chilkuri      : MRCI spin determinant printing, contributions to CSF-ICE
   Dipayan Datta          : RHF DLPNO-CCSD density
   Achintya Kumar Dutta   : EOM-CC, STEOM-CC
   Dmitry Ganyushin       : Spin-Orbit,Spin-Spin,Magnetic field MRCI
   Miquel Garcia          : C-PCM Hessian, Gaussian charge scheme
   Yang Guo               : DLPNO-NEVPT2, CIM, IAO-localization
   Andreas Hansen         : Spin unrestricted coupled pair/coupled cluster methods
   Benjamin Helmich-Paris : CASSCF linear response (MC-RPA)
   Lee Huntington         : MR-EOM, pCC
   Robert Izsak           : Overlap fitted RIJCOSX, COSX-SCS-MP3, EOM
   Christian Kollmar      : KDIIS, OOCD, Brueckner-CCSD(T), CCSD density
   Simone Kossmann        : Meta GGA functionals, TD-DFT gradient, OOMP2, MP2 Hessian
   Martin Krupicka        : AUTO-CI
   Lucas Lang             : DCDCAS
   Dagmar Lenk            : GEPOL surface, SMD
   Dimitrios Liakos       : Extrapolation schemes; Compound Job, initial MDCI parallelization
   Dimitrios Manganas     : Further ROCIS development; embedding schemes
   Dimitrios Pantazis     : SARC Basis sets
   Taras Petrenko         : DFT Hessian,TD-DFT gradient, ASA, ECA, R-Raman, ABS, FL, XAS/XES, NRVS
   Peter Pinski           : DLPNO-MP2, DLPNO-MP2 Gradient
   Christoph Reimann      : Effective Core Potentials
   Marius Retegan         : Local ZFS, SOC
   Christoph Riplinger    : Optimizer, TS searches, QM/MM, DLPNO-CCSD(T), (RO)-DLPNO pert. Triples
   Tobias Risthaus        : Range-separated hybrids, TD-DFT gradient, RPA, STAB
   Michael Roemelt        : Original ROCIS implementation
   Masaaki Saitow         : Open-shell DLPNO-CCSD energy and density
   Barbara Sandhoefer     : DKH picture change effects
   Avijit Sen             : IP-ROCIS
   Kantharuban Sivalingam : CASSCF convergence, NEVPT2, FIC-MRCI
   Bernardo de Souza      : ESD, SOC TD-DFT
   Georgi Stoychev        : AutoAux, RI-MP2 NMR
   Willem Van den Heuvel  : Paramagnetic NMR
   Boris Wezisla          : Elementary symmetry handling
   Frank Wennmohs         : Technical directorship


 We gratefully acknowledge several colleagues who have allowed us to
 interface, adapt or use parts of their codes:
   Stefan Grimme, W. Hujo, H. Kruse,             : VdW corrections, initial TS optimization,
                  C. Bannwarth                     DFT functionals, gCP, sTDA/sTD-DF
   Ed Valeev, F. Pavosevic, A. Kumar             : LibInt (2-el integral package), F12 methods
   Garnet Chan, S. Sharma, J. Yang, R. Olivares  : DMRG
   Ulf Ekstrom                                   : XCFun DFT Library
   Mihaly Kallay                                 : mrcc  (arbitrary order and MRCC methods)
   Andreas Klamt, Michael Diedenhofen            : otool_cosmo (COSMO solvation model)
   Jiri Pittner, Ondrej Demel                    : Mk-CCSD
   Frank Weinhold                                : gennbo (NPA and NBO analysis)
   Christopher J. Cramer and Donald G. Truhlar   : smd solvation model
   Lars Goerigk                                  : TD-DFT with DH, B97 family of functionals
   V. Asgeirsson, H. Jonsson                     : NEB implementation
   FAccTs GmbH                                   : IRC, NEB, NEB-TS, Multilevel, MM, QM/MM, CI optimization
   S Lehtola, MJT Oliveira, MAL Marques          : LibXC Library


 Your calculation uses the libint2 library for the computation of 2-el integrals
 For citations please refer to: http://libint.valeyev.net

 Your ORCA version has been built with support for libXC version: 4.2.3
 For citations please refer to: https://tddft.org/programs/libxc/

 This ORCA versions uses:
   CBLAS   interface :  Fast vector & matrix operations
   LAPACKE interface :  Fast linear algebra routines
   SCALAPACK package :  Parallel linear algebra routines


----- Orbital basis set information -----
Your calculation utilizes the basis: def2-SVP
   F. Weigend and R. Ahlrichs, Phys. Chem. Chem. Phys. 7, 3297 (2005).

================================================================================
                                        WARNINGS
                       Please study these warnings very carefully!
================================================================================

INFO   : Checking CIS options ...

WARNING: CIS/ROCIS methods need fully converged wavefunctions
  ===> : Setting SCFConvForced true
         You can overwrite this default with %scf ConvForced false 


INFO   : the flag for use of LIBINT has been found!

================================================================================
                                       INPUT FILE
================================================================================
NAME = AQx-2.inp
|  1> # ORCA input file
|  2> # AQx-2.out
|  3> ! Engrad Keepdens
|  4> %maxcore 1000
|  5> %tddft
|  6>   nroots 3 
|  7>   # nroots is the number of states to be computed
|  8>   Iroot 1
|  9>   end
| 10> * xyz 0 1
| 11>    C        4.92510         2.24815        -1.47993
| 12>    O        5.92084         1.77685        -2.00086
| 13>    C        4.04849         3.28400        -2.06674
| 14>    C        4.16400         3.91317        -3.29009
| 15>    C        3.20815         4.86178        -3.61648
| 16>    F        3.27963         5.49723        -4.79264
| 17>    C        2.17310         5.16060        -2.73060
| 18>    F        1.26434         6.08145        -3.07084
| 19>    C        2.05832         4.52717        -1.50139
| 20>    C        3.00957         3.57628        -1.16755
| 21>    C        3.17153         2.74183         0.02534
| 22>    C        2.33468         2.75600         1.11202
| 23>    C        2.46642         1.95874         2.26835
| 24>    N        2.49907         1.34649         3.24012
| 25>    C        1.20179         3.58974         1.22615
| 26>    N        0.26925         4.24039         1.38307
| 27>    C        4.35218         1.92780        -0.17388
| 28>    C        4.84568         1.01252         0.72927
| 29>    C        5.95722         0.17201         0.67051
| 30>    S        7.09011         0.08229        -0.68206
| 31>    C        7.99634        -1.12729         0.14255
| 32>    C        7.44379        -1.43742         1.40008
| 33>    C        6.30217        -0.71417         1.71014
| 34>    C        5.53180        -0.92320         2.97212
| 35>    C        4.38269        -1.91084         2.74941
| 36>    S        8.34443        -2.65815         2.28148
| 37>    C        9.45591        -2.74146         0.96279
| 38>    C        9.14286        -1.88629        -0.10066
| 39>    N       10.06978        -2.02117        -1.10368
| 40>    C       10.20867        -0.93585        -2.05174
| 41>    C       11.15940         0.13288        -1.51668
| 42>    C       10.99950        -2.95622        -0.68468
| 43>    C       10.64342        -3.40373         0.62075
| 44>    C       11.44106        -4.27930         1.40352
| 45>    N       11.05215        -4.65113         2.62805
| 46>    C       11.88054        -5.41637         3.30519
| 47>    C       13.11397        -5.82346         2.78257
| 48>    N       13.51086        -5.47947         1.57651
| 49>    C       12.67949        -4.70824         0.86697
| 50>    C       12.98818        -4.34023        -0.46868
| 51>    C       12.13939        -3.54053        -1.28812
| 52>    N       12.65867        -3.51847        -2.56615
| 53>    C       12.07481        -3.11870        -3.82569
| 54>    C       12.72114        -1.85015        -4.37895
| 55>    C       13.82175        -4.23985        -2.55889
| 56>    C       14.06105        -4.74447        -1.27596
| 57>    S       15.49679        -5.69492        -1.15849
| 58>    C       15.78924        -5.42777        -2.86294
| 59>    C       14.79370        -4.65032        -3.47438
| 60>    S       15.07685        -4.49109        -5.16230
| 61>    C       16.58155        -5.39821        -5.02424
| 62>    C       16.81123        -5.84361        -3.72561
| 63>    C       17.89187        -6.78784        -3.30054
| 64>    C       18.71817        -6.25527        -2.12888
| 65>    C       17.27238        -5.63288        -6.23447
| 66>    C       18.60349        -5.81190        -6.47493
| 67>    C       19.78356        -5.50264        -5.70173
| 68>    C       19.89575        -4.51652        -4.75718
| 69>    C       21.10150        -4.18542        -4.10583
| 70>    N       22.05108        -3.89134        -3.53252
| 71>    C       18.82974        -3.67110        -4.38847
| 72>    N       18.00350        -2.93554        -4.08231
| 73>    C       20.90247        -6.22324        -6.30949
| 74>    C       22.20940        -6.39777        -5.88553
| 75>    C       23.06446        -7.12233        -6.70291
| 76>    F       24.32721        -7.31740        -6.30872
| 77>    C       22.63733        -7.65436        -7.92031
| 78>    F       23.49888        -8.34096        -8.67962
| 79>    C       21.33050        -7.48349        -8.34940
| 80>    C       20.47518        -6.77233        -7.53141
| 81>    C       19.03771        -6.47185        -7.73180
| 82>    O       18.35132        -6.74132        -8.68937
| 83>    H        4.96684         3.67926        -3.97090
| 84>    H        1.23942         4.79609        -0.85475
| 85>    H        4.28672         0.91526         1.64979
| 86>    H        5.13145         0.01817         3.35087
| 87>    H        6.21176        -1.33273         3.72166
| 88>    H        3.68558        -1.53057         2.00654
| 89>    H        3.84391        -2.06216         3.68013
| 90>    H        4.76817        -2.86857         2.40782
| 91>    H        9.21270        -0.50696        -2.18795
| 92>    H       10.55308        -1.29674        -3.01537
| 93>    H       10.78373         0.53594        -0.57923
| 94>    H       11.24255         0.94554        -2.23274
| 95>    H       12.14808        -0.28600        -1.33867
| 96>    H       11.55811        -5.71421         4.29316
| 97>    H       13.79250        -6.44424         3.35091
| 98>    H       10.99608        -3.01661        -3.70066
| 99>    H       12.24529        -3.93482        -4.53691
|100>    H       12.23074        -1.56109        -5.30410
|101>    H       13.77122        -2.03252        -4.59042
|102>    H       12.65633        -1.02765        -3.67255
|103>    H       18.53892        -7.01998        -4.14683
|104>    H       17.41164        -7.71968        -2.98520
|105>    H       19.11925        -5.26764        -2.34070
|106>    H       19.54693        -6.92906        -1.92664
|107>    H       18.10660        -6.18289        -1.23390
|108>    H       16.64309        -5.72598        -7.11614
|109>    H       22.58139        -6.00685        -4.95234
|110>    H       20.99973        -7.89444        -9.28987
|111> *
|112> 
|113>                          ****END OF INPUT****
================================================================================

                     *******************************
                     * Energy+Gradient Calculation *
                     *******************************

---------------------------------
CARTESIAN COORDINATES (ANGSTROEM)
---------------------------------
  C      4.925100    2.248150   -1.479930
  O      5.920840    1.776850   -2.000860
  C      4.048490    3.284000   -2.066740
  C      4.164000    3.913170   -3.290090
  C      3.208150    4.861780   -3.616480
  F      3.279630    5.497230   -4.792640
  C      2.173100    5.160600   -2.730600
  F      1.264340    6.081450   -3.070840
  C      2.058320    4.527170   -1.501390
  C      3.009570    3.576280   -1.167550
  C      3.171530    2.741830    0.025340
  C      2.334680    2.756000    1.112020
  C      2.466420    1.958740    2.268350
  N      2.499070    1.346490    3.240120
  C      1.201790    3.589740    1.226150
  N      0.269250    4.240390    1.383070
  C      4.352180    1.927800   -0.173880
  C      4.845680    1.012520    0.729270
  C      5.957220    0.172010    0.670510
  S      7.090110    0.082290   -0.682060
  C      7.996340   -1.127290    0.142550
  C      7.443790   -1.437420    1.400080
  C      6.302170   -0.714170    1.710140
  C      5.531800   -0.923200    2.972120
  C      4.382690   -1.910840    2.749410
  S      8.344430   -2.658150    2.281480
  C      9.455910   -2.741460    0.962790
  C      9.142860   -1.886290   -0.100660
  N     10.069780   -2.021170   -1.103680
  C     10.208670   -0.935850   -2.051740
  C     11.159400    0.132880   -1.516680
  C     10.999500   -2.956220   -0.684680
  C     10.643420   -3.403730    0.620750
  C     11.441060   -4.279300    1.403520
  N     11.052150   -4.651130    2.628050
  C     11.880540   -5.416370    3.305190
  C     13.113970   -5.823460    2.782570
  N     13.510860   -5.479470    1.576510
  C     12.679490   -4.708240    0.866970
  C     12.988180   -4.340230   -0.468680
  C     12.139390   -3.540530   -1.288120
  N     12.658670   -3.518470   -2.566150
  C     12.074810   -3.118700   -3.825690
  C     12.721140   -1.850150   -4.378950
  C     13.821750   -4.239850   -2.558890
  C     14.061050   -4.744470   -1.275960
  S     15.496790   -5.694920   -1.158490
  C     15.789240   -5.427770   -2.862940
  C     14.793700   -4.650320   -3.474380
  S     15.076850   -4.491090   -5.162300
  C     16.581550   -5.398210   -5.024240
  C     16.811230   -5.843610   -3.725610
  C     17.891870   -6.787840   -3.300540
  C     18.718170   -6.255270   -2.128880
  C     17.272380   -5.632880   -6.234470
  C     18.603490   -5.811900   -6.474930
  C     19.783560   -5.502640   -5.701730
  C     19.895750   -4.516520   -4.757180
  C     21.101500   -4.185420   -4.105830
  N     22.051080   -3.891340   -3.532520
  C     18.829740   -3.671100   -4.388470
  N     18.003500   -2.935540   -4.082310
  C     20.902470   -6.223240   -6.309490
  C     22.209400   -6.397770   -5.885530
  C     23.064460   -7.122330   -6.702910
  F     24.327210   -7.317400   -6.308720
  C     22.637330   -7.654360   -7.920310
  F     23.498880   -8.340960   -8.679620
  C     21.330500   -7.483490   -8.349400
  C     20.475180   -6.772330   -7.531410
  C     19.037710   -6.471850   -7.731800
  O     18.351320   -6.741320   -8.689370
  H      4.966840    3.679260   -3.970900
  H      1.239420    4.796090   -0.854750
  H      4.286720    0.915260    1.649790
  H      5.131450    0.018170    3.350870
  H      6.211760   -1.332730    3.721660
  H      3.685580   -1.530570    2.006540
  H      3.843910   -2.062160    3.680130
  H      4.768170   -2.868570    2.407820
  H      9.212700   -0.506960   -2.187950
  H     10.553080   -1.296740   -3.015370
  H     10.783730    0.535940   -0.579230
  H     11.242550    0.945540   -2.232740
  H     12.148080   -0.286000   -1.338670
  H     11.558110   -5.714210    4.293160
  H     13.792500   -6.444240    3.350910
  H     10.996080   -3.016610   -3.700660
  H     12.245290   -3.934820   -4.536910
  H     12.230740   -1.561090   -5.304100
  H     13.771220   -2.032520   -4.590420
  H     12.656330   -1.027650   -3.672550
  H     18.538920   -7.019980   -4.146830
  H     17.411640   -7.719680   -2.985200
  H     19.119250   -5.267640   -2.340700
  H     19.546930   -6.929060   -1.926640
  H     18.106600   -6.182890   -1.233900
  H     16.643090   -5.725980   -7.116140
  H     22.581390   -6.006850   -4.952340
  H     20.999730   -7.894440   -9.289870

----------------------------
CARTESIAN COORDINATES (A.U.)
----------------------------
  NO LB      ZA    FRAG     MASS         X           Y           Z
   0 C     6.0000    0    12.011    9.307090    4.248388   -2.796662
   1 O     8.0000    0    15.999   11.188766    3.357760   -3.781077
   2 C     6.0000    0    12.011    7.650537    6.205861   -3.905573
   3 C     6.0000    0    12.011    7.868820    7.394820   -6.217369
   4 C     6.0000    0    12.011    6.062525    9.187433   -6.834157
   5 F     9.0000    0    18.998    6.197603   10.388259   -9.056777
   6 C     6.0000    0    12.011    4.106564    9.752121   -5.160086
   7 F     9.0000    0    18.998    2.389256   11.492275   -5.803047
   8 C     6.0000    0    12.011    3.889661    8.555111   -2.837216
   9 C     6.0000    0    12.011    5.687263    6.758190   -2.206350
  10 C     6.0000    0    12.011    5.993323    5.181308    0.047886
  11 C     6.0000    0    12.011    4.411906    5.208085    2.101413
  12 C     6.0000    0    12.011    4.660858    3.701482    4.286560
  13 N     7.0000    0    14.007    4.722558    2.544497    6.122939
  14 C     6.0000    0    12.011    2.271054    6.783625    2.317088
  15 N     7.0000    0    14.007    0.508809    8.013176    2.613624
  16 C     6.0000    0    12.011    8.224428    3.643014   -0.328586
  17 C     6.0000    0    12.011    9.157008    1.913386    1.378121
  18 C     6.0000    0    12.011   11.257514    0.325052    1.267080
  19 S    16.0000    0    32.060   13.398366    0.155506   -1.288907
  20 C     6.0000    0    12.011   15.110893   -2.130269    0.269380
  21 C     6.0000    0    12.011   14.066724   -2.716330    2.645768
  22 C     6.0000    0    12.011   11.909375   -1.349586    3.231696
  23 C     6.0000    0    12.011   10.453587   -1.744595    5.616493
  24 C     6.0000    0    12.011    8.282084   -3.610964    5.195632
  25 S    16.0000    0    32.060   15.768687   -5.023176    4.311372
  26 C     6.0000    0    12.011   17.869080   -5.180609    1.819409
  27 C     6.0000    0    12.011   17.277501   -3.564572   -0.190220
  28 N     7.0000    0    14.007   19.029126   -3.819458   -2.085653
  29 C     6.0000    0    12.011   19.291590   -1.768500   -3.877227
  30 C     6.0000    0    12.011   21.088210    0.251107   -2.866110
  31 C     6.0000    0    12.011   20.786043   -5.586446   -1.293858
  32 C     6.0000    0    12.011   20.113149   -6.432118    1.173047
  33 C     6.0000    0    12.011   21.620470   -8.086705    2.652268
  34 N     7.0000    0    14.007   20.885537   -8.789362    4.966295
  35 C     6.0000    0    12.011   22.450967  -10.235456    6.245904
  36 C     6.0000    0    12.011   24.781812  -11.004745    5.258295
  37 N     7.0000    0    14.007   25.531825  -10.354698    2.979172
  38 C     6.0000    0    12.011   23.960764   -8.897284    1.638336
  39 C     6.0000    0    12.011   24.544103   -8.201846   -0.885677
  40 C     6.0000    0    12.011   22.940123   -6.690632   -2.434194
  41 N     7.0000    0    14.007   23.921420   -6.648945   -4.849321
  42 C     6.0000    0    12.011   22.818084   -5.893489   -7.229506
  43 C     6.0000    0    12.011   24.039471   -3.496277   -8.275016
  44 C     6.0000    0    12.011   26.119322   -8.012155   -4.835601
  45 C     6.0000    0    12.011   26.571534   -8.965749   -2.411215
  46 S    16.0000    0    32.060   29.284689  -10.761839   -2.189229
  47 C     6.0000    0    12.011   29.837339  -10.256999   -5.410173
  48 C     6.0000    0    12.011   27.956042   -8.787831   -6.565627
  49 S    16.0000    0    32.060   28.491117   -8.486930   -9.755333
  50 C     6.0000    0    12.011   31.334588  -10.201139   -9.494438
  51 C     6.0000    0    12.011   31.768621  -11.042823   -7.040383
  52 C     6.0000    0    12.011   33.810734  -12.827159   -6.237117
  53 C     6.0000    0    12.011   35.372215  -11.820747   -4.023000
  54 C     6.0000    0    12.011   32.640068  -10.644601  -11.781441
  55 C     6.0000    0    12.011   35.155501  -10.982899  -12.235844
  56 C     6.0000    0    12.011   37.385510  -10.398483  -10.774708
  57 C     6.0000    0    12.011   37.597519   -8.534986   -8.989767
  58 C     6.0000    0    12.011   39.876056   -7.909298   -7.758894
  59 N     7.0000    0    14.007   41.670502   -7.353567   -6.675495
  60 C     6.0000    0    12.011   35.583052   -6.937374   -8.293006
  61 N     7.0000    0    14.007   34.021684   -5.547367   -7.714448
  62 C     6.0000    0    12.011   39.499944  -11.760219  -11.923208
  63 C     6.0000    0    12.011   41.969684  -12.090033  -11.122040
  64 C     6.0000    0    12.011   43.585513  -13.459253  -12.666664
  65 F     9.0000    0    18.998   45.971765  -13.827882  -11.921753
  66 C     6.0000    0    12.011   42.778354  -14.464644  -14.967217
  67 F     9.0000    0    18.998   44.406448  -15.762130  -16.402105
  68 C     6.0000    0    12.011   40.308803  -14.141747  -15.778079
  69 C     6.0000    0    12.011   38.692483  -12.797849  -14.232302
  70 C     6.0000    0    12.011   35.976058  -12.230024  -14.610985
  71 O     8.0000    0    15.999   34.678969  -12.739249  -16.420530
  72 H     1.0000    0     1.008    9.385967    6.952794   -7.503914
  73 H     1.0000    0     1.008    2.342164    9.063297   -1.615243
  74 H     1.0000    0     1.008    8.100727    1.729591    3.117651
  75 H     1.0000    0     1.008    9.697035    0.034336    6.332227
  76 H     1.0000    0     1.008   11.738525   -2.518495    7.032918
  77 H     1.0000    0     1.008    6.964737   -2.892358    3.791811
  78 H     1.0000    0     1.008    7.263937   -3.896918    6.954438
  79 H     1.0000    0     1.008    9.010535   -5.420812    4.550120
  80 H     1.0000    0     1.008   17.409480   -0.958016   -4.134626
  81 H     1.0000    0     1.008   19.942431   -2.450483   -5.698223
  82 H     1.0000    0     1.008   20.378296    1.012780   -1.094586
  83 H     1.0000    0     1.008   21.245341    1.786812   -4.219267
  84 H     1.0000    0     1.008   22.956544   -0.540462   -2.529720
  85 H     1.0000    0     1.008   21.841663  -10.798292    8.112897
  86 H     1.0000    0     1.008   26.064048  -12.177849    6.332302
  87 H     1.0000    0     1.008   20.779580   -5.700567   -6.993234
  88 H     1.0000    0     1.008   23.140245   -7.435732   -8.573517
  89 H     1.0000    0     1.008   23.112749   -2.950033  -10.023296
  90 H     1.0000    0     1.008   26.023834   -3.840906   -8.674637
  91 H     1.0000    0     1.008   23.916998   -1.941977   -6.940114
  92 H     1.0000    0     1.008   35.033482  -13.265840   -7.836373
  93 H     1.0000    0     1.008   32.903231  -14.588081   -5.641210
  94 H     1.0000    0     1.008   36.130146   -9.954397   -4.423282
  95 H     1.0000    0     1.008   36.938344  -13.094026   -3.640822
  96 H     1.0000    0     1.008   34.216515  -11.683969   -2.331733
  97 H     1.0000    0     1.008   31.450882  -10.820534  -13.447556
  98 H     1.0000    0     1.008   42.672643  -11.351301   -9.358566
  99 H     1.0000    0     1.008   39.683739  -14.918330  -17.555310

--------------------------------
INTERNAL COORDINATES (ANGSTROEM)
--------------------------------
 C      0   0   0     0.000000000000     0.00000000     0.00000000
 O      1   0   0     1.218601617634     0.00000000     0.00000000
 C      1   2   0     1.478437110837   125.85922775     0.00000000
 C      3   1   2     1.380500877037   128.42113832     0.26006365
 C      4   3   1     1.385655291442   117.58234874   180.12146281
 F      5   4   3     1.338752568065   119.67356767   180.02683103
 C      5   4   3     1.394777856614   120.59514294     0.05387259
 F      7   5   4     1.337749123603   119.34395716   179.95162800
 C      7   5   4     1.387575308731   121.75142819   359.93590662
 C      9   7   5     1.385827370274   118.02469381     0.00000000
 C     10   9   7     1.464760866558   131.52686864   180.11253963
 C     11  10   9     1.371638485097   124.87977410     0.18727051
 C     12  11  10     1.410701245516   125.91472293   179.70519688
 N     13  12  11     1.149022635939   175.58168305   181.96147503
 C     12  11  10     1.411236265336   124.05224427   359.64205954
 N     15  12  11     1.147867658095   176.47485724   181.24020579
 C     11  10   9     1.447849395414   107.36167384   180.08656634
 C     17  11  10     1.377301583133   125.14068138   179.66427844
 C     18  17  11     1.394787069520   131.17651708   180.03710525
 S     19  18  17     1.766616833215   125.02318427     0.36190176
 C     20  19  18     1.721719559452    90.37372786   180.15791318
 C     21  20  19     1.408145525257   112.08039807   359.90992247
 C     22  21  20     1.386551113555   114.07297076   359.92766185
 C     23  22  21     1.493237087070   122.73414266   177.75076085
 C     24  23  22     1.531498059352   110.76088240   265.82990005
 S     22  21  20     1.754480009148   113.60596597   180.46093710
 C     26  22  21     1.726635938060    88.87360560     0.14194561
 C     21  20  19     1.396330983148   136.94021599   180.15193125
 N     28  21  20     1.372378381205   137.33254622   359.79302491
 C     29  28  21     1.447766451504   118.01599977    20.60691557
 C     30  29  28     1.527206780171   110.78715776    85.05984941
 C     29  28  21     1.383567411043   107.39424954   178.57049344
 C     27  26  22     1.402060239291   138.96664793   177.42940771
 C     33  27  26     1.419711684604   129.24691991   355.58900473
 N     34  33  27     1.337528413866   120.85473562     4.49828811
 C     35  34  33     1.315424201275   116.73677451   182.93543344
 C     36  35  34     1.400072675757   122.12661282     0.26372843
 N     37  36  35     1.315458671263   122.14097108   359.10009678
 C     38  37  36     1.337691594277   116.71545518     0.42962179
 C     39  38  37     1.419394870605   120.89348044   183.18558554
 C     32  29  28     1.415947464350   133.69259712   177.35322162
 N     41  32  29     1.379673527651   133.72339522   350.83890205
 C     42  41  32     1.444697049246   131.29387464   344.84988460
 C     43  42  41     1.527435170146   111.99937879   111.99174868
 C     42  41  32     1.368647835785   107.84881340   178.08232559
 C     45  42  41     1.399219503616   109.89433204     0.43397575
 S     46  45  42     1.725834218863   113.78456705   179.10526810
 C     47  46  45     1.749870260191    89.35014464   359.65353824
 C     45  42  41     1.396887383972   137.96126737   177.19790482
 S     49  45  42     1.718895587812   136.96734476   359.26980647
 C     50  49  45     1.762398748297    90.91886711   179.08275577
 C     51  50  49     1.391967650235   112.25045522     2.31051748
 C     52  51  50     1.496675518407   125.87170799   171.38991383
 C     53  52  51     1.529440960122   112.82848020   128.51521512
 C     51  50  49     1.413142862806   115.83396722   177.56877266
 C     55  51  50     1.364449707428   130.51375555   151.88997837
 C     56  55  51     1.444314783037   132.42643609   341.72709801
 C     57  56  55     1.370107277917   126.16254987   333.67501898
 C     58  57  56     1.409864211547   123.88689446   185.28084468
 N     59  58  57     1.147549379722   177.05456154   201.06778214
 C     58  57  56     1.409630930634   123.37109308     1.48309194
 N     61  58  57     1.147804424456   176.84065869   216.58452440
 C     57  56  55     1.463077634885   107.27794146   165.87697192
 C     63  57  56     1.385015822076   131.03780575   188.20546207
 C     64  63  57     1.387164323936   117.84659560   181.31004515
 F     65  64  63     1.337152056985   118.98640237   180.73573694
 C     65  64  63     1.395549611372   121.63415461     0.50486743
 F     67  65  64     1.337998370178   119.57785412   179.66298916
 C     67  65  64     1.386044528109   120.77279904   359.44808773
 C     69  67  65     1.380734763849   117.65558956     0.00000000
 C     70  69  67     1.482148569948   128.69063058   181.49400206
 O     71  70  69     1.208588274765   127.78693461   356.12025234
 H      4   3   1     1.078317304786   121.52867120     0.10518581
 H      9   7   5     1.077524229890   118.72199736   179.97695724
 H     18  17  11     1.081319961713   115.64412246     0.04299423
 H     24  23  22     1.090829575094   111.22186874   143.98142371
 H     24  23  22     1.091728278511   108.14512394    25.18836669
 H     25  24  23     1.087392965721   110.78369256   298.81498886
 H     25  24  23     1.086011670840   109.72273647   179.12534346
 H     25  24  23     1.087439796678   110.34469458    59.24725535
 H     30  29  28     1.092911724294   106.76060429   325.71515962
 H     30  29  28     1.085100279744   111.26381813   208.09684560
 H     31  30  29     1.087381172818   110.26516079   300.31948846
 H     31  30  29     1.086311245316   109.89027187   180.75360639
 H     31  30  29     1.088409921353   110.69958404    60.25451619
 H     36  35  34     1.081089492780   116.28775945   180.11928561
 H     37  36  35     1.081101810608   121.57736391   179.36384247
 H     43  42  41     1.090739786521   109.00511310   346.87680328
 H     43  42  41     1.095878265685   107.26989867   230.95891029
 H     44  43  42     1.086255203026   109.78336176   182.17917889
 H     44  43  42     1.086575530831   109.87913478    63.08425409
 H     44  43  42     1.086143427960   111.59803871   303.13616544
 H     53  52  51     1.090307042167   110.02124097     4.77645653
 H     53  52  51     1.094708159328   107.58339443   247.81266015
 H     54  53  52     1.086805362381   111.50049842   306.02948647
 H     54  53  52     1.087077329034   109.79003513   185.68694789
 H     54  53  52     1.086391241542   110.49723422    66.05602891
 H     55  51  50     1.087205363765   115.19923968   329.14850354
 H     64  63  57     1.077978934210   123.01908486     1.97303459
 H     69  67  65     1.078319301645   120.81289319   180.01011206

---------------------------
INTERNAL COORDINATES (A.U.)
---------------------------
 C      0   0   0     0.000000000000     0.00000000     0.00000000
 O      1   0   0     2.302823323682     0.00000000     0.00000000
 C      1   2   0     2.793841245708   125.85922775     0.00000000
 C      3   1   2     2.608768585238   128.42113832     0.26006365
 C      4   3   1     2.618509016843   117.58234874   180.12146281
 F      5   4   3     2.529875714726   119.67356767   180.02683103
 C      5   4   3     2.635748166658   120.59514294     0.05387259
 F      7   5   4     2.527979479502   119.34395716   179.95162800
 C      7   5   4     2.622137323693   121.75142819   359.93590662
 C      9   7   5     2.618834198710   118.02469381     0.00000000
 C     10   9   7     2.767996889480   131.52686864   180.11253963
 C     11  10   9     2.592021091581   124.87977410     0.18727051
 C     12  11  10     2.665839010807   125.91472293   179.70519688
 N     13  12  11     2.171338103601   175.58168305   181.96147503
 C     12  11  10     2.666850051743   124.05224427   359.64205954
 N     15  12  11     2.169155511785   176.47485724   181.24020579
 C     11  10   9     2.736038840495   107.36167384   180.08656634
 C     17  11  10     2.602722795937   125.14068138   179.66427844
 C     18  17  11     2.635765576527   131.17651708   180.03710525
 S     19  18  17     3.338421998352   125.02318427     0.36190176
 C     20  19  18     3.253578446780    90.37372786   180.15791318
 C     21  20  19     2.661009399442   112.08039807   359.90992247
 C     22  21  20     2.620201875302   114.07297076   359.92766185
 C     23  22  21     2.821809147576   122.73414266   177.75076085
 C     24  23  22     2.894111906808   110.76088240   265.82990005
 S     22  21  20     3.315486724729   113.60596597   180.46093710
 C     26  22  21     3.262869055919    88.87360560     0.14194561
 C     21  20  19     2.638683150459   136.94021599   180.15193125
 N     28  21  20     2.593419292592   137.33254622   359.79302491
 C     29  28  21     2.735882099221   118.01599977    20.60691557
 C     30  29  28     2.886002564391   110.78715776    85.05984941
 C     29  28  21     2.614563494690   107.39424954   178.57049344
 C     27  26  22     2.649509875520   138.96664793   177.42940771
 C     33  27  26     2.682866273029   129.24691991   355.58900473
 N     34  33  27     2.527562398546   120.85473562     4.49828811
 C     35  34  33     2.485791490342   116.73677451   182.93543344
 C     36  35  34     2.645753924766   122.12661282     0.26372843
 N     37  36  35     2.485856629178   122.14097108   359.10009678
 C     38  37  36     2.527870764832   116.71545518     0.42962179
 C     39  38  37     2.682267581336   120.89348044   183.18558554
 C     32  29  28     2.675752927642   133.69259712   177.35322162
 N     41  32  29     2.607205121481   133.72339522   350.83890205
 C     42  41  32     2.730081769559   131.29387464   344.84988460
 C     43  42  41     2.886434158896   111.99937879   111.99174868
 C     42  41  32     2.586369583418   107.84881340   178.08232559
 C     45  42  41     2.644141663076   109.89433204     0.43397575
 S     46  45  42     3.261354026202   113.78456705   179.10526810
 C     47  46  45     3.306775561654    89.35014464   359.65353824
 C     45  42  41     2.639734595637   137.96126737   177.19790482
 S     49  45  42     3.248241913771   136.96734476   359.26980647
 C     50  49  45     3.330450973048    90.91886711   179.08275577
 C     51  50  49     2.630437646222   112.25045522     2.31051748
 C     52  51  50     2.828306841135   125.87170799   171.38991383
 C     53  52  51     2.890224552633   112.82848020   128.51521512
 C     51  50  49     2.670452998809   115.83396722   177.56877266
 C     55  51  50     2.578436270548   130.51375555   151.88997837
 C     56  55  51     2.729359391114   132.42643609   341.72709801
 C     57  56  55     2.589127529355   126.16254987   333.67501898
 C     58  57  56     2.664257245840   123.88689446   185.28084468
 N     59  58  57     2.168554052825   177.05456154   201.06778214
 C     58  57  56     2.663816408803   123.37109308     1.48309194
 N     61  58  57     2.169036017524   176.84065869   216.58452440
 C     57  56  55     2.764816042597   107.27794146   165.87697192
 C     63  57  56     2.617300594871   131.03780575   188.20546207
 C     64  63  57     2.621360674985   117.84659560   181.31004515
 F     65  64  63     2.526851187112   118.98640237   180.73573694
 C     65  64  63     2.637206571793   121.63415461     0.50486743
 F     67  65  64     2.528450487270   119.57785412   179.66298916
 C     67  65  64     2.619244567546   120.77279904   359.44808773
 C     69  67  65     2.609210567258   117.65558956     0.00000000
 C     70  69  67     2.800854886985   128.69063058   181.49400206
 O     71  70  69     2.283900847975   127.78693461   356.12025234
 H      4   3   1     2.037724391513   121.52867120     0.10518581
 H      9   7   5     2.036225697156   118.72199736   179.97695724
 H     18  17  11     2.043398590781   115.64412246     0.04299423
 H     24  23  22     2.061369155710   111.22186874   143.98142371
 H     24  23  22     2.063067459043   108.14512394    25.18836669
 H     25  24  23     2.054874905166   110.78369256   298.81498886
 H     25  24  23     2.052264636129   109.72273647   179.12534346
 H     25  24  23     2.054963402849   110.34469458    59.24725535
 H     30  29  28     2.065303847468   106.76060429   325.71515962
 H     30  29  28     2.050542356557   111.26381813   208.09684560
 H     31  30  29     2.054852619809   110.26516079   300.31948846
 H     31  30  29     2.052830749846   109.89027187   180.75360639
 H     31  30  29     2.056796672800   110.69958404    60.25451619
 H     36  35  34     2.042963067615   116.28775945   180.11928561
 H     37  36  35     2.042986344936   121.57736391   179.36384247
 H     43  42  41     2.061199479897   109.00511310   346.87680328
 H     43  42  41     2.070909798261   107.26989867   230.95891029
 H     44  43  42     2.052724845265   109.78336176   182.17917889
 H     44  43  42     2.053330177090   109.87913478    63.08425409
 H     44  43  42     2.052513621002   111.59803871   303.13616544
 H     53  52  51     2.060381711582   110.02124097     4.77645653
 H     53  52  51     2.068698617700   107.58339443   247.81266015
 H     54  53  52     2.053764495777   111.50049842   306.02948647
 H     54  53  52     2.054278438269   109.79003513   185.68694789
 H     54  53  52     2.052981920806   110.49723422    66.05602891
 H     55  51  50     2.054520388847   115.19923968   329.14850354
 H     64  63  57     2.037084963793   123.01908486     1.97303459
 H     69  67  65     2.037728165030   120.81289319   180.01011206

---------------------
BASIS SET INFORMATION
---------------------
There are 6 groups of distinct atoms

 Group   1 Type C   : 7s4p1d contracted to 3s2p1d pattern {511/31/1}
 Group   2 Type O   : 7s4p1d contracted to 3s2p1d pattern {511/31/1}
 Group   3 Type F   : 7s4p1d contracted to 3s2p1d pattern {511/31/1}
 Group   4 Type N   : 7s4p1d contracted to 3s2p1d pattern {511/31/1}
 Group   5 Type S   : 10s7p1d contracted to 4s3p1d pattern {5311/511/1}
 Group   6 Type H   : 4s1p contracted to 2s1p pattern {31/1}

Atom   0C    basis set group =>   1
Atom   1O    basis set group =>   2
Atom   2C    basis set group =>   1
Atom   3C    basis set group =>   1
Atom   4C    basis set group =>   1
Atom   5F    basis set group =>   3
Atom   6C    basis set group =>   1
Atom   7F    basis set group =>   3
Atom   8C    basis set group =>   1
Atom   9C    basis set group =>   1
Atom  10C    basis set group =>   1
Atom  11C    basis set group =>   1
Atom  12C    basis set group =>   1
Atom  13N    basis set group =>   4
Atom  14C    basis set group =>   1
Atom  15N    basis set group =>   4
Atom  16C    basis set group =>   1
Atom  17C    basis set group =>   1
Atom  18C    basis set group =>   1
Atom  19S    basis set group =>   5
Atom  20C    basis set group =>   1
Atom  21C    basis set group =>   1
Atom  22C    basis set group =>   1
Atom  23C    basis set group =>   1
Atom  24C    basis set group =>   1
Atom  25S    basis set group =>   5
Atom  26C    basis set group =>   1
Atom  27C    basis set group =>   1
Atom  28N    basis set group =>   4
Atom  29C    basis set group =>   1
Atom  30C    basis set group =>   1
Atom  31C    basis set group =>   1
Atom  32C    basis set group =>   1
Atom  33C    basis set group =>   1
Atom  34N    basis set group =>   4
Atom  35C    basis set group =>   1
Atom  36C    basis set group =>   1
Atom  37N    basis set group =>   4
Atom  38C    basis set group =>   1
Atom  39C    basis set group =>   1
Atom  40C    basis set group =>   1
Atom  41N    basis set group =>   4
Atom  42C    basis set group =>   1
Atom  43C    basis set group =>   1
Atom  44C    basis set group =>   1
Atom  45C    basis set group =>   1
Atom  46S    basis set group =>   5
Atom  47C    basis set group =>   1
Atom  48C    basis set group =>   1
Atom  49S    basis set group =>   5
Atom  50C    basis set group =>   1
Atom  51C    basis set group =>   1
Atom  52C    basis set group =>   1
Atom  53C    basis set group =>   1
Atom  54C    basis set group =>   1
Atom  55C    basis set group =>   1
Atom  56C    basis set group =>   1
Atom  57C    basis set group =>   1
Atom  58C    basis set group =>   1
Atom  59N    basis set group =>   4
Atom  60C    basis set group =>   1
Atom  61N    basis set group =>   4
Atom  62C    basis set group =>   1
Atom  63C    basis set group =>   1
Atom  64C    basis set group =>   1
Atom  65F    basis set group =>   3
Atom  66C    basis set group =>   1
Atom  67F    basis set group =>   3
Atom  68C    basis set group =>   1
Atom  69C    basis set group =>   1
Atom  70C    basis set group =>   1
Atom  71O    basis set group =>   2
Atom  72H    basis set group =>   6
Atom  73H    basis set group =>   6
Atom  74H    basis set group =>   6
Atom  75H    basis set group =>   6
Atom  76H    basis set group =>   6
Atom  77H    basis set group =>   6
Atom  78H    basis set group =>   6
Atom  79H    basis set group =>   6
Atom  80H    basis set group =>   6
Atom  81H    basis set group =>   6
Atom  82H    basis set group =>   6
Atom  83H    basis set group =>   6
Atom  84H    basis set group =>   6
Atom  85H    basis set group =>   6
Atom  86H    basis set group =>   6
Atom  87H    basis set group =>   6
Atom  88H    basis set group =>   6
Atom  89H    basis set group =>   6
Atom  90H    basis set group =>   6
Atom  91H    basis set group =>   6
Atom  92H    basis set group =>   6
Atom  93H    basis set group =>   6
Atom  94H    basis set group =>   6
Atom  95H    basis set group =>   6
Atom  96H    basis set group =>   6
Atom  97H    basis set group =>   6
Atom  98H    basis set group =>   6
Atom  99H    basis set group =>   6
------------------------------------------------------------------------------
                           ORCA GTO INTEGRAL CALCULATION
------------------------------------------------------------------------------

                         BASIS SET STATISTICS AND STARTUP INFO

 # of primitive gaussian shells          ... 1028
 # of primitive gaussian functions       ... 1972
 # of contracted shells                  ...  524
 # of contracted basis functions         ... 1164
 Highest angular momentum                ...    2
 Maximum contraction depth               ...    5
 Integral package used                   ... LIBINT
 Integral threshhold            Thresh   ...  2.500e-11
 Primitive cut-off              TCut     ...  2.500e-12


------------------------------ INTEGRAL EVALUATION ----------------------------


 * One electron integrals 
 Pre-screening matrix                    ... done
 Shell pair data                         ... done (   0.018 sec)

-------------------------------------------------------------------------------
                                 ORCA SCF
-------------------------------------------------------------------------------

------------
SCF SETTINGS
------------
Hamiltonian:
 Ab initio Hamiltonian  Method          .... Hartree-Fock(GTOs)


General Settings:
 Integral files         IntName         .... AQx-2
 Hartree-Fock type      HFTyp           .... RHF
 Total Charge           Charge          ....    0
 Multiplicity           Mult            ....    1
 Number of Electrons    NEL             ....  524
 Basis Dimension        Dim             .... 1164
 Nuclear Repulsion      ENuc            ....  10946.8006983789 Eh

Convergence Acceleration:
 DIIS                   CNVDIIS         .... on
   Start iteration      DIISMaxIt       ....    12
   Startup error        DIISStart       ....  0.200000
   # of expansion vecs  DIISMaxEq       ....     5
   Bias factor          DIISBfac        ....   1.050
   Max. coefficient     DIISMaxC        ....  10.000
 Newton-Raphson         CNVNR           .... off
 SOSCF                  CNVSOSCF        .... on
   Start iteration      SOSCFMaxIt      ....   150
   Startup grad/error   SOSCFStart      ....  0.003300
 Level Shifting         CNVShift        .... on
   Level shift para.    LevelShift      ....    0.2500
   Turn off err/grad.   ShiftErr        ....    0.0010
 Zerner damping         CNVZerner       .... off
 Static damping         CNVDamp         .... on
   Fraction old density DampFac         ....    0.7000
   Max. Damping (<1)    DampMax         ....    0.9800
   Min. Damping (>=0)   DampMin         ....    0.0000
   Turn off err/grad.   DampErr         ....    0.1000
 Fernandez-Rico         CNVRico         .... off

SCF Procedure:
 Maximum # iterations   MaxIter         ....   125
 SCF integral mode      SCFMode         .... Direct
   Integral package                     .... LIBINT
 Reset frequency        DirectResetFreq ....    20
 Integral Threshold     Thresh          ....  2.500e-11 Eh
 Primitive CutOff       TCut            ....  2.500e-12 Eh

Convergence Tolerance:
 Convergence Check Mode ConvCheckMode   .... Total+1el-Energy
 Convergence forced     ConvForced      .... 1
 Energy Change          TolE            ....  1.000e-08 Eh
 1-El. energy change                    ....  1.000e-05 Eh
 Orbital Gradient       TolG            ....  1.000e-05
 Orbital Rotation angle TolX            ....  1.000e-05
 DIIS Error             TolErr          ....  5.000e-07


Diagonalization of the overlap matrix:
Smallest eigenvalue                        ... 8.716e-05
Time for diagonalization                   ...    0.344 sec
Threshold for overlap eigenvalues          ... 1.000e-08
Number of eigenvalues below threshold      ... 0
Time for construction of square roots      ...    0.144 sec
Total time needed                          ...    0.493 sec

-------------------
DFT GRID GENERATION
-------------------

General Integration Accuracy     IntAcc      ...  4.340
Radial Grid Type                 RadialGrid  ... Gauss-Chebyshev
Angular Grid (max. acc.)         AngularGrid ... Lebedev-110
Angular grid pruning method      GridPruning ... 3 (G Style)
Weight generation scheme         WeightScheme... Becke
Basis function cutoff            BFCut       ...    1.0000e-11
Integration weight cutoff        WCut        ...    1.0000e-14
Grids for H and He will be reduced by one unit

# of grid points (after initial pruning)     ... 142888 (   0.2 sec)
# of grid points (after weights+screening)   ... 124973 (   6.1 sec)
nearest neighbour list constructed           ...    0.0 sec
Grid point re-assignment to atoms done       ...    0.0 sec
Grid point division into batches done        ...    0.1 sec
Reduced shell lists constructed in    2.3 sec

Total number of grid points                  ...   124973
Total number of batches                      ...     2006
Average number of points per batch           ...       62
Average number of grid points per atom       ...     1250
Average number of shells per batch           ...   110.04 (21.00%)
Average number of basis functions per batch  ...   229.67 (19.73%)
Average number of large shells per batch     ...    66.36 (60.31%)
Average number of large basis fcns per batch ...   140.64 (61.24%)
Maximum spatial batch extension              ...  24.85, 27.44, 22.23 au
Average spatial batch extension              ...   3.27,  3.53,  3.29 au

Time for grid setup =    8.669 sec

------------------------------
INITIAL GUESS: MODEL POTENTIAL
------------------------------
Loading Hartree-Fock densities                     ... done
Calculating cut-offs                               ... done
Setting up the integral package                    ... done
Initializing the effective Hamiltonian             ... done
Starting the Coulomb interaction                   ... done (   8.8 sec)
Reading the grid                                   ... done
Mapping shells                                     ... done
Starting the XC term evaluation                    ... done (   2.2 sec)
Transforming the Hamiltonian                       ... done (   0.1 sec)
Diagonalizing the Hamiltonian                      ... done (   0.3 sec)
Back transforming the eigenvectors                 ... done (   0.1 sec)
Now organizing SCF variables                       ... done
                      ------------------
                      INITIAL GUESS DONE (  20.4 sec)
                      ------------------
--------------
SCF ITERATIONS
--------------
ITER       Energy         Delta-E        Max-DP      RMS-DP      [F,P]     Damp
               ***  Starting incremental Fock matrix formation  ***
  0  -4629.2755693766   0.000000000000 0.11189610  0.00148293  0.2392882 0.7000
  1  -4629.9841543178  -0.708584941262 0.08471345  0.00113660  0.1457302 0.7000
                               ***Turning on DIIS***
  2  -4630.4192381299  -0.435083812052 0.20101432  0.00265705  0.0819807 0.0000
  3  -4628.1585865381   2.260651591845 0.05529025  0.00053410  0.0483569 0.0000
  4  -4631.6924566978  -3.533870159785 0.01310573  0.00022622  0.0165016 0.0000
  5  -4631.5245578237   0.167898874144 0.00769445  0.00010831  0.0081088 0.0000
  6  -4631.3092831868   0.215274636877 0.00518070  0.00006554  0.0025695 0.0000
                      *** Initiating the SOSCF procedure ***
                           *** Shutting down DIIS ***
                      *** Re-Reading the Fockian *** 
                      *** Removing any level shift *** 
ITER      Energy       Delta-E        Grad      Rot      Max-DP    RMS-DP
  7  -4631.38756336  -0.0782801743  0.002969  0.002969  0.002854  0.000038
               *** Restarting incremental Fock matrix formation ***
  8  -4631.37664583   0.0109175301  0.001753  0.007332  0.001871  0.000026
  9  -4631.37684131  -0.0001954752  0.000690  0.007468  0.003286  0.000035
 10  -4631.37692669  -0.0000853825  0.000168  0.000500  0.000919  0.000008
 11  -4631.37693294  -0.0000062557  0.000126  0.000518  0.000277  0.000003
 12  -4631.37693497  -0.0000020248  0.000033  0.000189  0.000132  0.000002
 13  -4631.37693528  -0.0000003120  0.000026  0.000185  0.000127  0.000001
 14  -4631.37693541  -0.0000001293  0.000013  0.000145  0.000043  0.000001
 15  -4631.37693546  -0.0000000532  0.000007  0.000070  0.000026  0.000000
 16  -4631.37693547  -0.0000000080  0.000003  0.000030  0.000015  0.000000
                  ***Gradient check signals convergence***
              ***Rediagonalizing the Fockian in SOSCF/NRSCF***

               *****************************************************
               *                     SUCCESS                       *
               *           SCF CONVERGED AFTER  17 CYCLES          *
               *****************************************************


----------------
TOTAL SCF ENERGY
----------------

Total Energy       :        -4631.37693546 Eh         -126026.17346 eV

Components:
Nuclear Repulsion  :        10946.80069838 Eh          297877.59081 eV
Electronic Energy  :       -15578.17763384 Eh         -423903.76427 eV
One Electron Energy:       -28159.29860190 Eh         -766253.47053 eV
Two Electron Energy:        12581.12096806 Eh          342349.70626 eV

Virial components:
Potential Energy   :        -9251.53314221 Eh         -251747.01537 eV
Kinetic Energy     :         4620.15620675 Eh          125720.84191 eV
Virial Ratio       :            2.00242865


---------------
SCF CONVERGENCE
---------------

  Last Energy change         ...    1.0516e-08  Tolerance :   1.0000e-08
  Last MAX-Density change    ...    7.4188e-06  Tolerance :   1.0000e-07
  Last RMS-Density change    ...    8.2654e-08  Tolerance :   5.0000e-09
  Last Orbital Gradient      ...    1.7809e-06  Tolerance :   1.0000e-05
  Last Orbital Rotation      ...    1.2927e-05  Tolerance :   1.0000e-05

             **** THE GBW FILE WAS UPDATED (AQx-2.gbw) ****
             **** DENSITY FILE WAS UPDATED (AQx-2.scfp) ****
             **** ENERGY FILE WAS UPDATED (AQx-2.en.tmp) ****
             **** THE GBW FILE WAS UPDATED (AQx-2.gbw) ****
             **** DENSITY FILE WAS UPDATED (AQx-2.scfp) ****
----------------
ORBITAL ENERGIES
----------------

  NO   OCC          E(Eh)            E(eV) 
   0   2.0000     -91.982551     -2502.9725 
   1   2.0000     -91.973922     -2502.7377 
   2   2.0000     -91.973732     -2502.7325 
   3   2.0000     -91.972659     -2502.7033 
   4   2.0000     -26.339251      -716.7275 
   5   2.0000     -26.338753      -716.7139 
   6   2.0000     -26.335244      -716.6184 
   7   2.0000     -26.332630      -716.5473 
   8   2.0000     -20.572645      -559.8101 
   9   2.0000     -20.569661      -559.7289 
  10   2.0000     -15.651009      -425.8856 
  11   2.0000     -15.647642      -425.7940 
  12   2.0000     -15.602642      -424.5695 
  13   2.0000     -15.602516      -424.5660 
  14   2.0000     -15.597646      -424.4335 
  15   2.0000     -15.594631      -424.3515 
  16   2.0000     -15.594152      -424.3384 
  17   2.0000     -15.586390      -424.1272 
  18   2.0000     -11.383369      -309.7572 
  19   2.0000     -11.381996      -309.7199 
  20   2.0000     -11.377524      -309.5982 
  21   2.0000     -11.375945      -309.5552 
  22   2.0000     -11.370843      -309.4164 
  23   2.0000     -11.368165      -309.3435 
  24   2.0000     -11.347907      -308.7923 
  25   2.0000     -11.342681      -308.6500 
  26   2.0000     -11.329335      -308.2869 
  27   2.0000     -11.329301      -308.2860 
  28   2.0000     -11.327190      -308.2285 
  29   2.0000     -11.324688      -308.1604 
  30   2.0000     -11.319884      -308.0297 
  31   2.0000     -11.317682      -307.9698 
  32   2.0000     -11.314835      -307.8923 
  33   2.0000     -11.311787      -307.8094 
  34   2.0000     -11.310084      -307.7630 
  35   2.0000     -11.309181      -307.7385 
  36   2.0000     -11.308093      -307.7088 
  37   2.0000     -11.307073      -307.6811 
  38   2.0000     -11.306480      -307.6650 
  39   2.0000     -11.306207      -307.6575 
  40   2.0000     -11.304122      -307.6008 
  41   2.0000     -11.303738      -307.5903 
  42   2.0000     -11.303058      -307.5719 
  43   2.0000     -11.303018      -307.5708 
  44   2.0000     -11.302554      -307.5581 
  45   2.0000     -11.302489      -307.5564 
  46   2.0000     -11.301349      -307.5253 
  47   2.0000     -11.301056      -307.5174 
  48   2.0000     -11.300935      -307.5141 
  49   2.0000     -11.300678      -307.5071 
  50   2.0000     -11.299596      -307.4776 
  51   2.0000     -11.299485      -307.4746 
  52   2.0000     -11.298141      -307.4380 
  53   2.0000     -11.295434      -307.3644 
  54   2.0000     -11.294520      -307.3395 
  55   2.0000     -11.294383      -307.3358 
  56   2.0000     -11.293620      -307.3150 
  57   2.0000     -11.292255      -307.2779 
  58   2.0000     -11.291331      -307.2527 
  59   2.0000     -11.288073      -307.1641 
  60   2.0000     -11.286874      -307.1315 
  61   2.0000     -11.286457      -307.1201 
  62   2.0000     -11.281664      -306.9897 
  63   2.0000     -11.271353      -306.7091 
  64   2.0000     -11.271238      -306.7060 
  65   2.0000     -11.270333      -306.6813 
  66   2.0000     -11.266845      -306.5864 
  67   2.0000     -11.261617      -306.4442 
  68   2.0000     -11.255685      -306.2828 
  69   2.0000     -11.251869      -306.1789 
  70   2.0000     -11.244934      -305.9902 
  71   2.0000     -11.240597      -305.8722 
  72   2.0000      -9.017698      -245.3840 
  73   2.0000      -9.008196      -245.1255 
  74   2.0000      -9.007292      -245.1009 
  75   2.0000      -9.007063      -245.0947 
  76   2.0000      -6.705355      -182.4620 
  77   2.0000      -6.704269      -182.4324 
  78   2.0000      -6.702170      -182.3753 
  79   2.0000      -6.695713      -182.1996 
  80   2.0000      -6.694899      -182.1775 
  81   2.0000      -6.694585      -182.1689 
  82   2.0000      -6.694520      -182.1671 
  83   2.0000      -6.693779      -182.1470 
  84   2.0000      -6.693139      -182.1296 
  85   2.0000      -6.692593      -182.1147 
  86   2.0000      -6.691450      -182.0836 
  87   2.0000      -6.691077      -182.0735 
  88   2.0000      -1.649403       -44.8825 
  89   2.0000      -1.644123       -44.7389 
  90   2.0000      -1.634473       -44.4763 
  91   2.0000      -1.629160       -44.3317 
  92   2.0000      -1.405326       -38.2409 
  93   2.0000      -1.403621       -38.1945 
  94   2.0000      -1.357146       -36.9298 
  95   2.0000      -1.341168       -36.4950 
  96   2.0000      -1.322018       -35.9739 
  97   2.0000      -1.259930       -34.2844 
  98   2.0000      -1.253637       -34.1132 
  99   2.0000      -1.237399       -33.6713 
 100   2.0000      -1.235672       -33.6244 
 101   2.0000      -1.234216       -33.5847 
 102   2.0000      -1.233525       -33.5659 
 103   2.0000      -1.230122       -33.4733 
 104   2.0000      -1.228676       -33.4340 
 105   2.0000      -1.225724       -33.3536 
 106   2.0000      -1.180963       -32.1356 
 107   2.0000      -1.175704       -31.9925 
 108   2.0000      -1.171043       -31.8657 
 109   2.0000      -1.158158       -31.5151 
 110   2.0000      -1.149101       -31.2686 
 111   2.0000      -1.114023       -30.3141 
 112   2.0000      -1.107826       -30.1455 
 113   2.0000      -1.101424       -29.9713 
 114   2.0000      -1.094022       -29.7699 
 115   2.0000      -1.089300       -29.6414 
 116   2.0000      -1.085484       -29.5375 
 117   2.0000      -1.078673       -29.3522 
 118   2.0000      -1.076203       -29.2850 
 119   2.0000      -1.072731       -29.1905 
 120   2.0000      -1.068443       -29.0738 
 121   2.0000      -1.043514       -28.3955 
 122   2.0000      -1.035440       -28.1758 
 123   2.0000      -1.014677       -27.6108 
 124   2.0000      -1.013510       -27.5790 
 125   2.0000      -1.007574       -27.4175 
 126   2.0000      -0.996115       -27.1057 
 127   2.0000      -0.974787       -26.5253 
 128   2.0000      -0.963469       -26.2173 
 129   2.0000      -0.961174       -26.1549 
 130   2.0000      -0.948640       -25.8138 
 131   2.0000      -0.943901       -25.6849 
 132   2.0000      -0.937701       -25.5161 
 133   2.0000      -0.929636       -25.2967 
 134   2.0000      -0.924305       -25.1516 
 135   2.0000      -0.907285       -24.6885 
 136   2.0000      -0.893166       -24.3043 
 137   2.0000      -0.885547       -24.0970 
 138   2.0000      -0.876934       -23.8626 
 139   2.0000      -0.871689       -23.7199 
 140   2.0000      -0.871228       -23.7073 
 141   2.0000      -0.864253       -23.5175 
 142   2.0000      -0.860667       -23.4199 
 143   2.0000      -0.849457       -23.1149 
 144   2.0000      -0.832349       -22.6494 
 145   2.0000      -0.825038       -22.4504 
 146   2.0000      -0.815023       -22.1779 
 147   2.0000      -0.808238       -21.9933 
 148   2.0000      -0.800470       -21.7819 
 149   2.0000      -0.796743       -21.6805 
 150   2.0000      -0.791316       -21.5328 
 151   2.0000      -0.788189       -21.4477 
 152   2.0000      -0.785643       -21.3784 
 153   2.0000      -0.784080       -21.3359 
 154   2.0000      -0.774130       -21.0651 
 155   2.0000      -0.757496       -20.6125 
 156   2.0000      -0.755029       -20.5454 
 157   2.0000      -0.751555       -20.4508 
 158   2.0000      -0.746548       -20.3146 
 159   2.0000      -0.746047       -20.3010 
 160   2.0000      -0.741322       -20.1724 
 161   2.0000      -0.738907       -20.1067 
 162   2.0000      -0.735225       -20.0065 
 163   2.0000      -0.733755       -19.9665 
 164   2.0000      -0.723751       -19.6943 
 165   2.0000      -0.719573       -19.5806 
 166   2.0000      -0.718226       -19.5439 
 167   2.0000      -0.714440       -19.4409 
 168   2.0000      -0.713203       -19.4072 
 169   2.0000      -0.705801       -19.2058 
 170   2.0000      -0.702282       -19.1101 
 171   2.0000      -0.697996       -18.9934 
 172   2.0000      -0.691919       -18.8281 
 173   2.0000      -0.684799       -18.6343 
 174   2.0000      -0.678286       -18.4571 
 175   2.0000      -0.677350       -18.4316 
 176   2.0000      -0.675004       -18.3678 
 177   2.0000      -0.671600       -18.2752 
 178   2.0000      -0.669913       -18.2293 
 179   2.0000      -0.663671       -18.0594 
 180   2.0000      -0.662122       -18.0173 
 181   2.0000      -0.659446       -17.9444 
 182   2.0000      -0.655087       -17.8258 
 183   2.0000      -0.643910       -17.5217 
 184   2.0000      -0.640946       -17.4410 
 185   2.0000      -0.639582       -17.4039 
 186   2.0000      -0.636323       -17.3152 
 187   2.0000      -0.632428       -17.2092 
 188   2.0000      -0.630551       -17.1582 
 189   2.0000      -0.628143       -17.0926 
 190   2.0000      -0.627141       -17.0654 
 191   2.0000      -0.623880       -16.9766 
 192   2.0000      -0.623731       -16.9726 
 193   2.0000      -0.621755       -16.9188 
 194   2.0000      -0.618276       -16.8242 
 195   2.0000      -0.612702       -16.6725 
 196   2.0000      -0.610134       -16.6026 
 197   2.0000      -0.607902       -16.5418 
 198   2.0000      -0.605735       -16.4829 
 199   2.0000      -0.602102       -16.3840 
 200   2.0000      -0.592100       -16.1119 
 201   2.0000      -0.586130       -15.9494 
 202   2.0000      -0.582955       -15.8630 
 203   2.0000      -0.582387       -15.8476 
 204   2.0000      -0.580055       -15.7841 
 205   2.0000      -0.579733       -15.7753 
 206   2.0000      -0.579133       -15.7590 
 207   2.0000      -0.578262       -15.7353 
 208   2.0000      -0.577364       -15.7109 
 209   2.0000      -0.573890       -15.6163 
 210   2.0000      -0.571305       -15.5460 
 211   2.0000      -0.569209       -15.4890 
 212   2.0000      -0.567188       -15.4340 
 213   2.0000      -0.563294       -15.3280 
 214   2.0000      -0.561493       -15.2790 
 215   2.0000      -0.559531       -15.2256 
 216   2.0000      -0.555062       -15.1040 
 217   2.0000      -0.553818       -15.0701 
 218   2.0000      -0.549271       -14.9464 
 219   2.0000      -0.545791       -14.8517 
 220   2.0000      -0.540864       -14.7177 
 221   2.0000      -0.540353       -14.7038 
 222   2.0000      -0.538844       -14.6627 
 223   2.0000      -0.535180       -14.5630 
 224   2.0000      -0.530554       -14.4371 
 225   2.0000      -0.527359       -14.3502 
 226   2.0000      -0.524637       -14.2761 
 227   2.0000      -0.517704       -14.0874 
 228   2.0000      -0.513053       -13.9609 
 229   2.0000      -0.511052       -13.9064 
 230   2.0000      -0.510695       -13.8967 
 231   2.0000      -0.508646       -13.8410 
 232   2.0000      -0.503372       -13.6974 
 233   2.0000      -0.499906       -13.6031 
 234   2.0000      -0.499032       -13.5793 
 235   2.0000      -0.497187       -13.5291 
 236   2.0000      -0.489711       -13.3257 
 237   2.0000      -0.488134       -13.2828 
 238   2.0000      -0.483499       -13.1567 
 239   2.0000      -0.478657       -13.0249 
 240   2.0000      -0.476522       -12.9668 
 241   2.0000      -0.475450       -12.9377 
 242   2.0000      -0.469320       -12.7708 
 243   2.0000      -0.462910       -12.5964 
 244   2.0000      -0.456565       -12.4238 
 245   2.0000      -0.450523       -12.2594 
 246   2.0000      -0.434199       -11.8151 
 247   2.0000      -0.424454       -11.5500 
 248   2.0000      -0.418663       -11.3924 
 249   2.0000      -0.412615       -11.2278 
 250   2.0000      -0.397970       -10.8293 
 251   2.0000      -0.393711       -10.7134 
 252   2.0000      -0.387877       -10.5547 
 253   2.0000      -0.386640       -10.5210 
 254   2.0000      -0.364290        -9.9128 
 255   2.0000      -0.359563        -9.7842 
 256   2.0000      -0.352251        -9.5852 
 257   2.0000      -0.346370        -9.4252 
 258   2.0000      -0.330269        -8.9871 
 259   2.0000      -0.306344        -8.3360 
 260   2.0000      -0.306074        -8.3287 
 261   2.0000      -0.258237        -7.0270 
 262   0.0000      -0.030404        -0.8273 
 263   0.0000      -0.017388        -0.4732 
 264   0.0000       0.010741         0.2923 
 265   0.0000       0.016338         0.4446 
 266   0.0000       0.040467         1.1012 
 267   0.0000       0.066200         1.8014 
 268   0.0000       0.069396         1.8883 
 269   0.0000       0.094491         2.5712 
 270   0.0000       0.104271         2.8374 
 271   0.0000       0.123614         3.3637 
 272   0.0000       0.133812         3.6412 
 273   0.0000       0.140886         3.8337 
 274   0.0000       0.145284         3.9534 
 275   0.0000       0.146965         3.9991 
 276   0.0000       0.154395         4.2013 
 277   0.0000       0.157325         4.2810 
 278   0.0000       0.160073         4.3558 
 279   0.0000       0.163235         4.4419 
 280   0.0000       0.166912         4.5419 
 281   0.0000       0.171238         4.6596 
 282   0.0000       0.181718         4.9448 
 283   0.0000       0.184669         5.0251 
 284   0.0000       0.190649         5.1878 
 285   0.0000       0.191909         5.2221 
 286   0.0000       0.194796         5.3007 
 287   0.0000       0.198620         5.4047 
 288   0.0000       0.201013         5.4698 
 289   0.0000       0.201651         5.4872 
 290   0.0000       0.202866         5.5203 
 291   0.0000       0.206574         5.6212 
 292   0.0000       0.207263         5.6399 
 293   0.0000       0.210311         5.7229 
 294   0.0000       0.212966         5.7951 
 295   0.0000       0.217610         5.9215 
 296   0.0000       0.221337         6.0229 
 297   0.0000       0.223907         6.0928 
 298   0.0000       0.224983         6.1221 
 299   0.0000       0.226719         6.1693 
 300   0.0000       0.229386         6.2419 
 301   0.0000       0.232468         6.3258 
 302   0.0000       0.232765         6.3338 
 303   0.0000       0.235578         6.4104 
 304   0.0000       0.236301         6.4301 
 305   0.0000       0.237701         6.4682 
 306   0.0000       0.238389         6.4869 
 307   0.0000       0.240564         6.5461 
 308   0.0000       0.244302         6.6478 
 309   0.0000       0.246203         6.6995 
 310   0.0000       0.248792         6.7700 
 311   0.0000       0.253109         6.8874 
 312   0.0000       0.257696         7.0123 
 313   0.0000       0.258540         7.0352 
 314   0.0000       0.264398         7.1946 
 315   0.0000       0.265166         7.2155 
 316   0.0000       0.268511         7.3065 
 317   0.0000       0.269021         7.3204 
 318   0.0000       0.276550         7.5253 
 319   0.0000       0.279534         7.6065 
 320   0.0000       0.282507         7.6874 
 321   0.0000       0.285794         7.7769 
 322   0.0000       0.288954         7.8628 
 323   0.0000       0.292594         7.9619 
 324   0.0000       0.293686         7.9916 
 325   0.0000       0.300346         8.1728 
 326   0.0000       0.308757         8.4017 
 327   0.0000       0.313257         8.5241 
 328   0.0000       0.315910         8.5964 
 329   0.0000       0.321497         8.7484 
 330   0.0000       0.323900         8.8138 
 331   0.0000       0.327709         8.9174 
 332   0.0000       0.331356         9.0167 
 333   0.0000       0.335393         9.1265 
 334   0.0000       0.335964         9.1421 
 335   0.0000       0.340892         9.2761 
 336   0.0000       0.343241         9.3400 
 337   0.0000       0.346191         9.4203 
 338   0.0000       0.348590         9.4856 
 339   0.0000       0.351782         9.5725 
 340   0.0000       0.353614         9.6223 
 341   0.0000       0.355532         9.6745 
 342   0.0000       0.357082         9.7167 
 343   0.0000       0.365025         9.9328 
 344   0.0000       0.368558        10.0290 
 345   0.0000       0.369970        10.0674 
 346   0.0000       0.373331        10.1589 
 347   0.0000       0.375348        10.2137 
 348   0.0000       0.380415        10.3516 
 349   0.0000       0.383637        10.4393 
 350   0.0000       0.389309        10.5936 
 351   0.0000       0.393016        10.6945 
 352   0.0000       0.394948        10.7471 
 353   0.0000       0.395643        10.7660 
 354   0.0000       0.398069        10.8320 
 355   0.0000       0.404100        10.9961 
 356   0.0000       0.407411        11.0862 
 357   0.0000       0.409984        11.1562 
 358   0.0000       0.413793        11.2599 
 359   0.0000       0.414960        11.2916 
 360   0.0000       0.416005        11.3201 
 361   0.0000       0.419001        11.4016 
 362   0.0000       0.421109        11.4590 
 363   0.0000       0.422865        11.5067 
 364   0.0000       0.425090        11.5673 
 365   0.0000       0.430459        11.7134 
 366   0.0000       0.434997        11.8369 
 367   0.0000       0.438805        11.9405 
 368   0.0000       0.441759        12.0209 
 369   0.0000       0.447344        12.1729 
 370   0.0000       0.449394        12.2286 
 371   0.0000       0.452573        12.3151 
 372   0.0000       0.454362        12.3638 
 373   0.0000       0.459470        12.5028 
 374   0.0000       0.461416        12.5558 
 375   0.0000       0.465600        12.6696 
 376   0.0000       0.468964        12.7612 
 377   0.0000       0.469912        12.7870 
 378   0.0000       0.470788        12.8108 
 379   0.0000       0.473627        12.8881 
 380   0.0000       0.476584        12.9685 
 381   0.0000       0.477514        12.9938 
 382   0.0000       0.482592        13.1320 
 383   0.0000       0.492834        13.4107 
 384   0.0000       0.495196        13.4750 
 385   0.0000       0.500098        13.6083 
 386   0.0000       0.502391        13.6708 
 387   0.0000       0.510626        13.8949 
 388   0.0000       0.512922        13.9573 
 389   0.0000       0.516905        14.0657 
 390   0.0000       0.521749        14.1975 
 391   0.0000       0.524763        14.2795 
 392   0.0000       0.531513        14.4632 
 393   0.0000       0.536709        14.6046 
 394   0.0000       0.539954        14.6929 
 395   0.0000       0.542686        14.7672 
 396   0.0000       0.543800        14.7976 
 397   0.0000       0.547157        14.8889 
 398   0.0000       0.551676        15.0119 
 399   0.0000       0.554077        15.0772 
 400   0.0000       0.561203        15.2711 
 401   0.0000       0.562605        15.3093 
 402   0.0000       0.570213        15.5163 
 403   0.0000       0.571357        15.5474 
 404   0.0000       0.573682        15.6107 
 405   0.0000       0.581364        15.8197 
 406   0.0000       0.583303        15.8725 
 407   0.0000       0.590545        16.0695 
 408   0.0000       0.592768        16.1300 
 409   0.0000       0.597609        16.2618 
 410   0.0000       0.599407        16.3107 
 411   0.0000       0.603950        16.4343 
 412   0.0000       0.607436        16.5292 
 413   0.0000       0.609092        16.5742 
 414   0.0000       0.611459        16.6387 
 415   0.0000       0.612555        16.6685 
 416   0.0000       0.616666        16.7803 
 417   0.0000       0.617707        16.8087 
 418   0.0000       0.620544        16.8859 
 419   0.0000       0.622558        16.9407 
 420   0.0000       0.625321        17.0158 
 421   0.0000       0.626442        17.0464 
 422   0.0000       0.632184        17.2026 
 423   0.0000       0.634605        17.2685 
 424   0.0000       0.637094        17.3362 
 425   0.0000       0.639024        17.3887 
 426   0.0000       0.642409        17.4808 
 427   0.0000       0.644441        17.5361 
 428   0.0000       0.649391        17.6708 
 429   0.0000       0.651557        17.7298 
 430   0.0000       0.654842        17.8192 
 431   0.0000       0.659428        17.9439 
 432   0.0000       0.663188        18.0463 
 433   0.0000       0.665442        18.1076 
 434   0.0000       0.668710        18.1965 
 435   0.0000       0.669150        18.2085 
 436   0.0000       0.675976        18.3942 
 437   0.0000       0.679352        18.4861 
 438   0.0000       0.680988        18.5306 
 439   0.0000       0.686473        18.6799 
 440   0.0000       0.688173        18.7261 
 441   0.0000       0.691934        18.8285 
 442   0.0000       0.693691        18.8763 
 443   0.0000       0.694715        18.9042 
 444   0.0000       0.701705        19.0944 
 445   0.0000       0.702372        19.1125 
 446   0.0000       0.703804        19.1515 
 447   0.0000       0.705105        19.1869 
 448   0.0000       0.705979        19.2107 
 449   0.0000       0.708478        19.2787 
 450   0.0000       0.711397        19.3581 
 451   0.0000       0.712907        19.3992 
 452   0.0000       0.715093        19.4587 
 453   0.0000       0.720771        19.6132 
 454   0.0000       0.722112        19.6497 
 455   0.0000       0.727512        19.7966 
 456   0.0000       0.729200        19.8426 
 457   0.0000       0.733907        19.9706 
 458   0.0000       0.734563        19.9885 
 459   0.0000       0.736530        20.0420 
 460   0.0000       0.739636        20.1265 
 461   0.0000       0.741823        20.1860 
 462   0.0000       0.745321        20.2812 
 463   0.0000       0.749636        20.3986 
 464   0.0000       0.753358        20.4999 
 465   0.0000       0.754105        20.5202 
 466   0.0000       0.756549        20.5867 
 467   0.0000       0.758347        20.6357 
 468   0.0000       0.761951        20.7337 
 469   0.0000       0.764550        20.8045 
 470   0.0000       0.765579        20.8325 
 471   0.0000       0.771381        20.9903 
 472   0.0000       0.775564        21.1042 
 473   0.0000       0.777695        21.1622 
 474   0.0000       0.781640        21.2695 
 475   0.0000       0.784499        21.3473 
 476   0.0000       0.787756        21.4359 
 477   0.0000       0.790737        21.5171 
 478   0.0000       0.795711        21.6524 
 479   0.0000       0.797001        21.6875 
 480   0.0000       0.800027        21.7699 
 481   0.0000       0.805704        21.9243 
 482   0.0000       0.808343        21.9961 
 483   0.0000       0.810026        22.0419 
 484   0.0000       0.811715        22.0879 
 485   0.0000       0.815029        22.1781 
 486   0.0000       0.816293        22.2125 
 487   0.0000       0.820437        22.3252 
 488   0.0000       0.824128        22.4257 
 489   0.0000       0.824942        22.4478 
 490   0.0000       0.827796        22.5255 
 491   0.0000       0.831644        22.6302 
 492   0.0000       0.833270        22.6744 
 493   0.0000       0.834418        22.7057 
 494   0.0000       0.834762        22.7150 
 495   0.0000       0.838511        22.8170 
 496   0.0000       0.842295        22.9200 
 497   0.0000       0.844720        22.9860 
 498   0.0000       0.845744        23.0139 
 499   0.0000       0.849181        23.1074 
 500   0.0000       0.853013        23.2117 
 501   0.0000       0.854331        23.2475 
 502   0.0000       0.855791        23.2873 
 503   0.0000       0.856891        23.3172 
 504   0.0000       0.859611        23.3912 
 505   0.0000       0.860987        23.4286 
 506   0.0000       0.863736        23.5034 
 507   0.0000       0.864836        23.5334 
 508   0.0000       0.867117        23.5954 
 509   0.0000       0.868683        23.6381 
 510   0.0000       0.872676        23.7467 
 511   0.0000       0.875525        23.8242 
 512   0.0000       0.878893        23.9159 
 513   0.0000       0.880564        23.9614 
 514   0.0000       0.882096        24.0030 
 515   0.0000       0.883211        24.0334 
 516   0.0000       0.883418        24.0390 
 517   0.0000       0.884929        24.0801 
 518   0.0000       0.887717        24.1560 
 519   0.0000       0.890005        24.2183 
 520   0.0000       0.892557        24.2877 
 521   0.0000       0.894808        24.3490 
 522   0.0000       0.897516        24.4227 
 523   0.0000       0.898495        24.4493 
 524   0.0000       0.898751        24.4563 
 525   0.0000       0.902317        24.5533 
 526   0.0000       0.903953        24.5978 
 527   0.0000       0.907058        24.6823 
 528   0.0000       0.908456        24.7203 
 529   0.0000       0.910745        24.7826 
 530   0.0000       0.911574        24.8052 
 531   0.0000       0.913545        24.8588 
 532   0.0000       0.914909        24.8959 
 533   0.0000       0.918863        25.0035 
 534   0.0000       0.921139        25.0655 
 535   0.0000       0.923417        25.1275 
 536   0.0000       0.924848        25.1664 
 537   0.0000       0.926267        25.2050 
 538   0.0000       0.926853        25.2210 
 539   0.0000       0.930638        25.3240 
 540   0.0000       0.931948        25.3596 
 541   0.0000       0.933599        25.4045 
 542   0.0000       0.935506        25.4564 
 543   0.0000       0.937208        25.5027 
 544   0.0000       0.939551        25.5665 
 545   0.0000       0.941806        25.6278 
 546   0.0000       0.943698        25.6793 
 547   0.0000       0.944665        25.7056 
 548   0.0000       0.945004        25.7149 
 549   0.0000       0.948840        25.8192 
 550   0.0000       0.951777        25.8992 
 551   0.0000       0.953034        25.9334 
 552   0.0000       0.953697        25.9514 
 553   0.0000       0.955780        26.0081 
 554   0.0000       0.958912        26.0933 
 555   0.0000       0.959651        26.1134 
 556   0.0000       0.962083        26.1796 
 557   0.0000       0.966648        26.3038 
 558   0.0000       0.968347        26.3501 
 559   0.0000       0.969834        26.3905 
 560   0.0000       0.974456        26.5163 
 561   0.0000       0.977282        26.5932 
 562   0.0000       0.978929        26.6380 
 563   0.0000       0.982332        26.7306 
 564   0.0000       0.983646        26.7664 
 565   0.0000       0.985089        26.8056 
 566   0.0000       0.988471        26.8977 
 567   0.0000       0.990297        26.9474 
 568   0.0000       0.994085        27.0504 
 569   0.0000       0.994600        27.0644 
 570   0.0000       0.998344        27.1663 
 571   0.0000       0.999456        27.1966 
 572   0.0000       1.002019        27.2663 
 573   0.0000       1.003283        27.3007 
 574   0.0000       1.006327        27.3835 
 575   0.0000       1.008738        27.4492 
 576   0.0000       1.012593        27.5541 
 577   0.0000       1.013135        27.5688 
 578   0.0000       1.016312        27.6553 
 579   0.0000       1.018289        27.7091 
 580   0.0000       1.021763        27.8036 
 581   0.0000       1.026938        27.9444 
 582   0.0000       1.029927        28.0257 
 583   0.0000       1.032779        28.1033 
 584   0.0000       1.037126        28.2216 
 585   0.0000       1.041060        28.3287 
 586   0.0000       1.043662        28.3995 
 587   0.0000       1.049051        28.5461 
 588   0.0000       1.052228        28.6326 
 589   0.0000       1.059730        28.8367 
 590   0.0000       1.063103        28.9285 
 591   0.0000       1.065553        28.9952 
 592   0.0000       1.067186        29.0396 
 593   0.0000       1.070667        29.1343 
 594   0.0000       1.074946        29.2508 
 595   0.0000       1.076098        29.2821 
 596   0.0000       1.078826        29.3564 
 597   0.0000       1.081468        29.4282 
 598   0.0000       1.084692        29.5160 
 599   0.0000       1.089265        29.6404 
 600   0.0000       1.092417        29.7262 
 601   0.0000       1.095820        29.8188 
 602   0.0000       1.096510        29.8375 
 603   0.0000       1.098200        29.8835 
 604   0.0000       1.101621        29.9766 
 605   0.0000       1.104143        30.0453 
 606   0.0000       1.107611        30.1396 
 607   0.0000       1.111776        30.2530 
 608   0.0000       1.115785        30.3621 
 609   0.0000       1.117176        30.3999 
 610   0.0000       1.120316        30.4853 
 611   0.0000       1.122168        30.5357 
 612   0.0000       1.125184        30.6178 
 613   0.0000       1.127893        30.6915 
 614   0.0000       1.129591        30.7377 
 615   0.0000       1.137215        30.9452 
 616   0.0000       1.138506        30.9803 
 617   0.0000       1.144066        31.1316 
 618   0.0000       1.148053        31.2401 
 619   0.0000       1.154075        31.4040 
 620   0.0000       1.158053        31.5122 
 621   0.0000       1.160668        31.5834 
[...]

                       ****Iteration    4****
   Time for densities:     1.149
   Using LibInt in JK Direct
   Time for J+K (Direct):  1486.156
   Time for Sigma-Completion:    10.672
   Size of expansion space: 21
   Lowest Energy          :     0.100233674668
   Maximum Energy change  :     0.000429397390 (vector 2)
   Maximum residual norm  :     0.000058402397

                       ****Iteration    5****
   Time for densities:     1.148
   Using LibInt in JK Direct
   Time for J+K (Direct):  1505.448
   Time for Sigma-Completion:    11.315
   Size of expansion space: 24
   Lowest Energy          :     0.100222356513
   Maximum Energy change  :     0.000131759203 (vector 2)
   Maximum residual norm  :     0.000015181283

                       ****Iteration    6****
   Time for densities:     1.179
   Using LibInt in JK Direct
   Time for J+K (Direct):  1519.121
   Time for Sigma-Completion:    10.880
   Size of expansion space: 27
   Lowest Energy          :     0.100220475026
   Maximum Energy change  :     0.000044840121 (vector 2)
   Maximum residual norm  :     0.000008478043

                       ****Iteration    7****
   Time for densities:     1.181
   Using LibInt in JK Direct
   Time for J+K (Direct):  1518.935
   Time for Sigma-Completion:    10.656
   Size of expansion space: 30
   Lowest Energy          :     0.100220041409
   Maximum Energy change  :     0.000024336969 (vector 2)
   Maximum residual norm  :     0.000003545355
   Rebuilding the expansion space

                       ****Iteration    8****
   Time for densities:     2.307
   Using LibInt in JK Direct
   Time for J+K (Direct):  2929.959
   Time for Sigma-Completion:    21.826
   Size of expansion space: 6
   Lowest Energy          :     0.100219970500
   Maximum Energy change  :     0.000006781338 (vector 2)
   Maximum residual norm  :     0.000001194631

                       ****Iteration    9****
   Time for densities:     1.191
   Using LibInt in JK Direct
   Time for J+K (Direct):  1507.467
   Time for Sigma-Completion:    10.936
   Size of expansion space: 9
   Lowest Energy          :     0.100219943124
   Maximum Energy change  :     0.000003526175 (vector 2)
   Maximum residual norm  :     0.000000523391

                       ****Iteration   10****
   Time for densities:     1.195
   Using LibInt in JK Direct
   Time for J+K (Direct):  1521.716
   Time for Sigma-Completion:    10.921
   Size of expansion space: 12
   Lowest Energy          :     0.100219934915
   Maximum Energy change  :     0.000002207338 (vector 2)
   Maximum residual norm  :     0.000000394950

                       ****Iteration   11****
   Time for densities:     1.182
   Using LibInt in JK Direct
   Time for J+K (Direct):  1510.179
   Time for Sigma-Completion:    10.954
   Size of expansion space: 15
   Lowest Energy          :     0.100219933054
   Maximum Energy change  :     0.000000971569 (vector 2)
   Maximum residual norm  :     0.000000148998

      *** CONVERGENCE OF RESIDUAL NORM REACHED ***

Storing the converged CI vectors               ... AQx-2.cis1

                 *** DAVIDSON DONE ***

Total time for solving the CIS problem: 22450.490sec

-----------------------------
CIS-EXCITED STATES (SINGLETS)
-----------------------------

the weight of the individual excitations are printed if larger than 1.0e-02

STATE  1:  E=   0.100220 au      2.727 eV    21995.7 cm**-1
   257a -> 262a  :     0.014964 (c= -0.12232826)
   259a -> 263a  :     0.070602 (c=  0.26571103)
   260a -> 263a  :     0.099108 (c= -0.31481413)
   261a -> 262a  :     0.659475 (c= -0.81208086)
   261a -> 264a  :     0.025784 (c= -0.16057536)
   261a -> 266a  :     0.012930 (c=  0.11370841)

STATE  2:  E=   0.119306 au      3.246 eV    26184.7 cm**-1
   257a -> 263a  :     0.067982 (c= -0.26073287)
   259a -> 262a  :     0.127759 (c=  0.35743359)
   260a -> 262a  :     0.206714 (c= -0.45465786)
   261a -> 263a  :     0.434643 (c= -0.65927430)
   261a -> 265a  :     0.023373 (c= -0.15288275)

STATE  3:  E=   0.154157 au      4.195 eV    33833.6 cm**-1
   253a -> 263a  :     0.013621 (c=  0.11670994)
   257a -> 262a  :     0.106848 (c=  0.32687605)
   257a -> 264a  :     0.014556 (c= -0.12065005)
   258a -> 262a  :     0.010077 (c= -0.10038369)
   259a -> 263a  :     0.029583 (c= -0.17199741)
   259a -> 265a  :     0.025026 (c=  0.15819559)
   259a -> 269a  :     0.010431 (c=  0.10213328)
   260a -> 262a  :     0.018847 (c= -0.13728502)
   260a -> 263a  :     0.140339 (c=  0.37461890)
   260a -> 265a  :     0.014908 (c= -0.12210029)
   261a -> 264a  :     0.255958 (c= -0.50592300)
   261a -> 265a  :     0.017558 (c=  0.13250699)
   261a -> 266a  :     0.159536 (c=  0.39941949)
   261a -> 270a  :     0.011271 (c= -0.10616529)


----------------------
CIS-EXCITATION SPECTRA
----------------------

Center of mass = ( 22.2401, -4.4998, -4.0190)
Calculating the Dipole integrals                  ... done
Transforming integrals                            ... done
Calculating the Linear Momentum integrals         ... done
Transforming integrals                            ... done
Calculating angular momentum integrals            ... done
Transforming integrals                            ... done

-----------------------------------------------------------------------------
         ABSORPTION SPECTRUM VIA TRANSITION ELECTRIC DIPOLE MOMENTS
-----------------------------------------------------------------------------
State   Energy    Wavelength  fosc         T2        TX        TY        TZ  
        (cm-1)      (nm)                 (au**2)    (au)      (au)      (au) 
-----------------------------------------------------------------------------
   1   21995.7    454.6   2.664384017  39.87806  -5.42880   2.75311   1.68123
   2   26184.7    381.9   0.482683350   6.06862   0.46139  -1.96391   1.41379
   3   33833.6    295.6   0.060297526   0.58671  -0.01619   0.41920   0.64088

-----------------------------------------------------------------------------
         ABSORPTION SPECTRUM VIA TRANSITION VELOCITY DIPOLE MOMENTS
-----------------------------------------------------------------------------
State   Energy    Wavelength   fosc        P2         PX        PY        PZ  
        (cm-1)      (nm)                 (au**2)     (au)      (au)      (au) 
-----------------------------------------------------------------------------
   1   21995.7    454.6   1.553474897   0.23353   0.41330  -0.22388  -0.11223
   2   26184.7    381.9   0.075693137   0.01355  -0.04725   0.08684  -0.06141
   3   33833.6    295.6   0.007513783   0.00174  -0.00256   0.02716  -0.03152

-------------------------------------------------------------------
                             CD SPECTRUM
-------------------------------------------------------------------
State  Energy     Wavelength     R         MX        MY        MZ   
       (cm-1)       (nm)     (1e40*cgs)   (au)      (au)      (au)  
-------------------------------------------------------------------
   1   21995.7    454.6    856.72413  -0.83851  -0.48051  -0.83984
   2   26184.7    381.9    -771.51508   0.21880   0.96458   0.11099
   3   33833.6    295.6     22.84693   0.17109  -0.00423   0.08271

Total run time:    22510.775 sec

           *** ORCA-CIS/TD-DFT FINISHED WITHOUT ERROR ***

-----------------------
CIS/TD-DFT TOTAL ENERGY
-----------------------

    E(SCF)  =  -4631.376935461 Eh
    DE(CIS) =      0.100219933 Eh (Root  1)
    ----------------------------- ---------
    E(tot)  =  -4631.276715528 Eh


-------------------------   --------------------
FINAL SINGLE POINT ENERGY     -4631.276715528202
-------------------------   --------------------

------------------------------------------------------------------------------
                         ORCA SCF GRADIENT CALCULATION
------------------------------------------------------------------------------


------------
CIS GRADIENT
------------

Reference wavefunction             ... RHF
State of interest                  ... 1
Basis dimension                    ... 1164
DFT-XC contribution needed         ... NO
RI-approximation                   ... OFF
CIS-vectors being read from        ... AQx-2.cis

 => Number of Vectors found: 3
 => Orbital Window: 88...261 -> 262...1163

Reading the CIS file                     ... done
Norm of the CI vector                    ... 1.000000000
Making the CIS (pseudo)densities         ... done
Making operators G(D) and Q(T)           ... done
Transforming the Fock operators          ... done
Making the frozen-core relaxed density   ... done
Constructing the G(H) operator           ... done
Transforming the G(H) operator           ... done
Calculating the CIS Lagrangian           ... done
Solving the Z-vector equations           ... done
Finalizing the relaxed density           ... done
Storing the relaxed density              ... done
Constructing the G(Z) operator           ... done
Transforming the G(Z) operator           ... done
Making the W-matrix                      ... done
Finalizing the W-matrix                  ... done
Transforming the W-matrix                ... done
Nuclear repulsion gradient               ... done
One-Electron gradient                    ... done
Prescreening matrices                    ... done
Two-Electron gradient (4-center)         ... done
                 ---------------------------
                 EXCITED STATE GRADIENT DONE
                 ---------------------------


------------------
CARTESIAN GRADIENT
------------------

   1   C   :   -0.032747665    0.012798341    0.021550048
   2   O   :    0.046099996   -0.029601159   -0.010916381
   3   C   :    0.009955661   -0.007603361   -0.000533149
   4   C   :    0.002269611   -0.000778288   -0.001792463
   5   C   :    0.002966857   -0.010969299    0.014606752
   6   F   :    0.003126517    0.011289749   -0.023426716
   7   C   :    0.009824991   -0.012966651    0.008854843
   8   F   :   -0.018733996    0.017621800   -0.004703931
   9   C   :    0.000922952   -0.002995520    0.003792258
  10   C   :   -0.007177577   -0.006060284    0.019948957
  11   C   :    0.000821433    0.008826086   -0.015708553
  12   C   :   -0.009628159   -0.001468329    0.014809844
  13   C   :   -0.003422195    0.031341828   -0.046985371
  14   N   :   -0.000469291   -0.017208002    0.028666261
  15   C   :    0.044928987   -0.033429347   -0.004121239
  16   N   :   -0.026292661    0.017891471    0.005326078
  17   C   :    0.002480235   -0.000196066   -0.003438622
  18   C   :    0.003739052    0.000819241   -0.007199839
  19   C   :   -0.006462025   -0.000480591    0.008039340
  20   S   :   -0.014188820    0.014156196   -0.003608611
  21   C   :    0.001781424    0.003175862   -0.007900701
  22   C   :   -0.000680820   -0.004157094    0.005813573
  23   C   :   -0.009292526    0.002508805   -0.000524423
  24   C   :    0.007096181    0.003351861   -0.001846384
  25   C   :   -0.001185578   -0.001715045   -0.003088050
  26   S   :    0.001076120    0.002418286   -0.005296337
  27   C   :   -0.011452258    0.002006800    0.008728227
  28   C   :    0.001159023    0.007872490   -0.005704444
  29   N   :    0.010077876    0.004555263   -0.000152004
  30   C   :   -0.008072249   -0.010974850    0.001377382
  31   C   :    0.003513261    0.001922024    0.003034029
  32   C   :   -0.004909284    0.005381844    0.000275718
  33   C   :    0.018245244   -0.016519109    0.002658486
  34   C   :   -0.016971647    0.015676926   -0.011076464
  35   N   :   -0.012890684    0.003498386    0.005963446
  36   C   :    0.012456226   -0.008528048    0.003381720
  37   C   :   -0.008706266   -0.001092593    0.013029172
  38   N   :    0.012920014   -0.004241014   -0.004960425
  39   C   :    0.009309478    0.004506253   -0.022504883
  40   C   :   -0.012687911    0.002224651    0.019525225
  41   C   :    0.004381212   -0.000947736   -0.005252711
  42   N   :   -0.005698019    0.002907481   -0.000059954
  43   C   :    0.002785381   -0.006332799    0.008509684
  44   C   :    0.003230726    0.003768436   -0.001188668
  45   C   :   -0.003440425    0.003811080   -0.010364305
  46   C   :    0.011790461   -0.006074498   -0.000719381
  47   S   :   -0.000492895    0.002215078   -0.004640009
  48   C   :    0.001444728   -0.004883151    0.007217874
  49   C   :   -0.000027685    0.002850780   -0.002644214
  50   S   :   -0.002507631    0.000212747    0.002516475
  51   C   :    0.012925606   -0.001939695    0.005760682
  52   C   :    0.007452898    0.005137421   -0.005085943
  53   C   :   -0.006796967    0.002157306   -0.002721893
  54   C   :   -0.000516574    0.001327900    0.001713450
  55   C   :    0.003622798    0.001929037    0.002536033
  56   C   :    0.000339730    0.003597171    0.001823667
  57   C   :    0.008086382   -0.019639700   -0.005048410
  58   C   :    0.002268617    0.017583458    0.012864418
  59   C   :   -0.047143880   -0.012197038   -0.026682554
  60   N   :    0.025627650    0.008587179    0.016391477
  61   C   :    0.039527031   -0.041020715   -0.010666767
  62   N   :   -0.027050476    0.018939621    0.007990278
  63   C   :   -0.006485619    0.012415780    0.015786366
  64   C   :   -0.003710115    0.003104695    0.001664212
  65   C   :   -0.017406351    0.005294724   -0.001415241
  66   F   :    0.024013959   -0.002675337    0.009525412
  67   C   :   -0.014569339    0.008391793    0.007233220
  68   F   :    0.015076910   -0.013347065   -0.016130023
  69   C   :   -0.002191753   -0.001282274   -0.002232619
  70   C   :   -0.011141958   -0.000501457   -0.005209469
  71   C   :    0.024367610    0.008693056    0.027553864
  72   O   :   -0.023828617   -0.008128854   -0.029912981
  73   H   :   -0.000792216   -0.000258606    0.001530301
  74   H   :   -0.000025168   -0.001345079    0.002402990
  75   H   :   -0.005079919    0.001090533    0.004985828
  76   H   :   -0.002858886    0.001529727   -0.001664042
  77   H   :    0.001257224   -0.003624544   -0.001513179
  78   H   :    0.002009474    0.000956976    0.000517434
  79   H   :    0.002764670    0.001309714   -0.001703809
  80   H   :    0.000621568    0.002476252    0.000896254
  81   H   :   -0.005382768    0.003821678    0.003731701
  82   H   :    0.005046695   -0.001057009   -0.003378061
  83   H   :    0.000058259   -0.001604930   -0.001514300
  84   H   :   -0.001436996   -0.003060773    0.001364840
  85   H   :   -0.001820413   -0.000895362    0.000038512
  86   H   :   -0.002571176    0.001896427   -0.001287807
  87   H   :    0.001571954    0.000598634   -0.003013905
  88   H   :   -0.004338993    0.002606238    0.001513348
  89   H   :    0.005189442   -0.001943868   -0.003429964
  90   H   :    0.000767702   -0.001673694    0.003309626
  91   H   :   -0.001221785   -0.002487481    0.000684258
  92   H   :   -0.000451796   -0.001269454    0.000033996
  93   H   :    0.004094003    0.002206125   -0.004685019
  94   H   :   -0.000852434    0.000409172    0.002947265
  95   H   :   -0.000416754    0.001312075   -0.003037682
  96   H   :   -0.001815347    0.001019588   -0.002061934
  97   H   :   -0.002932107   -0.000118814   -0.002573718
  98   H   :   -0.001744476   -0.000610436    0.000096089
  99   H   :   -0.002023986    0.000945607    0.001200579
 100   H   :   -0.000348692    0.000957368    0.001606059

Difference to translation invariance:
           :   -0.0000000002    0.0000000002    0.0000000000

Norm of the cartesian gradient     ...    0.1959078585
RMS gradient                       ...    0.0113107455
MAX gradient                       ...    0.0471438803

-------
TIMINGS
-------

Total CIS gradient time            ...    23555.101 sec

Fock matrix formation       ....    1733.541 sec  (  7.4%)
  Coulomb formation         ....    1733.541 sec  (100.0% of F)
Z-vector equation           ....   19868.273 sec  ( 84.3%)
One electron gradient       ....      12.635 sec  (  0.1%)
Prescreening matrices       ....       1.157 sec  (  0.0%)
Two electron gradient       ....    1936.700 sec  (  8.2%)

                            ***************************************
                            *     ORCA property calculations      *
                            ***************************************

                                    ---------------------
                                    Active property flags
                                    ---------------------
   (+) Dipole Moment


------------------------------------------------------------------------------
                       ORCA ELECTRIC PROPERTIES CALCULATION
------------------------------------------------------------------------------

Dipole Moment Calculation                       ... on
Quadrupole Moment Calculation                   ... off
Polarizability Calculation                      ... off
GBWName                                         ... AQx-2.gbw
Electron density file                           ... AQx-2.scfp
The origin for moment calculation is the CENTER OF MASS  = (22.240063, -4.499806 -4.018958)

-------------
DIPOLE MOMENT
-------------
                                X             Y             Z
Electronic contribution:      7.09862      10.87918     -27.11764
Nuclear contribution   :     -6.06639     -13.19634      26.33251
                        -----------------------------------------
Total Dipole Moment    :      1.03223      -2.31716      -0.78513
                        -----------------------------------------
Magnitude (a.u.)       :      2.65540
Magnitude (Debye)      :      6.74949



--------------------
Rotational spectrum 
--------------------
 
Rotational constants in cm-1:     0.001998     0.000259     0.000235 
Rotational constants in MHz :    59.892351     7.752177     7.034430 

 Dipole components along the rotational axes: 
x,y,z [a.u.] :    -2.135470     0.508944     1.493953 
x,y,z [Debye]:    -5.427933     1.293633     3.797327 

 

                        *** CIS RELAXED DENSITY ***

------------------------------------------------------------------------------
                       ORCA ELECTRIC PROPERTIES CALCULATION
------------------------------------------------------------------------------

Dipole Moment Calculation                       ... on
Quadrupole Moment Calculation                   ... off
Polarizability Calculation                      ... off
GBWName                                         ... AQx-2.gbw
Electron density file                           ... AQx-2.cisp
The origin for moment calculation is the CENTER OF MASS  = (22.240063, -4.499806 -4.018958)

-------------
DIPOLE MOMENT
-------------
                                X             Y             Z
Electronic contribution:      6.87742      10.49033     -26.43672
Nuclear contribution   :     -6.06639     -13.19634      26.33251
                        -----------------------------------------
Total Dipole Moment    :      0.81103      -2.70601      -0.10421
                        -----------------------------------------
Magnitude (a.u.)       :      2.82685
Magnitude (Debye)      :      7.18529



--------------------
Rotational spectrum 
--------------------
 
Rotational constants in cm-1:     0.001998     0.000259     0.000235 
Rotational constants in MHz :    59.892351     7.752177     7.034430 

 Dipole components along the rotational axes: 
x,y,z [a.u.] :    -1.930288     1.288184     1.614211 
x,y,z [Debye]:    -4.906401     3.274305     4.102999 

 

Timings for individual modules:

Sum of individual times         ...    52920.332 sec (= 882.006 min)
GTO integral calculation        ...        1.452 sec (=   0.024 min)   0.0 %
SCF iterations                  ...     6852.907 sec (= 114.215 min)  12.9 %
CIS module                      ...    22510.840 sec (= 375.181 min)  42.5 %
SCF Gradient evaluation         ...    23555.134 sec (= 392.586 min)  44.5 %
                             ****ORCA TERMINATED NORMALLY****
TOTAL RUN TIME: 0 days 14 hours 42 minutes 1 seconds 150 msec
