
                                 *****************
                                 * O   R   C   A *
                                 *****************

           --- An Ab Initio, DFT and Semiempirical electronic structure package ---

                  #######################################################
                  #                        -***-                        #
                  #          Department of theory and spectroscopy      #
                  #               Directorship: Frank Neese             #
                  #        Max Planck Institute fuer Kohlenforschung    #
                  #                Kaiser Wilhelm Platz 1               #
                  #                 D-45470 Muelheim/Ruhr               #
                  #                      Germany                        #
                  #                                                     #
                  #                  All rights reserved                #
                  #                        -***-                        #
                  #######################################################


                         Program Version 4.2.0 -  RELEASE  -


 With contributions from (in alphabetic order):
   Daniel Aravena         : Magnetic Suceptibility
   Michael Atanasov       : Ab Initio Ligand Field Theory (pilot matlab implementation)
   Alexander A. Auer      : GIAO ZORA, VPT2
   Ute Becker             : Parallelization
   Giovanni Bistoni       : ED, misc. LED, open-shell LED, HFLED
   Martin Brehm           : Molecular dynamics
   Dmytro Bykov           : SCF Hessian
   Vijay G. Chilkuri      : MRCI spin determinant printing, contributions to CSF-ICE
   Dipayan Datta          : RHF DLPNO-CCSD density
   Achintya Kumar Dutta   : EOM-CC, STEOM-CC
   Dmitry Ganyushin       : Spin-Orbit,Spin-Spin,Magnetic field MRCI
   Miquel Garcia          : C-PCM Hessian, Gaussian charge scheme
   Yang Guo               : DLPNO-NEVPT2, CIM, IAO-localization
   Andreas Hansen         : Spin unrestricted coupled pair/coupled cluster methods
   Benjamin Helmich-Paris : CASSCF linear response (MC-RPA)
   Lee Huntington         : MR-EOM, pCC
   Robert Izsak           : Overlap fitted RIJCOSX, COSX-SCS-MP3, EOM
   Christian Kollmar      : KDIIS, OOCD, Brueckner-CCSD(T), CCSD density
   Simone Kossmann        : Meta GGA functionals, TD-DFT gradient, OOMP2, MP2 Hessian
   Martin Krupicka        : AUTO-CI
   Lucas Lang             : DCDCAS
   Dagmar Lenk            : GEPOL surface, SMD
   Dimitrios Liakos       : Extrapolation schemes; Compound Job, initial MDCI parallelization
   Dimitrios Manganas     : Further ROCIS development; embedding schemes
   Dimitrios Pantazis     : SARC Basis sets
   Taras Petrenko         : DFT Hessian,TD-DFT gradient, ASA, ECA, R-Raman, ABS, FL, XAS/XES, NRVS
   Peter Pinski           : DLPNO-MP2, DLPNO-MP2 Gradient
   Christoph Reimann      : Effective Core Potentials
   Marius Retegan         : Local ZFS, SOC
   Christoph Riplinger    : Optimizer, TS searches, QM/MM, DLPNO-CCSD(T), (RO)-DLPNO pert. Triples
   Tobias Risthaus        : Range-separated hybrids, TD-DFT gradient, RPA, STAB
   Michael Roemelt        : Original ROCIS implementation
   Masaaki Saitow         : Open-shell DLPNO-CCSD energy and density
   Barbara Sandhoefer     : DKH picture change effects
   Avijit Sen             : IP-ROCIS
   Kantharuban Sivalingam : CASSCF convergence, NEVPT2, FIC-MRCI
   Bernardo de Souza      : ESD, SOC TD-DFT
   Georgi Stoychev        : AutoAux, RI-MP2 NMR
   Willem Van den Heuvel  : Paramagnetic NMR
   Boris Wezisla          : Elementary symmetry handling
   Frank Wennmohs         : Technical directorship


 We gratefully acknowledge several colleagues who have allowed us to
 interface, adapt or use parts of their codes:
   Stefan Grimme, W. Hujo, H. Kruse,             : VdW corrections, initial TS optimization,
                  C. Bannwarth                     DFT functionals, gCP, sTDA/sTD-DF
   Ed Valeev, F. Pavosevic, A. Kumar             : LibInt (2-el integral package), F12 methods
   Garnet Chan, S. Sharma, J. Yang, R. Olivares  : DMRG
   Ulf Ekstrom                                   : XCFun DFT Library
   Mihaly Kallay                                 : mrcc  (arbitrary order and MRCC methods)
   Andreas Klamt, Michael Diedenhofen            : otool_cosmo (COSMO solvation model)
   Jiri Pittner, Ondrej Demel                    : Mk-CCSD
   Frank Weinhold                                : gennbo (NPA and NBO analysis)
   Christopher J. Cramer and Donald G. Truhlar   : smd solvation model
   Lars Goerigk                                  : TD-DFT with DH, B97 family of functionals
   V. Asgeirsson, H. Jonsson                     : NEB implementation
   FAccTs GmbH                                   : IRC, NEB, NEB-TS, Multilevel, MM, QM/MM, CI optimization
   S Lehtola, MJT Oliveira, MAL Marques          : LibXC Library


 Your calculation uses the libint2 library for the computation of 2-el integrals
 For citations please refer to: http://libint.valeyev.net

 Your ORCA version has been built with support for libXC version: 4.2.3
 For citations please refer to: https://tddft.org/programs/libxc/

 This ORCA versions uses:
   CBLAS   interface :  Fast vector & matrix operations
   LAPACKE interface :  Fast linear algebra routines
   SCALAPACK package :  Parallel linear algebra routines


----- Orbital basis set information -----
Your calculation utilizes the basis: def2-SVP
   F. Weigend and R. Ahlrichs, Phys. Chem. Chem. Phys. 7, 3297 (2005).

================================================================================
                                        WARNINGS
                       Please study these warnings very carefully!
================================================================================

INFO   : Checking CIS options ...

WARNING: CIS/ROCIS methods need fully converged wavefunctions
  ===> : Setting SCFConvForced true
         You can overwrite this default with %scf ConvForced false 


INFO   : the flag for use of LIBINT has been found!

================================================================================
                                       INPUT FILE
================================================================================
NAME = BCDT-4Cl.inp
|  1> # ORCA input file
|  2> # BCDT-4Cl.out
|  3> ! Engrad Keepdens
|  4> %maxcore 1000
|  5> %tddft
|  6>   nroots 3 
|  7>   # nroots is the number of states to be computed
|  8>   Iroot 1
|  9>   end
| 10> * xyz 0 1
| 11>    C        2.99941         2.33975        -3.77568
| 12>    O        3.85804         3.16064        -3.51980
| 13>    C        1.81129         2.59268        -4.62060
| 14>    C        1.43301         3.77129        -5.22903
| 15>    C        0.25877         3.78044        -5.97129
| 16>    C       -0.50804         2.61710        -6.08853
| 17>    C       -0.11911         1.43043        -5.47574
| 18>    C        1.05170         1.41832        -4.73574
| 19>    C        1.72051         0.35640        -3.98519
| 20>    C        1.31779        -0.95514        -3.96673
| 21>    C        1.97681        -2.02551        -3.32571
| 22>    N        2.44595        -2.96273        -2.85427
| 23>    C        0.17258        -1.43762        -4.63526
| 24>    N       -0.74430        -1.90057        -5.14834
| 25>    C        2.88273         0.93618        -3.33772
| 26>   Cl       -1.96316         2.64277        -7.00158
| 27>    C        3.63799         0.26175        -2.40420
| 28>   Cl       -0.25189         5.22850        -6.74158
| 29>    C       15.10445        -0.36931        17.03653
| 30>    O       14.24196        -1.10613        17.45709
| 31>    C       15.97043         0.54846        17.81294
| 32>    C       15.94894         0.82689        19.16334
| 33>    C       16.84894         1.76442        19.65733
| 34>    C       17.74912         2.40100        18.79738
| 35>    C       17.77656         2.10824        17.43743
| 36>    C       16.88110         1.17594        16.94428
| 37>    C       16.68251         0.64602        15.59436
| 38>    C       17.61157         0.70061        14.58338
| 39>    C       17.51450        -0.05944        13.40268
| 40>    N       17.49043        -0.68573        12.44019
| 41>    C       18.79740         1.45817        14.64036
| 42>    N       19.76086         2.08302        14.61825
| 43>    C       15.48395        -0.15121        15.61953
| 44>   Cl       18.84515         3.56792        19.41990
| 45>    C       14.65448        -0.62923        14.63668
| 46>   Cl       16.85012         2.14121        21.33342
| 47>    C       14.51259        -0.22385        13.30342
| 48>    S       13.50425        -1.19359        12.23432
| 49>    C       13.73692        -0.06947        10.97293
| 50>    C       14.53054         1.02613        11.35790
| 51>    C       14.97492         0.92725        12.65836
| 52>    C       13.34493         0.09093         9.63002
| 53>    C       13.89137         1.28243         9.14275
| 54>    C       14.68909         1.99439        10.21037
| 55>    S       12.37479        -0.71722         8.46619
| 56>    C       12.66948         0.57433         7.32209
| 57>    C       13.50804         1.55260         7.84019
| 58>    C       11.98575         0.60446         6.06898
| 59>    C       11.15381        -0.44151         5.66110
| 60>    C       10.29603        -0.34352         4.54190
| 61>    C       10.35006         0.74538         3.66006
| 62>    C       11.29275         1.76159         3.97587
| 63>    C       12.06951         1.71433         5.18645
| 64>    N       11.54150         2.86711         3.27727
| 65>    S       12.63324         3.75536         4.05493
| 66>    N       12.84514         2.78675         5.32035
| 67>    C        9.45726         0.86908         2.55274
| 68>    S        8.24813        -0.34882         2.22682
| 69>    C        7.62567         0.60526         0.94283
| 70>    C        8.32652         1.80620         0.77144
| 71>    C        9.37262         1.93849         1.66794
| 72>    C        6.58351         0.54465        -0.00130
| 73>    C        6.61247         1.70948        -0.78961
| 74>    C        7.72943         2.62620        -0.34623
| 75>    S        5.31250        -0.50683        -0.43394
| 76>    C        4.77356         0.63563        -1.67828
| 77>    C        5.60196         1.76012        -1.72249
| 78>    O       11.15316        -1.59096         6.42058
| 79>    O        9.37945        -1.31013         4.26381
| 80>    C       11.75643        -2.71932         5.78736
| 81>    C       13.26048        -2.56490         5.60156
| 82>    C        8.61752        -1.87704         5.33270
| 83>    C        7.19297        -2.10384         4.85100
| 84>    C        8.74165         2.89105        -1.47196
| 85>    C        9.27076         1.60710        -2.10015
| 86>    C        7.09095         3.93547         0.16869
| 87>    C        8.06081         4.92286         0.80350
| 88>    C       16.16310         2.16541         9.80683
| 89>    C       16.83311         0.84569         9.44326
| 90>    C       14.00727         3.35396        10.48129
| 91>    C       14.54302         4.12215        11.68177
| 92>    H        2.03453         4.66071        -5.12739
| 93>    H       -0.73910         0.55661        -5.58790
| 94>    H        3.28405        -0.73053        -2.15020
| 95>    H       15.25032         0.33003        19.81763
| 96>    H       18.48205         2.61868        16.80206
| 97>    H       13.93953        -1.36990        14.98290
| 98>    H       15.57264         1.66569        13.16038
| 99>    H       13.79179         2.41467         7.26686
|100>    H       10.06710         2.75539         1.71059
|101>    H        5.43264         2.56008        -2.41875
|102>    H       11.28372        -2.90138         4.81437
|103>    H       11.53795        -3.55302         6.45809
|104>    H       13.48260        -1.70573         4.97105
|105>    H       13.65550        -3.45765         5.12513
|106>    H       13.75138        -2.43141         6.56167
|107>    H        8.62863        -1.20523         6.19650
|108>    H        9.06051        -2.83385         5.62882
|109>    H        6.70938        -1.15847         4.62198
|110>    H        6.62969        -2.61261         5.62799
|111>    H        7.19781        -2.71663         3.95425
|112>    H        9.57903         3.45699        -1.06276
|113>    H        8.25588         3.49799        -2.23803
|114>    H        9.75194         0.98227        -1.35093
|115>    H       10.00132         1.84360        -2.86988
|116>    H        8.46475         1.03800        -2.55743
|117>    H        6.32590         3.67027         0.90296
|118>    H        6.58767         4.41109        -0.67525
|119>    H        8.54287         4.48865         1.67475
|120>    H        7.51430         5.80721         1.12339
|121>    H        8.82485         5.23669         0.09808
|122>    H       16.70717         2.61977        10.63551
|123>    H       16.20635         2.84664         8.95429
|124>    H       16.85812         0.17456        10.29876
|125>    H       17.85746         1.02760         9.12764
|126>    H       16.30499         0.35494         8.62879
|127>    H       12.93886         3.17432        10.62681
|128>    H       14.12057         3.96269         9.58193
|129>    H       14.35298         3.58116        12.60476
|130>    H       14.04018         5.08445        11.74661
|131>    H       15.61019         4.30542        11.59290
|132> *
|133> 
|134>                          ****END OF INPUT****
================================================================================

                     *******************************
                     * Energy+Gradient Calculation *
                     *******************************

---------------------------------
CARTESIAN COORDINATES (ANGSTROEM)
---------------------------------
  C      2.999410    2.339750   -3.775680
  O      3.858040    3.160640   -3.519800
  C      1.811290    2.592680   -4.620600
  C      1.433010    3.771290   -5.229030
  C      0.258770    3.780440   -5.971290
  C     -0.508040    2.617100   -6.088530
  C     -0.119110    1.430430   -5.475740
  C      1.051700    1.418320   -4.735740
  C      1.720510    0.356400   -3.985190
  C      1.317790   -0.955140   -3.966730
  C      1.976810   -2.025510   -3.325710
  N      2.445950   -2.962730   -2.854270
  C      0.172580   -1.437620   -4.635260
  N     -0.744300   -1.900570   -5.148340
  C      2.882730    0.936180   -3.337720
  Cl    -1.963160    2.642770   -7.001580
  C      3.637990    0.261750   -2.404200
  Cl    -0.251890    5.228500   -6.741580
  C     15.104450   -0.369310   17.036530
  O     14.241960   -1.106130   17.457090
  C     15.970430    0.548460   17.812940
  C     15.948940    0.826890   19.163340
  C     16.848940    1.764420   19.657330
  C     17.749120    2.401000   18.797380
  C     17.776560    2.108240   17.437430
  C     16.881100    1.175940   16.944280
  C     16.682510    0.646020   15.594360
  C     17.611570    0.700610   14.583380
  C     17.514500   -0.059440   13.402680
  N     17.490430   -0.685730   12.440190
  C     18.797400    1.458170   14.640360
  N     19.760860    2.083020   14.618250
  C     15.483950   -0.151210   15.619530
  Cl    18.845150    3.567920   19.419900
  C     14.654480   -0.629230   14.636680
  Cl    16.850120    2.141210   21.333420
  C     14.512590   -0.223850   13.303420
  S     13.504250   -1.193590   12.234320
  C     13.736920   -0.069470   10.972930
  C     14.530540    1.026130   11.357900
  C     14.974920    0.927250   12.658360
  C     13.344930    0.090930    9.630020
  C     13.891370    1.282430    9.142750
  C     14.689090    1.994390   10.210370
  S     12.374790   -0.717220    8.466190
  C     12.669480    0.574330    7.322090
  C     13.508040    1.552600    7.840190
  C     11.985750    0.604460    6.068980
  C     11.153810   -0.441510    5.661100
  C     10.296030   -0.343520    4.541900
  C     10.350060    0.745380    3.660060
  C     11.292750    1.761590    3.975870
  C     12.069510    1.714330    5.186450
  N     11.541500    2.867110    3.277270
  S     12.633240    3.755360    4.054930
  N     12.845140    2.786750    5.320350
  C      9.457260    0.869080    2.552740
  S      8.248130   -0.348820    2.226820
  C      7.625670    0.605260    0.942830
  C      8.326520    1.806200    0.771440
  C      9.372620    1.938490    1.667940
  C      6.583510    0.544650   -0.001300
  C      6.612470    1.709480   -0.789610
  C      7.729430    2.626200   -0.346230
  S      5.312500   -0.506830   -0.433940
  C      4.773560    0.635630   -1.678280
  C      5.601960    1.760120   -1.722490
  O     11.153160   -1.590960    6.420580
  O      9.379450   -1.310130    4.263810
  C     11.756430   -2.719320    5.787360
  C     13.260480   -2.564900    5.601560
  C      8.617520   -1.877040    5.332700
  C      7.192970   -2.103840    4.851000
  C      8.741650    2.891050   -1.471960
  C      9.270760    1.607100   -2.100150
  C      7.090950    3.935470    0.168690
  C      8.060810    4.922860    0.803500
  C     16.163100    2.165410    9.806830
  C     16.833110    0.845690    9.443260
  C     14.007270    3.353960   10.481290
  C     14.543020    4.122150   11.681770
  H      2.034530    4.660710   -5.127390
  H     -0.739100    0.556610   -5.587900
  H      3.284050   -0.730530   -2.150200
  H     15.250320    0.330030   19.817630
  H     18.482050    2.618680   16.802060
  H     13.939530   -1.369900   14.982900
  H     15.572640    1.665690   13.160380
  H     13.791790    2.414670    7.266860
  H     10.067100    2.755390    1.710590
  H      5.432640    2.560080   -2.418750
  H     11.283720   -2.901380    4.814370
  H     11.537950   -3.553020    6.458090
  H     13.482600   -1.705730    4.971050
  H     13.655500   -3.457650    5.125130
  H     13.751380   -2.431410    6.561670
  H      8.628630   -1.205230    6.196500
  H      9.060510   -2.833850    5.628820
  H      6.709380   -1.158470    4.621980
  H      6.629690   -2.612610    5.627990
  H      7.197810   -2.716630    3.954250
  H      9.579030    3.456990   -1.062760
  H      8.255880    3.497990   -2.238030
  H      9.751940    0.982270   -1.350930
  H     10.001320    1.843600   -2.869880
  H      8.464750    1.038000   -2.557430
  H      6.325900    3.670270    0.902960
  H      6.587670    4.411090   -0.675250
  H      8.542870    4.488650    1.674750
  H      7.514300    5.807210    1.123390
  H      8.824850    5.236690    0.098080
  H     16.707170    2.619770   10.635510
  H     16.206350    2.846640    8.954290
  H     16.858120    0.174560   10.298760
  H     17.857460    1.027600    9.127640
  H     16.304990    0.354940    8.628790
  H     12.938860    3.174320   10.626810
  H     14.120570    3.962690    9.581930
  H     14.352980    3.581160   12.604760
  H     14.040180    5.084450   11.746610
  H     15.610190    4.305420   11.592900

----------------------------
CARTESIAN COORDINATES (A.U.)
----------------------------
  NO LB      ZA    FRAG     MASS         X           Y           Z
   0 C     6.0000    0    12.011    5.668063    4.421487   -7.135001
   1 O     8.0000    0    15.999    7.290639    5.972744   -6.651458
   2 C     6.0000    0    12.011    3.422842    4.899455   -8.731669
   3 C     6.0000    0    12.011    2.707996    7.126705   -9.881435
   4 C     6.0000    0    12.011    0.489004    7.143996  -11.284103
   5 C     6.0000    0    12.011   -0.960056    4.945602  -11.505654
   6 C     6.0000    0    12.011   -0.225085    2.703121  -10.347649
   7 C     6.0000    0    12.011    1.987425    2.680236   -8.949252
   8 C     6.0000    0    12.011    3.251293    0.673498   -7.530918
   9 C     6.0000    0    12.011    2.490262   -1.804953   -7.496033
  10 C     6.0000    0    12.011    3.735630   -3.827659   -6.284681
  11 N     7.0000    0    14.007    4.622176   -5.598748   -5.393789
  12 C     6.0000    0    12.011    0.326129   -2.716708   -8.759372
  13 N     7.0000    0    14.007   -1.406523   -3.591557   -9.728953
  14 C     6.0000    0    12.011    5.447570    1.769124   -6.307377
  15 Cl   17.0000    0    35.453   -3.709835    4.994112  -13.231069
  16 C     6.0000    0    12.011    6.874805    0.494636   -4.543280
  17 Cl   17.0000    0    35.453   -0.476003    9.880433  -12.739740
  18 C     6.0000    0    12.011   28.543274   -0.697895   32.194376
  19 O     8.0000    0    15.999   26.913404   -2.090283   32.989119
  20 C     6.0000    0    12.011   30.179739    1.036439   33.661578
  21 C     6.0000    0    12.011   30.139129    1.562596   36.213464
  22 C     6.0000    0    12.011   31.839882    3.334271   37.146970
  23 C     6.0000    0    12.011   33.540976    4.537232   35.521900
  24 C     6.0000    0    12.011   33.592830    3.983996   32.951967
  25 C     6.0000    0    12.011   31.900656    2.222205   32.020049
  26 C     6.0000    0    12.011   31.525375    1.220801   29.469070
  27 C     6.0000    0    12.011   33.281044    1.323961   27.558594
  28 C     6.0000    0    12.011   33.097608   -0.112325   25.327395
  29 N     7.0000    0    14.007   33.052123   -1.295842   23.508552
  30 C     6.0000    0    12.011   35.521938    2.755542   27.666271
  31 N     7.0000    0    14.007   37.342614    3.936337   27.624489
  32 C     6.0000    0    12.011   29.260425   -0.285745   29.516634
  33 Cl   17.0000    0    35.453   35.612172    6.742392   36.698293
  34 C     6.0000    0    12.011   27.692954   -1.189072   27.659317
  35 Cl   17.0000    0    35.453   31.842112    4.046300   40.314321
  36 C     6.0000    0    12.011   27.424821   -0.423015   25.139820
  37 S    16.0000    0    32.060   25.519334   -2.255558   23.119514
  38 C     6.0000    0    12.011   25.959017   -0.131279   20.735833
  39 C     6.0000    0    12.011   27.458741    1.939105   21.463320
  40 C     6.0000    0    12.011   28.298498    1.752249   23.920834
  41 C     6.0000    0    12.011   25.218263    0.171833   18.198100
  42 C     6.0000    0    12.011   26.250885    2.423441   17.277294
  43 C     6.0000    0    12.011   27.758357    3.768851   19.294803
  44 S    16.0000    0    32.060   23.384964   -1.355349   15.998780
  45 C     6.0000    0    12.011   23.941847    1.085326   13.836745
  46 C     6.0000    0    12.011   25.526496    2.933989   14.815812
  47 C     6.0000    0    12.011   22.649785    1.142264   11.468710
  48 C     6.0000    0    12.011   21.077646   -0.834333   10.697929
  49 C     6.0000    0    12.011   19.456677   -0.649159    8.582947
  50 C     6.0000    0    12.011   19.558779    1.408564    6.916511
  51 C     6.0000    0    12.011   21.340205    3.328923    7.513305
  52 C     6.0000    0    12.011   22.808068    3.239614    9.800970
  53 N     7.0000    0    14.007   21.810274    5.418053    6.193143
  54 S    16.0000    0    32.060   23.873364    7.096602    7.662707
  55 N     7.0000    0    14.007   24.273797    5.266194   10.054004
  56 C     6.0000    0    12.011   17.871631    1.642323    4.823979
  57 S    16.0000    0    32.060   15.586707   -0.659174    4.208080
  58 C     6.0000    0    12.011   14.410428    1.143776    1.781690
  59 C     6.0000    0    12.011   15.734842    3.413223    1.457810
  60 C     6.0000    0    12.011   17.711685    3.663215    3.151950
  61 C     6.0000    0    12.011   12.441031    1.029239   -0.002457
  62 C     6.0000    0    12.011   12.495757    3.230449   -1.492147
  63 C     6.0000    0    12.011   14.606506    4.962799   -0.654280
  64 S    16.0000    0    32.060   10.039170   -0.957770   -0.820028
  65 C     6.0000    0    12.011    9.020721    1.201167   -3.171490
  66 C     6.0000    0    12.011   10.586170    3.326145   -3.255034
  67 O     8.0000    0    15.999   21.076418   -3.006479   12.133138
  68 O     8.0000    0    15.999   17.724592   -2.475787    8.057433
  69 C     6.0000    0    12.011   22.216433   -5.138770   10.936525
  70 C     6.0000    0    12.011   25.058676   -4.846959   10.585414
  71 C     6.0000    0    12.011   16.284753   -3.547092   10.077343
  72 C     6.0000    0    12.011   13.592743   -3.975681    9.167061
  73 C     6.0000    0    12.011   16.519324    5.463293   -2.781601
  74 C     6.0000    0    12.011   17.519197    3.036979   -3.968708
  75 C     6.0000    0    12.011   13.399954    7.436961    0.318778
  76 C     6.0000    0    12.011   15.232723    9.302857    1.518395
  77 C     6.0000    0    12.011   30.543832    4.092032   18.532223
  78 C     6.0000    0    12.011   31.809968    1.598122   17.845175
  79 C     6.0000    0    12.011   26.469904    6.338066   19.806768
  80 C     6.0000    0    12.011   27.482325    7.789735   22.075346
  81 H     1.0000    0     1.008    3.844705    8.807465   -9.689363
  82 H     1.0000    0     1.008   -1.396697    1.051840  -10.559601
  83 H     1.0000    0     1.008    6.205955   -1.380502   -4.063289
  84 H     1.0000    0     1.008   28.818928    0.623666   37.449893
  85 H     1.0000    0     1.008   34.926013    4.948588   31.751292
  86 H     1.0000    0     1.008   26.341894   -2.588736   28.313578
  87 H     1.0000    0     1.008   29.428025    3.147698   24.869514
  88 H     1.0000    0     1.008   26.062706    4.563065   13.732375
  89 H     1.0000    0     1.008   19.024062    5.206932    3.232547
  90 H     1.0000    0     1.008   10.266202    4.837850   -4.570775
  91 H     1.0000    0     1.008   21.323141   -5.482814    9.097841
  92 H     1.0000    0     1.008   21.803566   -6.714235   12.204021
  93 H     1.0000    0     1.008   25.478422   -3.223363    9.393923
  94 H     1.0000    0     1.008   25.805155   -6.534012    9.685092
  95 H     1.0000    0     1.008   25.986342   -4.594699   12.399759
  96 H     1.0000    0     1.008   16.305748   -2.277555   11.709688
  97 H     1.0000    0     1.008   17.121883   -5.355200   10.636928
  98 H     1.0000    0     1.008   12.678891   -2.189191    8.734276
  99 H     1.0000    0     1.008   12.528298   -4.937117   10.635360
 100 H     1.0000    0     1.008   13.601890   -5.133687    7.472450
 101 H     1.0000    0     1.008   18.101743    6.532764   -2.008325
 102 H     1.0000    0     1.008   15.601352    6.610243   -4.229264
 103 H     1.0000    0     1.008   18.428496    1.856221   -2.552888
 104 H     1.0000    0     1.008   18.899756    3.483899   -5.423287
 105 H     1.0000    0     1.008   15.996059    1.961536   -4.832842
 106 H     1.0000    0     1.008   11.954219    6.935805    1.706347
 107 H     1.0000    0     1.008   12.448892    8.335752   -1.276038
 108 H     1.0000    0     1.008   16.143685    8.482319    3.164819
 109 H     1.0000    0     1.008   14.199969   10.974037    2.122899
 110 H     1.0000    0     1.008   16.676550    9.895910    0.185344
 111 H     1.0000    0     1.008   31.571976    4.950648   20.098201
 112 H     1.0000    0     1.008   30.625563    5.379370   16.921156
 113 H     1.0000    0     1.008   31.857230    0.329871   19.461836
 114 H     1.0000    0     1.008   33.745709    1.941883   17.248740
 115 H     1.0000    0     1.008   30.811966    0.670739   16.306050
 116 H     1.0000    0     1.008   24.450902    5.998595   20.081761
 117 H     1.0000    0     1.008   26.684010    7.488399   18.107224
 118 H     1.0000    0     1.008   27.123201    6.767412   23.819544
 119 H     1.0000    0     1.008   26.532095    9.608218   22.197876
 120 H     1.0000    0     1.008   29.498984    8.136065   21.907406

--------------------------------
INTERNAL COORDINATES (ANGSTROEM)
--------------------------------
 C      0   0   0     0.000000000000     0.00000000     0.00000000
 O      1   0   0     1.215146264200     0.00000000     0.00000000
 C      1   2   0     1.479693389084   124.89932020     0.00000000
 C      3   1   2     1.379276750837   128.18245127   357.91959825
 C      4   3   1     1.389198764648   118.23866846   180.69863688
 C      5   4   3     1.398249888003   120.19001376     0.00000000
 C      6   5   4     1.391029768876   121.29839146   359.80141952
 C      7   6   5     1.385114691352   118.62999889     0.15607635
 C      8   7   6     1.462294842021   131.84899649   179.97967266
 C      9   8   7     1.372101068289   124.52827367     5.64641942
 C     10   9   8     1.410994662534   126.45114707   175.83882042
 N     11  10   9     1.149229890666   174.67050821   189.62553353
 C     10   9   8     1.411107811402   123.96253585   357.60750662
 N     13  10   9     1.148147518092   176.09248902   183.06410925
 C      9   8   7     1.451246904458   107.76743382   183.28719597
 Cl     6   5   4     1.718049319956   119.77586580   179.64608269
 C     15   9   8     1.377219329991   123.08964872   170.87217933
 Cl     5   4   3     1.717846932442   119.76261747   179.80711765
 C     17  15   9    22.579192292642   151.13888059   221.78955270
 O     19  17  15     1.209819584112    87.37991343   112.29835195
 C     19  17  15     1.481565260594   136.94701197   324.28899899
 C     21  19  17     1.378972532359   128.98785826   134.18953346
 C     22  21  19     1.390319611097   118.29496681   181.83628657
 C     23  22  21     1.398238939273   120.34667348   359.92680508
 C     24  23  22     1.391375353275   121.20055372   359.45645993
 C     25  24  23     1.383556585073   118.51609679     0.56390502
 C     26  25  24     1.463740824361   131.33663135   181.26243630
 C     27  26  25     1.374122669961   124.91808920    19.54793718
 C     28  27  26     1.407533686062   123.30393154   165.73182781
 N     29  28  27     1.148566728188   177.23197843   216.93104957
 C     28  27  26     1.408309860400   124.11836292   349.44970001
 N     31  28  27     1.148556287780   176.55566297   210.08652865
 C     27  26  25     1.439706662970   107.29537313   188.31584355
 Cl    24  23  22     1.717706377033   119.81407650   179.42667306
 C     33  27  26     1.372048732298   133.13257629   162.77556858
 Cl    23  22  21     1.717920191569   119.66971865   179.84473877
 C     35  33  27     1.400731217650   129.95927179   341.88997226
 S     37  35  33     1.760715772974   118.46132637   171.81079050
 C     38  37  35     1.705545612231    90.45481464   176.12516149
 C     39  38  37     1.406546823003   112.82636307   358.66067162
 C     40  39  38     1.377841446031   112.60673316     1.74425845
 C     39  38  37     1.408116326232   137.93928984   179.50067652
 C     42  39  38     1.398463791630   108.69773725   179.61850079
 C     40  39  38     1.509798208702   110.53423613   180.67951087
 S     42  39  38     1.717200719485   138.59263799     1.87722841
 C     45  42  39     1.750402356203    90.03585931   176.35180533
 C     43  42  39     1.384411886470   112.70018503   182.66389001
 C     46  45  42     1.427823239025   120.57016599   186.71378304
 C     48  46  45     1.397334426292   121.70110733   354.38071534
 C     49  48  46     1.413505291288   122.71986270   169.11463895
 C     50  49  48     1.402235442606   121.89695213     8.59310970
 C     51  50  49     1.421648042344   116.16333820   358.41495703
 C     48  46  45     1.420452869827   122.24415621   172.03564255
 N     52  51  50     1.331199832069   126.93847038   178.51540000
 S     54  52  51     1.607992340063   109.37913345   177.19213341
 N     53  48  46     1.330269056733   126.99477773     6.18920621
 C     51  50  49     1.427778383504   122.06739784   182.02132339
 S     57  51  50     1.746854204935   121.13913242   359.44145081
 C     58  57  51     1.716495097022    90.17463250   175.67778336
 C     59  58  57     1.401007543948   112.74053266     0.30631157
 C     60  59  58     1.384029661568   112.38310134     0.79207743
 C     59  58  57     1.407534189496   138.27265337   181.36810057
 C     62  59  58     1.406804985277   108.96388709   179.13672387
 C     60  59  58     1.509338496494   111.00159038   181.20297239
 S     62  59  58     1.705360366638   138.46529484     0.25956019
 C     17  15   9     1.398665551767   131.76946617   179.97375008
 C     63  62  59     1.376212179898   113.27810955   181.73692980
 O     49  48  46     1.377695755746   117.63904145   351.26259696
 O     50  49  48     1.360804113971   121.42024970   188.21172861
 C     68  49  48     1.427619890202   114.50172733   249.89236033
 C     70  68  49     1.523329766958   113.02925893    67.94007790
 C     69  50  49     1.429842685438   119.19517775    42.37816450
 C     72  69  50     1.520794474115   108.75359373   141.26141183
 C     64  60  59     1.536880894474   112.05382841   240.03062995
 C     74  64  60     1.524174422663   112.66603573    59.46811664
 C     64  60  59     1.544987783026   112.15304310   113.42689991
 C     76  64  60     1.522678944427   115.16624568    63.90286295
 C     44  40  39     1.537789924567   111.80388520   240.71163899
 C     78  44  40     1.524059520951   112.81071743    56.54190446
 C     44  40  39     1.544897001000   112.62830417   113.85043824
 C     80  44  40     1.522595208517   115.27584445    61.12707979
 H      4   3   1     1.078529061454   120.67388556     0.58376185
 H      7   6   5     1.077278449659   119.02504045   179.82904314
 H     17  15   9     1.083701583463   115.35059912   357.72526068
 H     22  21  19     1.078441082350   120.74377361     1.75885346
 H     25  24  23     1.077942563683   119.30029547   179.88977505
 H     35  33  27     1.086100289936   114.02906405   168.35730110
 H     41  40  39     1.074517060079   124.82381719   181.64237887
 H     47  43  42     1.073492448180   125.87581011   179.07467288
 H     61  60  59     1.073055032559   125.99311282   178.00849373
 H     67  63  62     1.073956820175   125.63639501   179.42720625
 H     70  68  49     1.096954934261   110.02954559   305.16228799
 H     70  68  49     1.092093372061   104.26575373   187.95909950
 H     71  70  68     1.088601508083   110.61634113   299.06261609
 H     71  70  68     1.086291354932   109.22163799   179.47840371
 H     71  70  68     1.086560445719   110.53339440    59.66044527
 H     72  69  50     1.094350285877   109.95366544    20.08320958
 H     72  69  50     1.095176958578   109.44951155   260.88119694
 H     73  72  69     1.086293646028   110.73175210   295.35534131
 H     73  72  69     1.086206578603   109.21027169   175.16999487
 H     73  72  69     1.086137915828   109.96693310    55.37670490
 H     74  64  60     1.090384330408   108.68458644   298.57962577
 H     74  64  60     1.091426544207   108.47066315   180.84937253
 H     75  74  64     1.087785516405   110.70527221   301.29712276
 H     75  74  64     1.087260059277   109.98683721   181.54976646
 H     75  74  64     1.087488817644   110.90686050    61.76234376
 H     76  64  60     1.093062201066   107.91023587   302.10059198
 H     76  64  60     1.091668386645   107.58240365   186.26887154
 H     77  76  64     1.086276544072   110.96719073   298.78712129
 H     77  76  64     1.087693759613   109.25707661   179.58457659
 H     77  76  64     1.086215340943   111.38460361    60.31649639
 H     78  44  40     1.090488751386   108.97487428   295.55452852
 H     78  44  40     1.092139792792   108.19023729   178.03879268
 H     79  78  44     1.087621821683   110.90360572   297.02829707
 H     79  78  44     1.087198305278   109.79011320   177.68638434
 H     79  78  44     1.087707533209   110.84629433    57.95738052
 H     80  44  40     1.093136097702   108.06393384   299.23011993
 H     80  44  40     1.091896292008   107.48060725   183.34914124
 H     81  80  44     1.086598325878   110.91590503   295.55930906
 H     81  80  44     1.087691859490   109.31107728   176.58440383
 H     81  80  44     1.086433421200   111.48399841    57.20263258

---------------------------
INTERNAL COORDINATES (A.U.)
---------------------------
 C      0   0   0     0.000000000000     0.00000000     0.00000000
 O      1   0   0     2.296293651996     0.00000000     0.00000000
 C      1   2   0     2.796215267543   124.89932020     0.00000000
 C      3   1   2     2.606455321967   128.18245127   357.91959825
 C      4   3   1     2.625205210767   118.23866846   180.69863688
 C      5   4   3     2.642309355111   120.19001376     0.00000000
 C      6   5   4     2.628665307308   121.29839146   359.80141952
 C      7   6   5     2.617487430727   118.62999889     0.15607635
 C      8   7   6     2.763336778465   131.84899649   179.97967266
 C      9   8   7     2.592895247127   124.52827367     5.64641942
 C     10   9   8     2.666393488614   126.45114707   175.83882042
 N     11  10   9     2.171729758275   174.67050821   189.62553353
 C     10   9   8     2.666607308987   123.96253585   357.60750662
 N     13  10   9     2.169684370535   176.09248902   183.06410925
 C      9   8   7     2.742459202127   107.76743382   183.28719597
 Cl     6   5   4     3.246642699286   119.77586580   179.64608269
 C     15   9   8     2.602567360025   123.08964872   170.87217933
 Cl     5   4   3     3.246260242312   119.76261747   179.80711765
 C     17  15   9    42.668489758239   151.13888059   221.78955270
 O     19  17  15     2.286227685425    87.37991343   112.29835195
 C     19  17  15     2.799752592055   136.94701197   324.28899899
 C     21  19  17     2.605880432358   128.98785826   134.18953346
 C     22  21  19     2.627323303593   118.29496681   181.83628657
 C     23  22  21     2.642288665011   120.34667348   359.92680508
 C     24  23  22     2.629318367177   121.20055372   359.45645993
 C     25  24  23     2.614543036572   118.51609679     0.56390502
 C     26  25  24     2.766069289082   131.33663135   181.26243630
 C     27  26  25     2.596715520638   124.91808920    19.54793718
 C     28  27  26     2.659853190926   123.30393154   165.73182781
 N     29  28  27     2.170476562809   177.23197843   216.93104957
 C     28  27  26     2.661319947857   124.11836292   349.44970001
 N     31  28  27     2.170456833298   176.55566297   210.08652865
 C     27  26  25     2.720651306195   107.29537313   188.31584355
 Cl    24  23  22     3.245994631083   119.81407650   179.42667306
 C     33  27  26     2.592796346437   133.13257629   162.77556858
 Cl    23  22  21     3.246398681999   119.66971865   179.84473877
 C     35  33  27     2.646998388593   129.95927179   341.88997226
 S     37  35  33     3.327270610597   118.46132637   171.81079050
 C     38  37  35     3.223014116027    90.45481464   176.12516149
 C     39  38  37     2.657988290013   112.82636307   358.66067162
 C     40  39  38     2.603742988964   112.60673316     1.74425845
 C     39  38  37     2.660954221281   137.93928984   179.50067652
 C     42  39  38     2.642713574386   108.69773725   179.61850079
 C     40  39  38     2.853105131932   110.53423613   180.67951087
 S     42  39  38     3.245039076799   138.59263799     1.87722841
 C     45  42  39     3.307781077394    90.03585931   176.35180533
 C     43  42  39     2.616159321974   112.70018503   182.66389001
 C     46  45  42     2.698194889406   120.57016599   186.71378304
 C     48  46  45     2.640579383191   121.70110733   354.38071534
 C     49  48  46     2.671137889383   122.71986270   169.11463895
 C     50  49  48     2.649840961803   121.89695213     8.59310970
 C     51  50  49     2.686525458855   116.16333820   358.41495703
 C     48  46  45     2.684266910116   122.24415621   172.03564255
 N     52  51  50     2.515603112132   126.93847038   178.51540000
 S     54  52  51     3.038665148161   109.37913345   177.19213341
 N     53  48  46     2.513844201654   126.99477773     6.18920621
 C     51  50  49     2.698110124754   122.06739784   182.02132339
 S     57  51  50     3.301076043216   121.13913242   359.44145081
 C     58  57  51     3.243705643590    90.17463250   175.67778336
 C     59  58  57     2.647520569620   112.74053266     0.30631157
 C     60  59  58     2.615437021587   112.38310134     0.79207743
 C     59  58  57     2.659854142278   138.27265337   181.36810057
 C     62  59  58     2.658476146009   108.96388709   179.13672387
 C     60  59  58     2.852236401759   111.00159038   181.20297239
 S     62  59  58     3.222664052590   138.46529484     0.25956019
 C     17  15   9     2.643094845790   131.76946617   179.97375008
 C     63  62  59     2.600664122174   113.27810955   181.73692980
 O     49  48  46     2.603467674225   117.63904145   351.26259696
 O     50  49  48     2.571547097318   121.42024970   188.21172861
 C     68  49  48     2.697810615820   114.50172733   249.89236033
 C     70  68  49     2.878676071201   113.02925893    67.94007790
 C     69  50  49     2.702011090068   119.19517775    42.37816450
 C     72  69  50     2.873885062059   108.75359373   141.26141183
 C     64  60  59     2.904283991012   112.05382841   240.03062995
 C     74  64  60     2.880272239161   112.66603573    59.46811664
 C     64  60  59     2.919603790174   112.15304310   113.42689991
 C     76  64  60     2.877446194855   115.16624568    63.90286295
 C     44  40  39     2.906001808935   111.80388520   240.71163899
 C     78  44  40     2.880055106392   112.81071743    56.54190446
 C     44  40  39     2.919432237007   112.62830417   113.85043824
 C     80  44  40     2.877287956919   115.27584445    61.12707979
 H      4   3   1     2.038124553622   120.67388556     0.58376185
 H      7   6   5     2.035761239831   119.02504045   179.82904314
 H     17  15   9     2.047899203642   115.35059912   357.72526068
 H     22  21  19     2.037958297211   120.74377361     1.75885346
 H     25  24  23     2.037016233458   119.30029547   179.88977505
 H     35  33  27     2.052432101952   114.02906405   168.35730110
 H     41  40  39     2.030542969775   124.82381719   181.64237887
 H     47  43  42     2.028606733893   125.87581011   179.07467288
 H     61  60  59     2.027780138162   125.99311282   178.00849373
 H     67  63  62     2.029484269787   125.63639501   179.42720625
 H     70  68  49     2.072944407007   110.02954559   305.16228799
 H     70  68  49     2.063757385866   104.26575373   187.95909950
 H     71  70  68     2.057158719250   110.61634113   299.06261609
 H     71  70  68     2.052793162468   109.22163799   179.47840371
 H     71  70  68     2.053301670359   110.53339440    59.66044527
 H     72  69  50     2.068022334887   109.95366544    20.08320958
 H     72  69  50     2.069584519893   109.44951155   260.88119694
 H     73  72  69     2.052797492011   110.73175210   295.35534131
 H     73  72  69     2.052632958423   109.21027169   175.16999487
 H     73  72  69     2.052503204584   109.96693310    55.37670490
 H     74  64  60     2.060527765191   108.68458644   298.57962577
 H     74  64  60     2.062497263844   108.47066315   180.84937253
 H     75  74  64     2.055616718451   110.70527221   301.29712276
 H     75  74  64     2.054623748385   109.98683721   181.54976646
 H     75  74  64     2.055056039048   110.90686050    61.76234376
 H     76  64  60     2.065588207357   107.91023587   302.10059198
 H     76  64  60     2.062954279819   107.58240365   186.26887154
 H     77  76  64     2.052765173998   110.96719073   298.78712129
 H     77  76  64     2.055443323243   109.25707661   179.58457659
 H     77  76  64     2.052649516846   111.38460361    60.31649639
 H     78  44  40     2.060725092242   108.97487428   295.55452852
 H     78  44  40     2.063845108335   108.19023729   178.03879268
 H     79  78  44     2.055307380256   110.90360572   297.02829707
 H     79  78  44     2.054507050239   109.79011320   177.68638434
 H     79  78  44     2.055469351568   110.84629433    57.95738052
 H     80  44  40     2.065727851761   108.06393384   299.23011993
 H     80  44  40     2.063384958539   107.48060725   183.34914124
 H     81  80  44     2.053373253486   110.91590503   295.55930906
 H     81  80  44     2.055439732531   109.31107728   176.58440383
 H     81  80  44     2.053061628807   111.48399841    57.20263258

---------------------
BASIS SET INFORMATION
---------------------
There are 6 groups of distinct atoms

 Group   1 Type C   : 7s4p1d contracted to 3s2p1d pattern {511/31/1}
 Group   2 Type O   : 7s4p1d contracted to 3s2p1d pattern {511/31/1}
 Group   3 Type N   : 7s4p1d contracted to 3s2p1d pattern {511/31/1}
 Group   4 Type Cl  : 10s7p1d contracted to 4s3p1d pattern {5311/511/1}
 Group   5 Type S   : 10s7p1d contracted to 4s3p1d pattern {5311/511/1}
 Group   6 Type H   : 4s1p contracted to 2s1p pattern {31/1}

Atom   0C    basis set group =>   1
Atom   1O    basis set group =>   2
Atom   2C    basis set group =>   1
Atom   3C    basis set group =>   1
Atom   4C    basis set group =>   1
Atom   5C    basis set group =>   1
Atom   6C    basis set group =>   1
Atom   7C    basis set group =>   1
Atom   8C    basis set group =>   1
Atom   9C    basis set group =>   1
Atom  10C    basis set group =>   1
Atom  11N    basis set group =>   3
Atom  12C    basis set group =>   1
Atom  13N    basis set group =>   3
Atom  14C    basis set group =>   1
Atom  15Cl   basis set group =>   4
Atom  16C    basis set group =>   1
Atom  17Cl   basis set group =>   4
Atom  18C    basis set group =>   1
Atom  19O    basis set group =>   2
Atom  20C    basis set group =>   1
Atom  21C    basis set group =>   1
Atom  22C    basis set group =>   1
Atom  23C    basis set group =>   1
Atom  24C    basis set group =>   1
Atom  25C    basis set group =>   1
Atom  26C    basis set group =>   1
Atom  27C    basis set group =>   1
Atom  28C    basis set group =>   1
Atom  29N    basis set group =>   3
Atom  30C    basis set group =>   1
Atom  31N    basis set group =>   3
Atom  32C    basis set group =>   1
Atom  33Cl   basis set group =>   4
Atom  34C    basis set group =>   1
Atom  35Cl   basis set group =>   4
Atom  36C    basis set group =>   1
Atom  37S    basis set group =>   5
Atom  38C    basis set group =>   1
Atom  39C    basis set group =>   1
Atom  40C    basis set group =>   1
Atom  41C    basis set group =>   1
Atom  42C    basis set group =>   1
Atom  43C    basis set group =>   1
Atom  44S    basis set group =>   5
Atom  45C    basis set group =>   1
Atom  46C    basis set group =>   1
Atom  47C    basis set group =>   1
Atom  48C    basis set group =>   1
Atom  49C    basis set group =>   1
Atom  50C    basis set group =>   1
Atom  51C    basis set group =>   1
Atom  52C    basis set group =>   1
Atom  53N    basis set group =>   3
Atom  54S    basis set group =>   5
Atom  55N    basis set group =>   3
Atom  56C    basis set group =>   1
Atom  57S    basis set group =>   5
Atom  58C    basis set group =>   1
Atom  59C    basis set group =>   1
Atom  60C    basis set group =>   1
Atom  61C    basis set group =>   1
Atom  62C    basis set group =>   1
Atom  63C    basis set group =>   1
Atom  64S    basis set group =>   5
Atom  65C    basis set group =>   1
Atom  66C    basis set group =>   1
Atom  67O    basis set group =>   2
Atom  68O    basis set group =>   2
Atom  69C    basis set group =>   1
Atom  70C    basis set group =>   1
Atom  71C    basis set group =>   1
Atom  72C    basis set group =>   1
Atom  73C    basis set group =>   1
Atom  74C    basis set group =>   1
Atom  75C    basis set group =>   1
Atom  76C    basis set group =>   1
Atom  77C    basis set group =>   1
Atom  78C    basis set group =>   1
Atom  79C    basis set group =>   1
Atom  80C    basis set group =>   1
Atom  81H    basis set group =>   6
Atom  82H    basis set group =>   6
Atom  83H    basis set group =>   6
Atom  84H    basis set group =>   6
Atom  85H    basis set group =>   6
Atom  86H    basis set group =>   6
Atom  87H    basis set group =>   6
Atom  88H    basis set group =>   6
Atom  89H    basis set group =>   6
Atom  90H    basis set group =>   6
Atom  91H    basis set group =>   6
Atom  92H    basis set group =>   6
Atom  93H    basis set group =>   6
Atom  94H    basis set group =>   6
Atom  95H    basis set group =>   6
Atom  96H    basis set group =>   6
Atom  97H    basis set group =>   6
Atom  98H    basis set group =>   6
Atom  99H    basis set group =>   6
Atom 100H    basis set group =>   6
Atom 101H    basis set group =>   6
Atom 102H    basis set group =>   6
Atom 103H    basis set group =>   6
Atom 104H    basis set group =>   6
Atom 105H    basis set group =>   6
Atom 106H    basis set group =>   6
Atom 107H    basis set group =>   6
Atom 108H    basis set group =>   6
Atom 109H    basis set group =>   6
Atom 110H    basis set group =>   6
Atom 111H    basis set group =>   6
Atom 112H    basis set group =>   6
Atom 113H    basis set group =>   6
Atom 114H    basis set group =>   6
Atom 115H    basis set group =>   6
Atom 116H    basis set group =>   6
Atom 117H    basis set group =>   6
Atom 118H    basis set group =>   6
Atom 119H    basis set group =>   6
Atom 120H    basis set group =>   6
------------------------------------------------------------------------------
                           ORCA GTO INTEGRAL CALCULATION
------------------------------------------------------------------------------

                         BASIS SET STATISTICS AND STARTUP INFO

 # of primitive gaussian shells          ... 1226
 # of primitive gaussian functions       ... 2332
 # of contracted shells                  ...  624
 # of contracted basis functions         ... 1370
 Highest angular momentum                ...    2
 Maximum contraction depth               ...    5
 Integral package used                   ... LIBINT
 Integral threshhold            Thresh   ...  2.500e-11
 Primitive cut-off              TCut     ...  2.500e-12


------------------------------ INTEGRAL EVALUATION ----------------------------


 * One electron integrals 
 Pre-screening matrix                    ... done
 Shell pair data                         ... done (   0.021 sec)

-------------------------------------------------------------------------------
                                 ORCA SCF
-------------------------------------------------------------------------------

------------
SCF SETTINGS
------------
Hamiltonian:
 Ab initio Hamiltonian  Method          .... Hartree-Fock(GTOs)


General Settings:
 Integral files         IntName         .... BCDT-4Cl
 Hartree-Fock type      HFTyp           .... RHF
 Total Charge           Charge          ....    0
 Multiplicity           Mult            ....    1
 Number of Electrons    NEL             ....  634
 Basis Dimension        Dim             .... 1370
 Nuclear Repulsion      ENuc            ....  14030.6674002365 Eh

Convergence Acceleration:
 DIIS                   CNVDIIS         .... on
   Start iteration      DIISMaxIt       ....    12
   Startup error        DIISStart       ....  0.200000
   # of expansion vecs  DIISMaxEq       ....     5
   Bias factor          DIISBfac        ....   1.050
   Max. coefficient     DIISMaxC        ....  10.000
 Newton-Raphson         CNVNR           .... off
 SOSCF                  CNVSOSCF        .... on
   Start iteration      SOSCFMaxIt      ....   150
   Startup grad/error   SOSCFStart      ....  0.003300
 Level Shifting         CNVShift        .... on
   Level shift para.    LevelShift      ....    0.2500
   Turn off err/grad.   ShiftErr        ....    0.0010
 Zerner damping         CNVZerner       .... off
 Static damping         CNVDamp         .... on
   Fraction old density DampFac         ....    0.7000
   Max. Damping (<1)    DampMax         ....    0.9800
   Min. Damping (>=0)   DampMin         ....    0.0000
   Turn off err/grad.   DampErr         ....    0.1000
 Fernandez-Rico         CNVRico         .... off

SCF Procedure:
 Maximum # iterations   MaxIter         ....   125
 SCF integral mode      SCFMode         .... Direct
   Integral package                     .... LIBINT
 Reset frequency        DirectResetFreq ....    20
 Integral Threshold     Thresh          ....  2.500e-11 Eh
 Primitive CutOff       TCut            ....  2.500e-12 Eh

Convergence Tolerance:
 Convergence Check Mode ConvCheckMode   .... Total+1el-Energy
 Convergence forced     ConvForced      .... 1
 Energy Change          TolE            ....  1.000e-08 Eh
 1-El. energy change                    ....  1.000e-05 Eh
 Orbital Gradient       TolG            ....  1.000e-05
 Orbital Rotation angle TolX            ....  1.000e-05
 DIIS Error             TolErr          ....  5.000e-07


Diagonalization of the overlap matrix:
Smallest eigenvalue                        ... 1.114e-04
Time for diagonalization                   ...    0.485 sec
Threshold for overlap eigenvalues          ... 1.000e-08
Number of eigenvalues below threshold      ... 0
Time for construction of square roots      ...    0.193 sec
Total time needed                          ...    0.684 sec

-------------------
DFT GRID GENERATION
-------------------

General Integration Accuracy     IntAcc      ...  4.340
Radial Grid Type                 RadialGrid  ... Gauss-Chebyshev
Angular Grid (max. acc.)         AngularGrid ... Lebedev-110
Angular grid pruning method      GridPruning ... 3 (G Style)
Weight generation scheme         WeightScheme... Becke
Basis function cutoff            BFCut       ...    1.0000e-11
Integration weight cutoff        WCut        ...    1.0000e-14
Grids for H and He will be reduced by one unit

# of grid points (after initial pruning)     ... 167914 (   0.3 sec)
# of grid points (after weights+screening)   ... 146237 (   9.3 sec)
nearest neighbour list constructed           ...    0.0 sec
Grid point re-assignment to atoms done       ...    0.0 sec
Grid point division into batches done        ...    0.1 sec
Reduced shell lists constructed in    2.5 sec

Total number of grid points                  ...   146237
Total number of batches                      ...     2345
Average number of points per batch           ...       62
Average number of grid points per atom       ...     1209
Average number of shells per batch           ...   114.05 (18.28%)
Average number of basis functions per batch  ...   233.89 (17.07%)
Average number of large shells per batch     ...    68.11 (59.72%)
Average number of large basis fcns per batch ...   141.85 (60.65%)
Maximum spatial batch extension              ...  21.15, 21.91, 23.03 au
Average spatial batch extension              ...   3.35,  3.35,  3.27 au

Time for grid setup =   12.090 sec

------------------------------
INITIAL GUESS: MODEL POTENTIAL
------------------------------
Loading Hartree-Fock densities                     ... done
Calculating cut-offs                               ... done
Setting up the integral package                    ... done
Initializing the effective Hamiltonian             ... done
Starting the Coulomb interaction                   ... done (  12.3 sec)
Reading the grid                                   ... done
Mapping shells                                     ... done
Starting the XC term evaluation                    ... done (   2.3 sec)
Transforming the Hamiltonian                       ... done (   0.2 sec)
Diagonalizing the Hamiltonian                      ... done (   0.5 sec)
Back transforming the eigenvectors                 ... done (   0.1 sec)
Now organizing SCF variables                       ... done
                      ------------------
                      INITIAL GUESS DONE (  27.8 sec)
                      ------------------
--------------
SCF ITERATIONS
--------------
ITER       Energy         Delta-E        Max-DP      RMS-DP      [F,P]     Damp
               ***  Starting incremental Fock matrix formation  ***
  0  -6816.4477299750   0.000000000000 0.17040641  0.00132980  0.2260917 0.7000
  1  -6817.3963837903  -0.948653815278 0.11568446  0.00101386  0.1395101 0.7000
                               ***Turning on DIIS***
  2  -6817.9585627845  -0.562178994165 0.22329881  0.00233253  0.0795870 0.0000
  3  -6814.3188520504   3.639710734031 0.08028318  0.00059528  0.0517077 0.0000
  4  -6819.4004053053  -5.081553254844 0.01429633  0.00020586  0.0140085 0.0000
  5  -6819.2970535715   0.103351733815 0.00918675  0.00010254  0.0067438 0.0000
  6  -6819.0933147430   0.203738828463 0.00705597  0.00006251  0.0030123 0.0000
  7  -6819.1801707466  -0.086856003643 0.00405700  0.00003919  0.0018476 0.0000
                      *** Initiating the SOSCF procedure ***
                           *** Shutting down DIIS ***
                      *** Re-Reading the Fockian *** 
                      *** Removing any level shift *** 
ITER      Energy       Delta-E        Grad      Rot      Max-DP    RMS-DP
  8  -6819.16060096   0.0195697877  0.003200  0.003200  0.004042  0.000031
               *** Restarting incremental Fock matrix formation ***
  9  -6819.16755537  -0.0069544132  0.001386  0.005964  0.001734  0.000018
 10  -6819.16769322  -0.0001378465  0.000580  0.007234  0.003451  0.000028
 11  -6819.16776280  -0.0000695783  0.000220  0.000585  0.000699  0.000006
 12  -6819.16777016  -0.0000073602  0.000126  0.000613  0.000271  0.000002
 13  -6819.16777249  -0.0000023285  0.000031  0.000143  0.000157  0.000001
 14  -6819.16777271  -0.0000002234  0.000017  0.000076  0.000076  0.000001
 15  -6819.16777279  -0.0000000810  0.000010  0.000083  0.000046  0.000000
 16  -6819.16777282  -0.0000000331  0.000006  0.000065  0.000020  0.000000
 17  -6819.16777284  -0.0000000176  0.000004  0.000043  0.000013  0.000000
                  ***Gradient check signals convergence***
              ***Rediagonalizing the Fockian in SOSCF/NRSCF***

               *****************************************************
               *                     SUCCESS                       *
               *           SCF CONVERGED AFTER  18 CYCLES          *
               *****************************************************


----------------
TOTAL SCF ENERGY
----------------

Total Energy       :        -6819.16777283 Eh         -185558.98874 eV

Components:
Nuclear Repulsion  :        14030.66740024 Eh          381793.86999 eV
Electronic Energy  :       -20849.83517306 Eh         -567352.85872 eV
One Electron Energy:       -37328.35484030 Eh        -1015756.17525 eV
Two Electron Energy:        16478.51966723 Eh          448403.31653 eV

Virial components:
Potential Energy   :       -13626.71741226 Eh         -370801.83199 eV
Kinetic Energy     :         6807.54963944 Eh          185242.84325 eV
Virial Ratio       :            2.00170665


---------------
SCF CONVERGENCE
---------------

  Last Energy change         ...    1.2777e-08  Tolerance :   1.0000e-08
  Last MAX-Density change    ...    5.6028e-06  Tolerance :   1.0000e-07
  Last RMS-Density change    ...    6.5216e-08  Tolerance :   5.0000e-09
  Last Orbital Gradient      ...    1.6087e-06  Tolerance :   1.0000e-05
  Last Orbital Rotation      ...    1.8334e-05  Tolerance :   1.0000e-05

             **** THE GBW FILE WAS UPDATED (BCDT-4Cl.gbw) ****
             **** DENSITY FILE WAS UPDATED (BCDT-4Cl.scfp) ****
             **** ENERGY FILE WAS UPDATED (BCDT-4Cl.en.tmp) ****
             **** THE GBW FILE WAS UPDATED (BCDT-4Cl.gbw) ****
             **** DENSITY FILE WAS UPDATED (BCDT-4Cl.scfp) ****
----------------
ORBITAL ENERGIES
----------------

  NO   OCC          E(Eh)            E(eV) 
   0   2.0000    -104.821113     -2852.3275 
   1   2.0000    -104.820087     -2852.2996 
   2   2.0000    -104.818935     -2852.2682 
   3   2.0000    -104.816060     -2852.1900 
   4   2.0000     -92.053449     -2504.9017 
   5   2.0000     -91.986620     -2503.0832 
   6   2.0000     -91.980816     -2502.9252 
   7   2.0000     -91.978284     -2502.8564 
   8   2.0000     -91.975113     -2502.7701 
   9   2.0000     -20.619991      -561.0985 
  10   2.0000     -20.615065      -560.9644 
  11   2.0000     -20.563787      -559.5691 
  12   2.0000     -20.561065      -559.4950 
  13   2.0000     -15.634296      -425.4308 
  14   2.0000     -15.631254      -425.3480 
  15   2.0000     -15.590030      -424.2263 
  16   2.0000     -15.589063      -424.2000 
  17   2.0000     -15.584539      -424.0769 
  18   2.0000     -15.579902      -423.9507 
  19   2.0000     -11.362736      -309.1958 
  20   2.0000     -11.359863      -309.1176 
  21   2.0000     -11.359002      -309.0942 
  22   2.0000     -11.352001      -308.9036 
  23   2.0000     -11.342823      -308.6539 
  24   2.0000     -11.341643      -308.6218 
  25   2.0000     -11.340756      -308.5977 
  26   2.0000     -11.339459      -308.5624 
  27   2.0000     -11.337920      -308.5205 
  28   2.0000     -11.334708      -308.4331 
  29   2.0000     -11.329409      -308.2889 
  30   2.0000     -11.328440      -308.2625 
  31   2.0000     -11.319733      -308.0256 
  32   2.0000     -11.318113      -307.9815 
  33   2.0000     -11.318070      -307.9803 
  34   2.0000     -11.317512      -307.9652 
  35   2.0000     -11.316502      -307.9377 
  36   2.0000     -11.314896      -307.8940 
  37   2.0000     -11.313666      -307.8605 
  38   2.0000     -11.310573      -307.7763 
  39   2.0000     -11.306734      -307.6719 
  40   2.0000     -11.305000      -307.6247 
  41   2.0000     -11.303867      -307.5939 
  42   2.0000     -11.300228      -307.4948 
  43   2.0000     -11.299919      -307.4864 
  44   2.0000     -11.299036      -307.4624 
  45   2.0000     -11.296914      -307.4046 
  46   2.0000     -11.295828      -307.3751 
  47   2.0000     -11.293869      -307.3218 
  48   2.0000     -11.293644      -307.3157 
  49   2.0000     -11.292815      -307.2931 
  50   2.0000     -11.292336      -307.2801 
  51   2.0000     -11.291827      -307.2662 
  52   2.0000     -11.290866      -307.2401 
  53   2.0000     -11.289124      -307.1927 
  54   2.0000     -11.288712      -307.1815 
  55   2.0000     -11.288149      -307.1662 
  56   2.0000     -11.287502      -307.1485 
  57   2.0000     -11.283553      -307.0411 
  58   2.0000     -11.282972      -307.0253 
  59   2.0000     -11.279511      -306.9311 
  60   2.0000     -11.275926      -306.8336 
  61   2.0000     -11.272791      -306.7482 
  62   2.0000     -11.269825      -306.6675 
  63   2.0000     -11.267641      -306.6081 
  64   2.0000     -11.267142      -306.5945 
  65   2.0000     -11.266220      -306.5694 
  66   2.0000     -11.266025      -306.5641 
  67   2.0000     -11.264224      -306.5151 
  68   2.0000     -11.264171      -306.5137 
  69   2.0000     -11.257753      -306.3390 
  70   2.0000     -11.256734      -306.3113 
  71   2.0000     -11.250474      -306.1410 
  72   2.0000     -11.246145      -306.0232 
  73   2.0000     -11.246004      -306.0193 
  74   2.0000     -11.245610      -306.0086 
  75   2.0000     -11.243742      -305.9578 
  76   2.0000     -11.243308      -305.9460 
  77   2.0000     -11.237360      -305.7841 
  78   2.0000     -11.232293      -305.6462 
  79   2.0000     -11.226807      -305.4969 
  80   2.0000     -11.215464      -305.1883 
  81   2.0000     -10.584891      -288.0295 
  82   2.0000     -10.583892      -288.0024 
  83   2.0000     -10.582718      -287.9704 
  84   2.0000     -10.579862      -287.8927 
  85   2.0000      -9.084675      -247.2066 
  86   2.0000      -9.021997      -245.5010 
  87   2.0000      -9.016167      -245.3424 
  88   2.0000      -9.012425      -245.2405 
  89   2.0000      -9.009268      -245.1546 
  90   2.0000      -8.059996      -219.3236 
  91   2.0000      -8.058995      -219.2964 
  92   2.0000      -8.057825      -219.2646 
  93   2.0000      -8.056215      -219.2208 
  94   2.0000      -8.056206      -219.2205 
  95   2.0000      -8.055209      -219.1934 
  96   2.0000      -8.055193      -219.1929 
  97   2.0000      -8.054965      -219.1867 
  98   2.0000      -8.054049      -219.1618 
  99   2.0000      -8.054043      -219.1616 
 100   2.0000      -8.051182      -219.0838 
 101   2.0000      -8.051165      -219.0833 
 102   2.0000      -6.771949      -184.2741 
 103   2.0000      -6.770070      -184.2230 
 104   2.0000      -6.768685      -184.1853 
 105   2.0000      -6.709455      -182.5736 
 106   2.0000      -6.708431      -182.5457 
 107   2.0000      -6.706611      -182.4962 
 108   2.0000      -6.703615      -182.4146 
 109   2.0000      -6.702547      -182.3856 
 110   2.0000      -6.700755      -182.3368 
 111   2.0000      -6.699786      -182.3105 
 112   2.0000      -6.698609      -182.2784 
 113   2.0000      -6.696740      -182.2276 
 114   2.0000      -6.696590      -182.2235 
 115   2.0000      -6.695425      -182.1918 
 116   2.0000      -6.693571      -182.1413 
 117   2.0000      -1.452557       -39.5261 
 118   2.0000      -1.424353       -38.7586 
 119   2.0000      -1.395920       -37.9849 
 120   2.0000      -1.393840       -37.9283 
 121   2.0000      -1.379432       -37.5363 
 122   2.0000      -1.255975       -34.1768 
 123   2.0000      -1.250821       -34.0366 
 124   2.0000      -1.247425       -33.9442 
 125   2.0000      -1.242871       -33.8202 
 126   2.0000      -1.242136       -33.8002 
 127   2.0000      -1.237405       -33.6715 
 128   2.0000      -1.226319       -33.3698 
 129   2.0000      -1.220215       -33.2037 
 130   2.0000      -1.218838       -33.1663 
 131   2.0000      -1.208551       -32.8864 
 132   2.0000      -1.204657       -32.7804 
 133   2.0000      -1.202028       -32.7088 
 134   2.0000      -1.190419       -32.3929 
 135   2.0000      -1.177716       -32.0473 
 136   2.0000      -1.159147       -31.5420 
 137   2.0000      -1.155873       -31.4529 
 138   2.0000      -1.145196       -31.1624 
 139   2.0000      -1.137921       -30.9644 
 140   2.0000      -1.130501       -30.7625 
 141   2.0000      -1.126496       -30.6535 
 142   2.0000      -1.102311       -29.9954 
 143   2.0000      -1.097709       -29.8702 
 144   2.0000      -1.093410       -29.7532 
 145   2.0000      -1.075386       -29.2627 
 146   2.0000      -1.071559       -29.1586 
 147   2.0000      -1.066612       -29.0240 
 148   2.0000      -1.049981       -28.5714 
 149   2.0000      -1.046298       -28.4712 
 150   2.0000      -1.045721       -28.4555 
 151   2.0000      -1.043431       -28.3932 
 152   2.0000      -1.030036       -28.0287 
 153   2.0000      -1.028694       -27.9922 
 154   2.0000      -1.026461       -27.9314 
 155   2.0000      -1.022567       -27.8255 
 156   2.0000      -1.021293       -27.7908 
 157   2.0000      -1.019906       -27.7530 
 158   2.0000      -1.014399       -27.6032 
 159   2.0000      -1.010395       -27.4942 
 160   2.0000      -0.984850       -26.7991 
 161   2.0000      -0.969559       -26.3830 
 162   2.0000      -0.952923       -25.9304 
 163   2.0000      -0.933221       -25.3942 
 164   2.0000      -0.931538       -25.3484 
 165   2.0000      -0.927873       -25.2487 
 166   2.0000      -0.925220       -25.1765 
 167   2.0000      -0.915884       -24.9225 
 168   2.0000      -0.906812       -24.6756 
 169   2.0000      -0.896706       -24.4006 
 170   2.0000      -0.887907       -24.1612 
 171   2.0000      -0.872271       -23.7357 
 172   2.0000      -0.869284       -23.6544 
 173   2.0000      -0.853040       -23.2124 
 174   2.0000      -0.848792       -23.0968 
 175   2.0000      -0.846993       -23.0479 
 176   2.0000      -0.838577       -22.8188 
 177   2.0000      -0.835043       -22.7227 
 178   2.0000      -0.833172       -22.6718 
 179   2.0000      -0.830674       -22.6038 
 180   2.0000      -0.824460       -22.4347 
 181   2.0000      -0.820745       -22.3336 
 182   2.0000      -0.815461       -22.1898 
 183   2.0000      -0.800653       -21.7869 
 184   2.0000      -0.786814       -21.4103 
 185   2.0000      -0.777235       -21.1496 
 186   2.0000      -0.775733       -21.1088 
 187   2.0000      -0.771439       -20.9919 
 188   2.0000      -0.759485       -20.6666 
 189   2.0000      -0.757630       -20.6162 
 190   2.0000      -0.755617       -20.5614 
 191   2.0000      -0.752733       -20.4829 
 192   2.0000      -0.746439       -20.3116 
 193   2.0000      -0.744974       -20.2718 
 194   2.0000      -0.741717       -20.1831 
 195   2.0000      -0.729823       -19.8595 
 196   2.0000      -0.719928       -19.5902 
 197   2.0000      -0.714814       -19.4511 
 198   2.0000      -0.710183       -19.3251 
 199   2.0000      -0.708743       -19.2859 
 200   2.0000      -0.696944       -18.9648 
 201   2.0000      -0.694739       -18.9048 
 202   2.0000      -0.693020       -18.8580 
 203   2.0000      -0.688287       -18.7292 
 204   2.0000      -0.677356       -18.4318 
 205   2.0000      -0.673809       -18.3353 
 206   2.0000      -0.671877       -18.2827 
 207   2.0000      -0.668082       -18.1794 
 208   2.0000      -0.665299       -18.1037 
 209   2.0000      -0.659449       -17.9445 
 210   2.0000      -0.654030       -17.7971 
 211   2.0000      -0.653551       -17.7840 
 212   2.0000      -0.650664       -17.7055 
 213   2.0000      -0.647989       -17.6327 
 214   2.0000      -0.647298       -17.6139 
 215   2.0000      -0.645929       -17.5766 
 216   2.0000      -0.643717       -17.5164 
 217   2.0000      -0.641279       -17.4501 
 218   2.0000      -0.636104       -17.3093 
 219   2.0000      -0.634795       -17.2736 
 220   2.0000      -0.628394       -17.0995 
 221   2.0000      -0.626247       -17.0410 
 222   2.0000      -0.625048       -17.0084 
 223   2.0000      -0.624707       -16.9991 
 224   2.0000      -0.623881       -16.9767 
 225   2.0000      -0.620274       -16.8785 
 226   2.0000      -0.619630       -16.8610 
 227   2.0000      -0.611733       -16.6461 
 228   2.0000      -0.606278       -16.4977 
 229   2.0000      -0.603783       -16.4298 
 230   2.0000      -0.595554       -16.2058 
 231   2.0000      -0.593420       -16.1478 
 232   2.0000      -0.593019       -16.1369 
 233   2.0000      -0.588085       -16.0026 
 234   2.0000      -0.585535       -15.9332 
 235   2.0000      -0.583774       -15.8853 
 236   2.0000      -0.583235       -15.8706 
 237   2.0000      -0.580193       -15.7879 
 238   2.0000      -0.578441       -15.7402 
 239   2.0000      -0.577355       -15.7106 
 240   2.0000      -0.574174       -15.6241 
 241   2.0000      -0.572424       -15.5764 
 242   2.0000      -0.570860       -15.5339 
 243   2.0000      -0.570537       -15.5251 
 244   2.0000      -0.570370       -15.5206 
 245   2.0000      -0.569070       -15.4852 
 246   2.0000      -0.567975       -15.4554 
 247   2.0000      -0.566755       -15.4222 
 248   2.0000      -0.566482       -15.4148 
 249   2.0000      -0.565233       -15.3808 
 250   2.0000      -0.564406       -15.3583 
 251   2.0000      -0.562349       -15.3023 
 252   2.0000      -0.561758       -15.2862 
 253   2.0000      -0.559213       -15.2170 
 254   2.0000      -0.557245       -15.1634 
 255   2.0000      -0.555524       -15.1166 
 256   2.0000      -0.553190       -15.0531 
 257   2.0000      -0.549524       -14.9533 
 258   2.0000      -0.545663       -14.8482 
 259   2.0000      -0.540701       -14.7132 
 260   2.0000      -0.539062       -14.6686 
 261   2.0000      -0.537058       -14.6141 
 262   2.0000      -0.527954       -14.3664 
 263   2.0000      -0.526801       -14.3350 
 264   2.0000      -0.524435       -14.2706 
 265   2.0000      -0.521612       -14.1938 
 266   2.0000      -0.516377       -14.0513 
 267   2.0000      -0.514742       -14.0068 
 268   2.0000      -0.513225       -13.9656 
 269   2.0000      -0.510011       -13.8781 
 270   2.0000      -0.508061       -13.8251 
 271   2.0000      -0.506578       -13.7847 
 272   2.0000      -0.506036       -13.7699 
 273   2.0000      -0.504964       -13.7408 
 274   2.0000      -0.502451       -13.6724 
 275   2.0000      -0.498629       -13.5684 
 276   2.0000      -0.498029       -13.5521 
 277   2.0000      -0.497859       -13.5474 
 278   2.0000      -0.496186       -13.5019 
 279   2.0000      -0.495024       -13.4703 
 280   2.0000      -0.494042       -13.4436 
 281   2.0000      -0.492303       -13.3963 
 282   2.0000      -0.491056       -13.3623 
 283   2.0000      -0.489262       -13.3135 
 284   2.0000      -0.489202       -13.3119 
 285   2.0000      -0.485230       -13.2038 
 286   2.0000      -0.481026       -13.0894 
 287   2.0000      -0.479764       -13.0550 
 288   2.0000      -0.478135       -13.0107 
 289   2.0000      -0.477424       -12.9914 
 290   2.0000      -0.476022       -12.9532 
 291   2.0000      -0.471595       -12.8328 
 292   2.0000      -0.469607       -12.7787 
 293   2.0000      -0.464412       -12.6373 
 294   2.0000      -0.462389       -12.5822 
 295   2.0000      -0.461881       -12.5684 
 296   2.0000      -0.461154       -12.5486 
 297   2.0000      -0.458716       -12.4823 
 298   2.0000      -0.455441       -12.3932 
 299   2.0000      -0.444620       -12.0987 
 300   2.0000      -0.441204       -12.0058 
 301   2.0000      -0.424706       -11.5568 
 302   2.0000      -0.415881       -11.3167 
 303   2.0000      -0.392357       -10.6766 
 304   2.0000      -0.380505       -10.3541 
 305   2.0000      -0.379539       -10.3278 
 306   2.0000      -0.377501       -10.2723 
 307   2.0000      -0.374686       -10.1957 
 308   2.0000      -0.370907       -10.0929 
 309   2.0000      -0.369817       -10.0632 
 310   2.0000      -0.366844        -9.9823 
 311   2.0000      -0.359410        -9.7800 
 312   2.0000      -0.348618        -9.4864 
 313   2.0000      -0.344554        -9.3758 
 314   2.0000      -0.326293        -8.8789 
 315   2.0000      -0.281396        -7.6572 
 316   2.0000      -0.252082        -6.8595 
 317   0.0000      -0.042169        -1.1475 
 318   0.0000      -0.018253        -0.4967 
 319   0.0000      -0.002050        -0.0558 
 320   0.0000       0.016841         0.4583 
 321   0.0000       0.019610         0.5336 
 322   0.0000       0.055724         1.5163 
 323   0.0000       0.062192         1.6923 
 324   0.0000       0.092092         2.5059 
 325   0.0000       0.102869         2.7992 
 326   0.0000       0.125664         3.4195 
 327   0.0000       0.131456         3.5771 
 328   0.0000       0.140213         3.8154 
 329   0.0000       0.144957         3.9445 
 330   0.0000       0.147807         4.0220 
 331   0.0000       0.150567         4.0971 
 332   0.0000       0.155154         4.2219 
 333   0.0000       0.157345         4.2816 
 334   0.0000       0.157673         4.2905 
 335   0.0000       0.159748         4.3470 
 336   0.0000       0.160031         4.3547 
 337   0.0000       0.162342         4.4175 
 338   0.0000       0.167350         4.5538 
 339   0.0000       0.172243         4.6870 
 340   0.0000       0.174928         4.7600 
 341   0.0000       0.175667         4.7801 
 342   0.0000       0.178547         4.8585 
 343   0.0000       0.183045         4.9809 
 344   0.0000       0.186806         5.0832 
 345   0.0000       0.188472         5.1286 
 346   0.0000       0.191362         5.2072 
 347   0.0000       0.196696         5.3524 
 348   0.0000       0.198966         5.4141 
 349   0.0000       0.200623         5.4592 
 350   0.0000       0.203461         5.5364 
 351   0.0000       0.206838         5.6284 
 352   0.0000       0.207946         5.6585 
 353   0.0000       0.211311         5.7501 
 354   0.0000       0.215108         5.8534 
 355   0.0000       0.217513         5.9188 
 356   0.0000       0.218772         5.9531 
 357   0.0000       0.223816         6.0903 
 358   0.0000       0.226086         6.1521 
 359   0.0000       0.227780         6.1982 
 360   0.0000       0.229042         6.2326 
 361   0.0000       0.230318         6.2673 
 362   0.0000       0.232521         6.3272 
 363   0.0000       0.235252         6.4015 
 364   0.0000       0.237377         6.4594 
 365   0.0000       0.239655         6.5213 
 366   0.0000       0.240057         6.5323 
 367   0.0000       0.243381         6.6227 
 368   0.0000       0.245491         6.6801 
 369   0.0000       0.246288         6.7018 
 370   0.0000       0.249483         6.7888 
 371   0.0000       0.251092         6.8326 
 372   0.0000       0.252174         6.8620 
 373   0.0000       0.253130         6.8880 
 374   0.0000       0.255013         6.9393 
 375   0.0000       0.257618         7.0102 
 376   0.0000       0.258323         7.0293 
 377   0.0000       0.261027         7.1029 
 378   0.0000       0.262478         7.1424 
 379   0.0000       0.265240         7.2176 
 380   0.0000       0.266141         7.2421 
 381   0.0000       0.268817         7.3149 
 382   0.0000       0.272504         7.4152 
 383   0.0000       0.273381         7.4391 
 384   0.0000       0.275420         7.4946 
 385   0.0000       0.275536         7.4977 
 386   0.0000       0.278976         7.5913 
 387   0.0000       0.280884         7.6433 
 388   0.0000       0.284302         7.7362 
 389   0.0000       0.288883         7.8609 
 390   0.0000       0.291067         7.9203 
 391   0.0000       0.292380         7.9561 
 392   0.0000       0.296553         8.0696 
 393   0.0000       0.297795         8.1034 
 394   0.0000       0.299425         8.1478 
 395   0.0000       0.306672         8.3450 
 396   0.0000       0.311499         8.4763 
 397   0.0000       0.314933         8.5698 
 398   0.0000       0.320472         8.7205 
 399   0.0000       0.323222         8.7953 
 400   0.0000       0.324263         8.8237 
 401   0.0000       0.328976         8.9519 
 402   0.0000       0.336356         9.1527 
 403   0.0000       0.337028         9.1710 
 404   0.0000       0.340356         9.2616 
 405   0.0000       0.341248         9.2858 
 406   0.0000       0.343959         9.3596 
 407   0.0000       0.345823         9.4103 
 408   0.0000       0.347695         9.4613 
 409   0.0000       0.352044         9.5796 
 410   0.0000       0.357331         9.7235 
 411   0.0000       0.358270         9.7490 
 412   0.0000       0.358856         9.7650 
 413   0.0000       0.364154         9.9091 
 414   0.0000       0.367416         9.9979 
 415   0.0000       0.368786        10.0352 
 416   0.0000       0.370549        10.0831 
 417   0.0000       0.373884        10.1739 
 418   0.0000       0.376710        10.2508 
 419   0.0000       0.378314        10.2944 
 420   0.0000       0.380808        10.3623 
 421   0.0000       0.382909        10.4195 
 422   0.0000       0.384272        10.4566 
 423   0.0000       0.385047        10.4777 
 424   0.0000       0.391485        10.6529 
 425   0.0000       0.392776        10.6880 
 426   0.0000       0.394507        10.7351 
 427   0.0000       0.397526        10.8172 
 428   0.0000       0.402174        10.9437 
 429   0.0000       0.404491        11.0068 
 430   0.0000       0.408913        11.1271 
 431   0.0000       0.410650        11.1744 
 432   0.0000       0.411643        11.2014 
 433   0.0000       0.416642        11.3374 
 434   0.0000       0.417504        11.3609 
 435   0.0000       0.418424        11.3859 
 436   0.0000       0.419936        11.4270 
 437   0.0000       0.422935        11.5087 
 438   0.0000       0.426028        11.5928 
 439   0.0000       0.427887        11.6434 
 440   0.0000       0.431996        11.7552 
 441   0.0000       0.434594        11.8259 
 442   0.0000       0.436077        11.8662 
 443   0.0000       0.441042        12.0014 
 444   0.0000       0.441851        12.0234 
 445   0.0000       0.444523        12.0961 
 446   0.0000       0.450821        12.2675 
 447   0.0000       0.451826        12.2948 
 448   0.0000       0.455992        12.4082 
 449   0.0000       0.457775        12.4567 
 450   0.0000       0.459224        12.4961 
 451   0.0000       0.460022        12.5178 
 452   0.0000       0.463414        12.6101 
 453   0.0000       0.464314        12.6346 
 454   0.0000       0.465977        12.6799 
 455   0.0000       0.471294        12.8246 
 456   0.0000       0.474232        12.9045 
 457   0.0000       0.478907        13.0317 
 458   0.0000       0.481918        13.1136 
 459   0.0000       0.484848        13.1934 
 460   0.0000       0.490437        13.3455 
 461   0.0000       0.491869        13.3844 
[...]
   Size of expansion space: 18
   Lowest Energy          :     0.082887136116
   Maximum Energy change  :     0.000807902383 (vector 2)
   Maximum residual norm  :     0.000096875032

                       ****Iteration    4****
   Time for densities:     1.756
   Using LibInt in JK Direct
   Time for J+K (Direct):  1709.586
   Time for Sigma-Completion:    15.443
   Size of expansion space: 21
   Lowest Energy          :     0.082852064082
   Maximum Energy change  :     0.000196808733 (vector 2)
   Maximum residual norm  :     0.000022343807

                       ****Iteration    5****
   Time for densities:     1.756
   Using LibInt in JK Direct
   Time for J+K (Direct):  1681.391
   Time for Sigma-Completion:    18.953
   Size of expansion space: 24
   Lowest Energy          :     0.082846908126
   Maximum Energy change  :     0.000049708668 (vector 2)
   Maximum residual norm  :     0.000006057759

                       ****Iteration    6****
   Time for densities:     1.765
   Using LibInt in JK Direct
   Time for J+K (Direct):  1744.004
   Time for Sigma-Completion:    15.730
   Size of expansion space: 27
   Lowest Energy          :     0.082846222615
   Maximum Energy change  :     0.000013079814 (vector 2)
   Maximum residual norm  :     0.000001945722

                       ****Iteration    7****
   Time for densities:     1.760
   Using LibInt in JK Direct
   Time for J+K (Direct):  1688.193
   Time for Sigma-Completion:    15.296
   Size of expansion space: 30
   Lowest Energy          :     0.082846106721
   Maximum Energy change  :     0.000005034789 (vector 2)
   Maximum residual norm  :     0.000000834000
   Rebuilding the expansion space

                       ****Iteration    8****
   Time for densities:     3.503
   Using LibInt in JK Direct
   Time for J+K (Direct):  3255.867
   Time for Sigma-Completion:    18.018
   Size of expansion space: 6
   Lowest Energy          :     0.082846089126
   Maximum Energy change  :     0.000001077191 (vector 2)
   Maximum residual norm  :     0.000000144631

      *** CONVERGENCE OF RESIDUAL NORM REACHED ***

Storing the converged CI vectors               ... BCDT-4Cl.cis1

                 *** DAVIDSON DONE ***

Total time for solving the CIS problem: 20947.336sec

-----------------------------
CIS-EXCITED STATES (SINGLETS)
-----------------------------

the weight of the individual excitations are printed if larger than 1.0e-02

STATE  1:  E=   0.082846 au      2.254 eV    18182.6 cm**-1
   314a -> 319a  :     0.039284 (c=  0.19820314)
   315a -> 317a  :     0.016073 (c= -0.12677854)
   315a -> 318a  :     0.152060 (c= -0.38994824)
   315a -> 320a  :     0.010669 (c= -0.10329231)
   316a -> 317a  :     0.694027 (c=  0.83308291)

STATE  2:  E=   0.106028 au      2.885 eV    23270.5 cm**-1
   314a -> 318a  :     0.061653 (c=  0.24830074)
   315a -> 317a  :     0.345051 (c= -0.58741084)
   315a -> 319a  :     0.063727 (c= -0.25244191)
   315a -> 321a  :     0.011307 (c= -0.10633354)
   316a -> 318a  :     0.370445 (c=  0.60864182)
   316a -> 320a  :     0.014496 (c=  0.12039788)
   316a -> 323a  :     0.010866 (c=  0.10423982)

STATE  3:  E=   0.129214 au      3.516 eV    28359.2 cm**-1
   311a -> 318a  :     0.012798 (c= -0.11312902)
   314a -> 317a  :     0.144519 (c= -0.38015694)
   315a -> 318a  :     0.192627 (c=  0.43889319)
   316a -> 317a  :     0.029664 (c=  0.17223300)
   316a -> 319a  :     0.428028 (c= -0.65423818)
   316a -> 321a  :     0.039743 (c= -0.19935644)


----------------------
CIS-EXCITATION SPECTRA
----------------------

Center of mass = ( 18.9309,  2.0641, 10.5533)
Calculating the Dipole integrals                  ... done
Transforming integrals                            ... done
Calculating the Linear Momentum integrals         ... done
Transforming integrals                            ... done
Calculating angular momentum integrals            ... done
Transforming integrals                            ... done

-----------------------------------------------------------------------------
         ABSORPTION SPECTRUM VIA TRANSITION ELECTRIC DIPOLE MOMENTS
-----------------------------------------------------------------------------
State   Energy    Wavelength  fosc         T2        TX        TY        TZ  
        (cm-1)      (nm)                 (au**2)    (au)      (au)      (au) 
-----------------------------------------------------------------------------
   1   18182.6    550.0   3.310119764  59.93258   4.53844  -0.05446   6.27154
   2   23270.5    429.7   0.153845490   2.17648  -1.45591  -0.23433  -0.04357
   3   28359.2    352.6   0.212051652   2.46164  -1.44873  -0.51695  -0.30917

-----------------------------------------------------------------------------
         ABSORPTION SPECTRUM VIA TRANSITION VELOCITY DIPOLE MOMENTS
-----------------------------------------------------------------------------
State   Energy    Wavelength   fosc        P2         PX        PY        PZ  
        (cm-1)      (nm)                 (au**2)     (au)      (au)      (au) 
-----------------------------------------------------------------------------
   1   18182.6    550.0   2.217897993   0.27562  -0.31375  -0.01336  -0.42071
   2   23270.5    429.7   0.104830793   0.01667   0.12067  -0.02928   0.03542
   3   28359.2    352.6   0.131951516   0.02557   0.11791   0.01494   0.10700

-------------------------------------------------------------------
                             CD SPECTRUM
-------------------------------------------------------------------
State  Energy     Wavelength     R         MX        MY        MZ   
       (cm-1)       (nm)     (1e40*cgs)   (au)      (au)      (au)  
-------------------------------------------------------------------
   1   18182.6    550.0    -168.06260  -0.79984  -0.52589   0.51740
   2   23270.5    429.7    168.09374  -0.37161   0.74733   0.21505
   3   28359.2    352.6     48.65865  -0.17000   0.26965   0.01190

Total run time:    21031.703 sec

           *** ORCA-CIS/TD-DFT FINISHED WITHOUT ERROR ***

-----------------------
CIS/TD-DFT TOTAL ENERGY
-----------------------

    E(SCF)  =  -6819.167772828 Eh
    DE(CIS) =      0.082846089 Eh (Root  1)
    ----------------------------- ---------
    E(tot)  =  -6819.084926739 Eh


-------------------------   --------------------
FINAL SINGLE POINT ENERGY     -6819.084926739015
-------------------------   --------------------

------------------------------------------------------------------------------
                         ORCA SCF GRADIENT CALCULATION
------------------------------------------------------------------------------


------------
CIS GRADIENT
------------

Reference wavefunction             ... RHF
State of interest                  ... 1
Basis dimension                    ... 1370
DFT-XC contribution needed         ... NO
RI-approximation                   ... OFF
CIS-vectors being read from        ... BCDT-4Cl.cis

 => Number of Vectors found: 3
 => Orbital Window: 117...316 -> 317...1369

Reading the CIS file                     ... done
Norm of the CI vector                    ... 1.000000000
Making the CIS (pseudo)densities         ... done
Making operators G(D) and Q(T)           ... done
Transforming the Fock operators          ... done
Making the frozen-core relaxed density   ... done
Constructing the G(H) operator           ... done
Transforming the G(H) operator           ... done
Calculating the CIS Lagrangian           ... done
Solving the Z-vector equations           ... done
Finalizing the relaxed density           ... done
Storing the relaxed density              ... done
Constructing the G(Z) operator           ... done
Transforming the G(Z) operator           ... done
Making the W-matrix                      ... done
Finalizing the W-matrix                  ... done
Transforming the W-matrix                ... done
Nuclear repulsion gradient               ... done
One-Electron gradient                    ... done
Prescreening matrices                    ... done
Two-Electron gradient (4-center)         ... done
                 ---------------------------
                 EXCITED STATE GRADIENT DONE
                 ---------------------------


------------------
CARTESIAN GRADIENT
------------------

   1   C   :   -0.028268396   -0.024107509   -0.009463357
   2   O   :    0.029869463    0.024181809    0.010510661
   3   C   :    0.011274379    0.003725073    0.006069170
   4   C   :   -0.002553496    0.002481459   -0.001973638
   5   C   :    0.001805953    0.005958511   -0.000833870
   6   C   :   -0.004396610   -0.003675203   -0.001776281
   7   C   :    0.000757296    0.000797023    0.000098838
   8   C   :    0.000638699   -0.022246719    0.006811271
   9   C   :   -0.002223704    0.023253174   -0.005714435
  10   C   :   -0.004167577   -0.023179738    0.000978536
  11   C   :   -0.027753857    0.047686289   -0.024552243
  12   N   :    0.013426288   -0.030656056    0.013236174
  13   C   :    0.048527665    0.019935791    0.027482088
  14   N   :   -0.026864633   -0.014681503   -0.014630954
  15   C   :   -0.003023579    0.001994470   -0.002877517
  16   Cl  :    0.005397538    0.003668408    0.002278694
  17   C   :    0.004641673   -0.000070450    0.002377648
  18   Cl  :   -0.001852189   -0.006616986    0.000949459
  19   C   :    0.029372403    0.024068601   -0.009111439
  20   O   :   -0.028798215   -0.024778825    0.011597245
  21   C   :   -0.009878044   -0.008739655   -0.003274632
  22   C   :    0.000664648    0.002254537    0.003897146
  23   C   :   -0.003539769   -0.001855785    0.005090577
  24   C   :    0.005062912    0.003912760   -0.002531434
  25   C   :    0.000086693   -0.000725335    0.001170529
  26   C   :    0.006210561   -0.000826230   -0.021370641
  27   C   :   -0.008253457    0.009310635    0.017744061
  28   C   :    0.017527185   -0.002309025   -0.015074976
  29   C   :   -0.002844984    0.037449701    0.046422715
  30   N   :   -0.004245591   -0.017829325   -0.032626393
  31   C   :   -0.048576425   -0.034060786   -0.000754311
  32   N   :    0.028147233    0.018732025   -0.001824296
  33   C   :    0.004035669    0.002048243   -0.002534247
  34   Cl  :   -0.005147462   -0.004512170    0.001534385
  35   C   :    0.003021480    0.001051073   -0.000825501
  36   Cl  :    0.003252720    0.001474266   -0.006069071
  37   C   :    0.007486633    0.004714252    0.003392550
  38   S   :   -0.001507301   -0.000811386   -0.000095313
  39   C   :   -0.001498011   -0.003769055   -0.001514274
  40   C   :    0.007932627    0.010022252   -0.000018365
  41   C   :    0.006617974   -0.001805864    0.001241326
  42   C   :   -0.001569807   -0.005665024    0.003735456
  43   C   :    0.006625737    0.011426933   -0.004203395
  44   C   :   -0.002345156   -0.011716957    0.003465872
  45   S   :   -0.005354750    0.000179909   -0.019990660
  46   C   :    0.008258331    0.005662608    0.008330929
  47   C   :   -0.005901598   -0.004724561   -0.003595810
  48   C   :   -0.002516570    0.012975148   -0.015197296
  49   C   :    0.007211177    0.016217822   -0.004902240
  50   C   :    0.004679483    0.010902068   -0.002534683
  51   C   :    0.013836702    0.011661488    0.006089710
  52   C   :   -0.019116503   -0.038343460    0.008301701
  53   C   :   -0.017827897   -0.037926470    0.011926858
  54   N   :    0.004037275    0.020922841   -0.013160127
  55   S   :    0.002904492    0.006104249   -0.001515570
  56   N   :    0.014106945    0.020478048    0.002390320
  57   C   :   -0.001967372    0.006036421   -0.008108902
  58   S   :    0.012036910   -0.003435749    0.018006633
  59   C   :   -0.009342324   -0.007457166   -0.004248004
  60   C   :    0.009429372    0.015495378   -0.003202445
  61   C   :   -0.002245225   -0.003630183    0.003639775
  62   C   :    0.004296719   -0.005513420    0.008621338
  63   C   :    0.000166723    0.014863023   -0.011102348
  64   C   :    0.002484390   -0.010857000    0.004575235
  65   S   :   -0.002074494   -0.004159122    0.000863912
  66   C   :   -0.004602409    0.005945834   -0.007598546
  67   C   :   -0.000225472   -0.002281692    0.001575108
  68   O   :    0.002347303   -0.018810378    0.032535997
  69   O   :   -0.022729298   -0.008971368   -0.022607530
  70   C   :   -0.005577505    0.005616085   -0.000780806
  71   C   :    0.007453437   -0.001600443   -0.003066939
  72   C   :    0.010673877    0.004583644   -0.000238325
  73   C   :   -0.008571217   -0.002897807   -0.001730593
  74   C   :   -0.001982051    0.007268807    0.000879634
  75   C   :   -0.001098547   -0.004339095    0.001301515
  76   C   :   -0.002673737   -0.001254160   -0.004120138
  77   C   :    0.004162236    0.000532959    0.002089757
  78   C   :   -0.001745210    0.006587481    0.001840414
  79   C   :   -0.001144952   -0.002753910   -0.001125003
  80   C   :    0.000237655   -0.000485149   -0.004520893
  81   C   :    0.001888119   -0.000314134    0.004018634
  82   H   :   -0.000159067   -0.001090876    0.000284802
  83   H   :    0.000390954   -0.002567560    0.001157403
  84   H   :   -0.002712449   -0.005324521    0.000594332
  85   H   :    0.000541605    0.000245517   -0.001170635
  86   H   :    0.000030683   -0.000201980   -0.002475221
  87   H   :   -0.001343298   -0.000748014   -0.001134070
  88   H   :   -0.000747956   -0.000855592    0.000005501
  89   H   :   -0.000412061   -0.000700449   -0.001188159
  90   H   :    0.001857121    0.000014328    0.000828820
  91   H   :    0.000223948   -0.000164389    0.000048359
  92   H   :    0.000702238   -0.000560304   -0.006496295
  93   H   :    0.000178165   -0.001318237    0.003803887
  94   H   :   -0.002262451    0.000652922    0.001237042
  95   H   :   -0.001269614    0.002318298    0.001796530
  96   H   :   -0.002289606    0.000642109    0.000357526
  97   H   :   -0.001232717    0.003123038    0.004376490
  98   H   :    0.000679043   -0.006856426    0.001426538
  99   H   :    0.002280264   -0.000246269   -0.000273384
 100   H   :    0.001965211    0.001853613   -0.002035943
 101   H   :    0.001971062    0.002340914    0.001273259
 102   H   :    0.000573880   -0.002428979    0.002095073
 103   H   :   -0.001298804   -0.002689473   -0.000145482
 104   H   :   -0.001898989    0.002175014    0.000738065
 105   H   :   -0.002158467    0.001001325    0.002164319
 106   H   :   -0.000824534    0.001881284    0.001803172
 107   H   :    0.000892608   -0.001270812    0.001864943
 108   H   :    0.001757247   -0.000108893   -0.000687875
 109   H   :   -0.001284241   -0.002034392   -0.001955017
 110   H   :   -0.000367382   -0.002680287   -0.001349244
 111   H   :   -0.002564526   -0.002581566    0.000126587
 112   H   :   -0.000504413   -0.002479509    0.001669457
 113   H   :   -0.001084237   -0.002573629   -0.001307462
 114   H   :   -0.001454269    0.000628438    0.003047470
 115   H   :   -0.002809298    0.001070348    0.001096327
 116   H   :   -0.001383390    0.001600976    0.002268139
 117   H   :   -0.000457272   -0.001667051    0.001657298
 118   H   :    0.001890283   -0.000244926    0.000408478
 119   H   :    0.000032081   -0.001450478   -0.002495072
 120   H   :    0.000152339   -0.002383852   -0.001746785
 121   H   :   -0.002188873   -0.002105902   -0.001743604

Difference to translation invariance:
           :    0.0000000003    0.0000000000    0.0000000006

Norm of the cartesian gradient     ...    0.2063517662
RMS gradient                       ...    0.0108306589
MAX gradient                       ...    0.0485764254

-------
TIMINGS
-------

Total CIS gradient time            ...    26785.020 sec

Fock matrix formation       ....    1640.081 sec  (  6.1%)
  Coulomb formation         ....    1640.081 sec  (100.0% of F)
Z-vector equation           ....   22875.135 sec  ( 85.4%)
One electron gradient       ....      18.225 sec  (  0.1%)
Prescreening matrices       ....       1.302 sec  (  0.0%)
Two electron gradient       ....    2246.823 sec  (  8.4%)

                            ***************************************
                            *     ORCA property calculations      *
                            ***************************************

                                    ---------------------
                                    Active property flags
                                    ---------------------
   (+) Dipole Moment


------------------------------------------------------------------------------
                       ORCA ELECTRIC PROPERTIES CALCULATION
------------------------------------------------------------------------------

Dipole Moment Calculation                       ... on
Quadrupole Moment Calculation                   ... off
Polarizability Calculation                      ... off
GBWName                                         ... BCDT-4Cl.gbw
Electron density file                           ... BCDT-4Cl.scfp
The origin for moment calculation is the CENTER OF MASS  = (18.930862,  2.064140 10.553258)

-------------
DIPOLE MOMENT
-------------
                                X             Y             Z
Electronic contribution:    -42.39057       6.25954      20.34631
Nuclear contribution   :     43.67330      -4.11858     -19.47915
                        -----------------------------------------
Total Dipole Moment    :      1.28273       2.14096       0.86716
                        -----------------------------------------
Magnitude (a.u.)       :      2.64218
Magnitude (Debye)      :      6.71588



--------------------
Rotational spectrum 
--------------------
 
Rotational constants in cm-1:     0.002009     0.000131     0.000129 
Rotational constants in MHz :    60.229643     3.922566     3.881010 

 Dipole components along the rotational axes: 
x,y,z [a.u.] :     1.411151    -2.183173    -0.472757 
x,y,z [Debye]:     3.586861    -5.549184    -1.201654 

 

                        *** CIS RELAXED DENSITY ***

------------------------------------------------------------------------------
                       ORCA ELECTRIC PROPERTIES CALCULATION
------------------------------------------------------------------------------

Dipole Moment Calculation                       ... on
Quadrupole Moment Calculation                   ... off
Polarizability Calculation                      ... off
GBWName                                         ... BCDT-4Cl.gbw
Electron density file                           ... BCDT-4Cl.cisp
The origin for moment calculation is the CENTER OF MASS  = (18.930862,  2.064140 10.553258)

-------------
DIPOLE MOMENT
-------------
                                X             Y             Z
Electronic contribution:    -42.60286       6.31432      19.92873
Nuclear contribution   :     43.67330      -4.11858     -19.47915
                        -----------------------------------------
Total Dipole Moment    :      1.07044       2.19574       0.44959
                        -----------------------------------------
Magnitude (a.u.)       :      2.48379
Magnitude (Debye)      :      6.31330



--------------------
Rotational spectrum 
--------------------
 
Rotational constants in cm-1:     0.002009     0.000131     0.000129 
Rotational constants in MHz :    60.229643     3.922566     3.881010 

 Dipole components along the rotational axes: 
x,y,z [a.u.] :     0.947115    -2.255592    -0.429549 
x,y,z [Debye]:     2.407375    -5.733259    -1.091827 

 

Timings for individual modules:

Sum of individual times         ...    55929.418 sec (= 932.157 min)
GTO integral calculation        ...        1.867 sec (=   0.031 min)   0.0 %
SCF iterations                  ...     8110.723 sec (= 135.179 min)  14.5 %
CIS module                      ...    21031.774 sec (= 350.530 min)  37.6 %
SCF Gradient evaluation         ...    26785.054 sec (= 446.418 min)  47.9 %
                             ****ORCA TERMINATED NORMALLY****
TOTAL RUN TIME: 0 days 15 hours 32 minutes 10 seconds 378 msec
