
                                 *****************
                                 * O   R   C   A *
                                 *****************

           --- An Ab Initio, DFT and Semiempirical electronic structure package ---

                  #######################################################
                  #                        -***-                        #
                  #          Department of theory and spectroscopy      #
                  #               Directorship: Frank Neese             #
                  #        Max Planck Institute fuer Kohlenforschung    #
                  #                Kaiser Wilhelm Platz 1               #
                  #                 D-45470 Muelheim/Ruhr               #
                  #                      Germany                        #
                  #                                                     #
                  #                  All rights reserved                #
                  #                        -***-                        #
                  #######################################################


                         Program Version 4.2.0 -  RELEASE  -


 With contributions from (in alphabetic order):
   Daniel Aravena         : Magnetic Suceptibility
   Michael Atanasov       : Ab Initio Ligand Field Theory (pilot matlab implementation)
   Alexander A. Auer      : GIAO ZORA, VPT2
   Ute Becker             : Parallelization
   Giovanni Bistoni       : ED, misc. LED, open-shell LED, HFLED
   Martin Brehm           : Molecular dynamics
   Dmytro Bykov           : SCF Hessian
   Vijay G. Chilkuri      : MRCI spin determinant printing, contributions to CSF-ICE
   Dipayan Datta          : RHF DLPNO-CCSD density
   Achintya Kumar Dutta   : EOM-CC, STEOM-CC
   Dmitry Ganyushin       : Spin-Orbit,Spin-Spin,Magnetic field MRCI
   Miquel Garcia          : C-PCM Hessian, Gaussian charge scheme
   Yang Guo               : DLPNO-NEVPT2, CIM, IAO-localization
   Andreas Hansen         : Spin unrestricted coupled pair/coupled cluster methods
   Benjamin Helmich-Paris : CASSCF linear response (MC-RPA)
   Lee Huntington         : MR-EOM, pCC
   Robert Izsak           : Overlap fitted RIJCOSX, COSX-SCS-MP3, EOM
   Christian Kollmar      : KDIIS, OOCD, Brueckner-CCSD(T), CCSD density
   Simone Kossmann        : Meta GGA functionals, TD-DFT gradient, OOMP2, MP2 Hessian
   Martin Krupicka        : AUTO-CI
   Lucas Lang             : DCDCAS
   Dagmar Lenk            : GEPOL surface, SMD
   Dimitrios Liakos       : Extrapolation schemes; Compound Job, initial MDCI parallelization
   Dimitrios Manganas     : Further ROCIS development; embedding schemes
   Dimitrios Pantazis     : SARC Basis sets
   Taras Petrenko         : DFT Hessian,TD-DFT gradient, ASA, ECA, R-Raman, ABS, FL, XAS/XES, NRVS
   Peter Pinski           : DLPNO-MP2, DLPNO-MP2 Gradient
   Christoph Reimann      : Effective Core Potentials
   Marius Retegan         : Local ZFS, SOC
   Christoph Riplinger    : Optimizer, TS searches, QM/MM, DLPNO-CCSD(T), (RO)-DLPNO pert. Triples
   Tobias Risthaus        : Range-separated hybrids, TD-DFT gradient, RPA, STAB
   Michael Roemelt        : Original ROCIS implementation
   Masaaki Saitow         : Open-shell DLPNO-CCSD energy and density
   Barbara Sandhoefer     : DKH picture change effects
   Avijit Sen             : IP-ROCIS
   Kantharuban Sivalingam : CASSCF convergence, NEVPT2, FIC-MRCI
   Bernardo de Souza      : ESD, SOC TD-DFT
   Georgi Stoychev        : AutoAux, RI-MP2 NMR
   Willem Van den Heuvel  : Paramagnetic NMR
   Boris Wezisla          : Elementary symmetry handling
   Frank Wennmohs         : Technical directorship


 We gratefully acknowledge several colleagues who have allowed us to
 interface, adapt or use parts of their codes:
   Stefan Grimme, W. Hujo, H. Kruse,             : VdW corrections, initial TS optimization,
                  C. Bannwarth                     DFT functionals, gCP, sTDA/sTD-DF
   Ed Valeev, F. Pavosevic, A. Kumar             : LibInt (2-el integral package), F12 methods
   Garnet Chan, S. Sharma, J. Yang, R. Olivares  : DMRG
   Ulf Ekstrom                                   : XCFun DFT Library
   Mihaly Kallay                                 : mrcc  (arbitrary order and MRCC methods)
   Andreas Klamt, Michael Diedenhofen            : otool_cosmo (COSMO solvation model)
   Jiri Pittner, Ondrej Demel                    : Mk-CCSD
   Frank Weinhold                                : gennbo (NPA and NBO analysis)
   Christopher J. Cramer and Donald G. Truhlar   : smd solvation model
   Lars Goerigk                                  : TD-DFT with DH, B97 family of functionals
   V. Asgeirsson, H. Jonsson                     : NEB implementation
   FAccTs GmbH                                   : IRC, NEB, NEB-TS, Multilevel, MM, QM/MM, CI optimization
   S Lehtola, MJT Oliveira, MAL Marques          : LibXC Library


 Your calculation uses the libint2 library for the computation of 2-el integrals
 For citations please refer to: http://libint.valeyev.net

 Your ORCA version has been built with support for libXC version: 4.2.3
 For citations please refer to: https://tddft.org/programs/libxc/

 This ORCA versions uses:
   CBLAS   interface :  Fast vector & matrix operations
   LAPACKE interface :  Fast linear algebra routines
   SCALAPACK package :  Parallel linear algebra routines


----- Orbital basis set information -----
Your calculation utilizes the basis: def2-SVP
   F. Weigend and R. Ahlrichs, Phys. Chem. Chem. Phys. 7, 3297 (2005).

================================================================================
                                        WARNINGS
                       Please study these warnings very carefully!
================================================================================

INFO   : Checking CIS options ...

WARNING: CIS/ROCIS methods need fully converged wavefunctions
  ===> : Setting SCFConvForced true
         You can overwrite this default with %scf ConvForced false 


INFO   : the flag for use of LIBINT has been found!

================================================================================
                                       INPUT FILE
================================================================================
NAME = BCDT-4F.inp
|  1> # ORCA input file
|  2> # BCDT-4F.out: Geometry 166
|  3> ! Engrad Keepdens
|  4> %maxcore 1000
|  5> %tddft
|  6>   nroots 3 
|  7>   # nroots is the number of states to be computed
|  8>   Iroot 1
|  9>   end
| 10> * xyz 0 1
| 11>    C        2.33218        -1.21393        -3.61652
| 12>    O        1.55547        -1.99376        -3.10448
| 13>    C        2.52990        -0.98580        -5.07127
| 14>    C        1.89208        -1.62675        -6.12760
| 15>    C        2.25614        -1.25652        -7.41778
| 16>    C        3.23565        -0.26647        -7.62464
| 17>    C        3.86285         0.38448        -6.56385
| 18>    C        3.50203         0.01645        -5.26169
| 19>    C        3.91671         0.53963        -3.93161
| 20>    C        4.56136         1.75472        -3.74132
| 21>    C        4.63272         2.41648        -2.47976
| 22>    N        4.69689         2.99631        -1.47422
| 23>    C        5.12931         2.50496        -4.81711
| 24>    N        5.62184         3.11807        -5.67345
| 25>    C        3.32285        -0.32555        -2.92446
| 26>    F        3.56482         0.05241        -8.87397
| 27>    C        3.52612        -0.52822        -1.57259
| 28>    F        1.68675        -1.83292        -8.47403
| 29>    C       13.79329         5.08857        18.79255
| 30>    O       13.07972         6.05439        18.97068
| 31>    C       14.96814         4.67910        19.61030
| 32>    C       15.52718         5.33676        20.70093
| 33>    C       16.63528         4.75426        21.31029
| 34>    C       17.14558         3.53101        20.83856
| 35>    C       16.58100         2.87290        19.74685
| 36>    C       15.47800         3.46206        19.11600
| 37>    C       14.62306         3.00994        17.98280
| 38>    C       14.60105         1.71289        17.48590
| 39>    C       13.53725         1.21824        16.67660
| 40>    N       12.66382         0.78843        16.04119
| 41>    C       15.56643         0.72729        17.85680
| 42>    N       16.35412        -0.07958        18.13978
| 43>    C       13.69397         4.08202        17.68503
| 44>    F       18.19349         2.99314        21.46073
| 45>    C       12.83475         4.38097        16.64169
| 46>    F       17.22972         5.34411        22.34626
| 47>    C       12.74578         3.92735        15.30729
| 48>    S       11.29656         4.36188        14.37686
| 49>    C       11.93061         3.60453        12.97855
| 50>    C       13.22110         3.06722        13.18372
| 51>    C       13.66280         3.22784        14.49451
| 52>    C       11.51049         3.32608        11.64070
| 53>    C       12.53843         2.64121        10.98795
| 54>    C       13.73110         2.40588        11.90306
| 55>    S       10.10854         3.51968        10.65192
| 56>    C       10.92849         2.71319         9.30352
| 57>    C       12.21720         2.30608         9.66815
| 58>    C       10.28167         2.51880         8.01839
| 59>    C       10.98966         2.24821         6.84193
| 60>    C       10.34816         1.94618         5.58905
| 61>    C        8.96303         1.92807         5.41675
| 62>    C        8.20380         2.25639         6.59553
| 63>    C        8.84877         2.55418         7.86570
| 64>    N        6.87642         2.32552         6.65619
| 65>    S        6.46960         2.75212         8.18925
| 66>    N        7.97933         2.85542         8.82777
| 67>    C        8.32693         1.59362         4.15437
| 68>    S        6.66020         1.00081         4.08838
| 69>    C        6.77713         0.81284         2.37811
| 70>    C        8.01188         1.23536         1.86936
| 71>    C        8.89166         1.65817         2.87529
| 72>    C        5.95563         0.37663         1.29012
| 73>    C        6.67618         0.52273         0.08874
| 74>    C        8.05851         1.11602         0.35085
| 75>    S        4.35023        -0.17597         1.03431
| 76>    C        4.59621        -0.15903        -0.72411
| 77>    C        5.91150         0.23005        -1.03631
| 78>    O       12.34577         2.18567         6.85492
| 79>    O       11.17527         1.65840         4.54570
| 80>    C       13.08797         3.18099         6.12149
| 81>    C       13.69003         4.20130         7.06801
| 82>    C       11.67059         0.30763         4.48806
| 83>    C       12.30832         0.10055         3.13036
| 84>    C        9.21701         0.20413        -0.11913
| 85>    C        9.18454        -1.21807         0.43439
| 86>    C        8.11217         2.51345        -0.33400
| 87>    C        9.40216         3.30714        -0.13984
| 88>    C       13.98492         0.88975        12.09516
| 89>    C       12.75957         0.08842        12.52791
| 90>    C       14.96811         3.13255        11.30802
| 91>    C       16.27864         2.97459        12.07183
| 92>    H        1.13186        -2.39042        -5.95485
| 93>    H        4.60640         1.14501        -6.79552
| 94>    H        2.73386        -1.13897        -1.11870
| 95>    H       15.11289         6.27407        21.07521
| 96>    H       17.02456         1.93114        19.43134
| 97>    H       12.14796         5.19661        16.90618
| 98>    H       14.62208         2.88072        14.87404
| 99>    H       12.86516         1.77173         8.98091
|100>    H        9.90216         2.01921         2.71561
|101>    H        6.27057         0.27722        -2.06343
|102>    H       12.43215         3.65903         5.37965
|103>    H       13.87045         2.63727         5.57060
|104>    H       12.90707         4.75432         7.60824
|105>    H       14.29801         4.92433         6.49992
|106>    H       14.33610         3.71375         7.81347
|107>    H       10.82721        -0.38753         4.64449
|108>    H       12.39572         0.15528         5.30535
|109>    H       11.55818         0.17983         2.32940
|110>    H       12.77264        -0.89605         3.07476
|111>    H       13.08943         0.85457         2.95025
|112>    H       10.16455         0.68742         0.16892
|113>    H        9.20873         0.18058        -1.22221
|114>    H        9.25822        -1.22389         1.53362
|115>    H       10.02337        -1.80994         0.03721
|116>    H        8.25285        -1.73710         0.15975
|117>    H        7.25051         3.09811         0.02348
|118>    H        7.93539         2.36062        -1.41189
|119>    H        9.61210         3.50257         0.92252
|120>    H        9.31918         4.28245        -0.64217
|121>    H       10.27411         2.79310        -0.57127
|122>    H       14.78673         0.75775        12.83930
|123>    H       14.38041         0.49601        11.14267
|124>    H       12.39160         0.41837        13.51110
|125>    H       13.01671        -0.97859        12.61349
|126>    H       11.93741         0.18017        11.80181
|127>    H       14.71443         4.20148        11.21608
|128>    H       15.10274         2.75796        10.27876
|129>    H       16.19302         3.33118        13.10992
|130>    H       17.07150         3.56717        11.59091
|131>    H       16.61835         1.92854        12.09589
|132> *
|133> 
|134>                          ****END OF INPUT****
================================================================================

                     *******************************
                     * Energy+Gradient Calculation *
                     *******************************

---------------------------------
CARTESIAN COORDINATES (ANGSTROEM)
---------------------------------
  C      2.332180   -1.213930   -3.616520
  O      1.555470   -1.993760   -3.104480
  C      2.529900   -0.985800   -5.071270
  C      1.892080   -1.626750   -6.127600
  C      2.256140   -1.256520   -7.417780
  C      3.235650   -0.266470   -7.624640
  C      3.862850    0.384480   -6.563850
  C      3.502030    0.016450   -5.261690
  C      3.916710    0.539630   -3.931610
  C      4.561360    1.754720   -3.741320
  C      4.632720    2.416480   -2.479760
  N      4.696890    2.996310   -1.474220
  C      5.129310    2.504960   -4.817110
  N      5.621840    3.118070   -5.673450
  C      3.322850   -0.325550   -2.924460
  F      3.564820    0.052410   -8.873970
  C      3.526120   -0.528220   -1.572590
  F      1.686750   -1.832920   -8.474030
  C     13.793290    5.088570   18.792550
  O     13.079720    6.054390   18.970680
  C     14.968140    4.679100   19.610300
  C     15.527180    5.336760   20.700930
  C     16.635280    4.754260   21.310290
  C     17.145580    3.531010   20.838560
  C     16.581000    2.872900   19.746850
  C     15.478000    3.462060   19.116000
  C     14.623060    3.009940   17.982800
  C     14.601050    1.712890   17.485900
  C     13.537250    1.218240   16.676600
  N     12.663820    0.788430   16.041190
  C     15.566430    0.727290   17.856800
  N     16.354120   -0.079580   18.139780
  C     13.693970    4.082020   17.685030
  F     18.193490    2.993140   21.460730
  C     12.834750    4.380970   16.641690
  F     17.229720    5.344110   22.346260
  C     12.745780    3.927350   15.307290
  S     11.296560    4.361880   14.376860
  C     11.930610    3.604530   12.978550
  C     13.221100    3.067220   13.183720
  C     13.662800    3.227840   14.494510
  C     11.510490    3.326080   11.640700
  C     12.538430    2.641210   10.987950
  C     13.731100    2.405880   11.903060
  S     10.108540    3.519680   10.651920
  C     10.928490    2.713190    9.303520
  C     12.217200    2.306080    9.668150
  C     10.281670    2.518800    8.018390
  C     10.989660    2.248210    6.841930
  C     10.348160    1.946180    5.589050
  C      8.963030    1.928070    5.416750
  C      8.203800    2.256390    6.595530
  C      8.848770    2.554180    7.865700
  N      6.876420    2.325520    6.656190
  S      6.469600    2.752120    8.189250
  N      7.979330    2.855420    8.827770
  C      8.326930    1.593620    4.154370
  S      6.660200    1.000810    4.088380
  C      6.777130    0.812840    2.378110
  C      8.011880    1.235360    1.869360
  C      8.891660    1.658170    2.875290
  C      5.955630    0.376630    1.290120
  C      6.676180    0.522730    0.088740
  C      8.058510    1.116020    0.350850
  S      4.350230   -0.175970    1.034310
  C      4.596210   -0.159030   -0.724110
  C      5.911500    0.230050   -1.036310
  O     12.345770    2.185670    6.854920
  O     11.175270    1.658400    4.545700
  C     13.087970    3.180990    6.121490
  C     13.690030    4.201300    7.068010
  C     11.670590    0.307630    4.488060
  C     12.308320    0.100550    3.130360
  C      9.217010    0.204130   -0.119130
  C      9.184540   -1.218070    0.434390
  C      8.112170    2.513450   -0.334000
  C      9.402160    3.307140   -0.139840
  C     13.984920    0.889750   12.095160
  C     12.759570    0.088420   12.527910
  C     14.968110    3.132550   11.308020
  C     16.278640    2.974590   12.071830
  H      1.131860   -2.390420   -5.954850
  H      4.606400    1.145010   -6.795520
  H      2.733860   -1.138970   -1.118700
  H     15.112890    6.274070   21.075210
  H     17.024560    1.931140   19.431340
  H     12.147960    5.196610   16.906180
  H     14.622080    2.880720   14.874040
  H     12.865160    1.771730    8.980910
  H      9.902160    2.019210    2.715610
  H      6.270570    0.277220   -2.063430
  H     12.432150    3.659030    5.379650
  H     13.870450    2.637270    5.570600
  H     12.907070    4.754320    7.608240
  H     14.298010    4.924330    6.499920
  H     14.336100    3.713750    7.813470
  H     10.827210   -0.387530    4.644490
  H     12.395720    0.155280    5.305350
  H     11.558180    0.179830    2.329400
  H     12.772640   -0.896050    3.074760
  H     13.089430    0.854570    2.950250
  H     10.164550    0.687420    0.168920
  H      9.208730    0.180580   -1.222210
  H      9.258220   -1.223890    1.533620
  H     10.023370   -1.809940    0.037210
  H      8.252850   -1.737100    0.159750
  H      7.250510    3.098110    0.023480
  H      7.935390    2.360620   -1.411890
  H      9.612100    3.502570    0.922520
  H      9.319180    4.282450   -0.642170
  H     10.274110    2.793100   -0.571270
  H     14.786730    0.757750   12.839300
  H     14.380410    0.496010   11.142670
  H     12.391600    0.418370   13.511100
  H     13.016710   -0.978590   12.613490
  H     11.937410    0.180170   11.801810
  H     14.714430    4.201480   11.216080
  H     15.102740    2.757960   10.278760
  H     16.193020    3.331180   13.109920
  H     17.071500    3.567170   11.590910
  H     16.618350    1.928540   12.095890

----------------------------
CARTESIAN COORDINATES (A.U.)
----------------------------
  NO LB      ZA    FRAG     MASS         X           Y           Z
   0 C     6.0000    0    12.011    4.407181   -2.293995   -6.834232
   1 O     8.0000    0    15.999    2.939412   -3.767660   -5.866617
   2 C     6.0000    0    12.011    4.780818   -1.862892   -9.583311
   3 C     6.0000    0    12.011    3.575513   -3.074112  -11.579486
   4 C     6.0000    0    12.011    4.263487   -2.374479  -14.017573
   5 C     6.0000    0    12.011    6.114492   -0.503555  -14.408481
   6 C     6.0000    0    12.011    7.299729    0.726562  -12.403879
   7 C     6.0000    0    12.011    6.617878    0.031086   -9.943153
   8 C     6.0000    0    12.011    7.401509    1.019753   -7.429666
   9 C     6.0000    0    12.011    8.619721    3.315940   -7.070070
  10 C     6.0000    0    12.011    8.754572    4.566485   -4.686067
  11 N     7.0000    0    14.007    8.875836    5.662205   -2.785872
  12 C     6.0000    0    12.011    9.692991    4.733688   -9.103019
  13 N     7.0000    0    14.007   10.623738    5.892298  -10.721267
  14 C     6.0000    0    12.011    6.279276   -0.615200   -5.526428
  15 F     9.0000    0    18.998    6.736534    0.099041  -16.769373
  16 C     6.0000    0    12.011    6.663401   -0.998191   -2.971764
  17 F     9.0000    0    18.998    3.187496   -3.463717  -16.013596
  18 C     6.0000    0    12.011   26.065541    9.616004   35.512773
  19 O     8.0000    0    15.999   24.717089   11.441139   35.849390
  20 C     6.0000    0    12.011   28.285685    8.842218   37.058096
  21 C     6.0000    0    12.011   29.342118   10.085015   39.119088
  22 C     6.0000    0    12.011   31.436123    8.984249   40.270612
  23 C     6.0000    0    12.011   32.400451    6.672642   39.379171
  24 C     6.0000    0    12.011   31.333549    5.428994   37.316139
  25 C     6.0000    0    12.011   29.249181    6.542345   36.124005
  26 C     6.0000    0    12.011   27.633579    5.687962   33.982567
  27 C     6.0000    0    12.011   27.591986    3.236893   33.043562
  28 C     6.0000    0    12.011   25.581695    2.302140   31.514207
  29 N     7.0000    0    14.007   23.931152    1.489917   30.313456
  30 C     6.0000    0    12.011   29.416290    1.374379   33.744462
  31 N     7.0000    0    14.007   30.904808   -0.150384   34.279216
  32 C     6.0000    0    12.011   25.877853    7.713900   33.419863
  33 F     9.0000    0    18.998   34.380714    5.656215   40.554902
  34 C     6.0000    0    12.011   24.254162    8.278834   31.448237
  35 F     9.0000    0    18.998   32.559452   10.098904   42.228312
  36 C     6.0000    0    12.011   24.086034    7.421616   28.926586
  37 S    16.0000    0    32.060   21.347405    8.242759   27.168328
  38 C     6.0000    0    12.011   22.545586    6.811575   24.525905
  39 C     6.0000    0    12.011   24.984258    5.796206   24.913620
  40 C     6.0000    0    12.011   25.818950    6.099734   27.390654
  41 C     6.0000    0    12.011   21.751674    6.285380   21.997735
  42 C     6.0000    0    12.011   23.694199    4.991164   20.764216
  43 C     6.0000    0    12.011   25.948019    4.546454   22.493524
  44 S    16.0000    0    32.060   19.102372    6.651231   20.129212
  45 C     6.0000    0    12.011   20.651853    5.127186   17.581105
  46 C     6.0000    0    12.011   23.087162    4.357860   18.270156
  47 C     6.0000    0    12.011   19.429540    4.759842   15.152561
  48 C     6.0000    0    12.011   20.767448    4.248501   12.929374
  49 C     6.0000    0    12.011   19.555188    3.677747   10.561774
  50 C     6.0000    0    12.011   16.937672    3.643524   10.236174
  51 C     6.0000    0    12.011   15.502935    4.263959   12.463745
  52 C     6.0000    0    12.011   16.721752    4.826701   14.864019
  53 N     7.0000    0    14.007   12.994551    4.394596   12.578376
  54 S    16.0000    0    32.060   12.225772    5.200753   15.475440
  55 N     7.0000    0    14.007   15.078748    5.395962   16.682068
  56 C     6.0000    0    12.011   15.735617    3.011505    7.850622
  57 S    16.0000    0    32.060   12.585954    1.891257    7.725919
  58 C     6.0000    0    12.011   12.806920    1.536045    4.493977
  59 C     6.0000    0    12.011   15.140259    2.334492    3.532578
  60 C     6.0000    0    12.011   16.802802    3.133487    5.433511
  61 C     6.0000    0    12.011   11.254510    0.711728    2.437973
  62 C     6.0000    0    12.011   12.616152    0.987817    0.167694
  63 C     6.0000    0    12.011   15.228377    2.108972    0.663010
  64 S    16.0000    0    32.060    8.220743   -0.332535    1.954563
  65 C     6.0000    0    12.011    8.685578   -0.300523   -1.368370
  66 C     6.0000    0    12.011   11.171116    0.434731   -1.958342
  67 O     8.0000    0    15.999   23.330124    4.130318   12.953921
  68 O     8.0000    0    15.999   21.118200    3.133922    8.590128
  69 C     6.0000    0    12.011   24.732679    6.011200   11.567940
  70 C     6.0000    0    12.011   25.870407    7.939306   13.356603
  71 C     6.0000    0    12.011   22.054219    0.581336    8.481204
  72 C     6.0000    0    12.011   23.259354    0.190012    5.915523
  73 C     6.0000    0    12.011   17.417625    0.385750   -0.225123
  74 C     6.0000    0    12.011   17.356265   -2.301819    0.820878
  75 C     6.0000    0    12.011   15.329780    4.749732   -0.631169
  76 C     6.0000    0    12.011   17.767507    6.249589   -0.264259
  77 C     6.0000    0    12.011   26.427669    1.681384   22.856540
  78 C     6.0000    0    12.011   24.112093    0.167090   23.674319
  79 C     6.0000    0    12.011   28.285629    5.919662   21.369061
  80 C     6.0000    0    12.011   30.762171    5.621160   22.812453
  81 H     1.0000    0     1.008    2.138905   -4.517239  -11.253036
  82 H     1.0000    0     1.008    8.704834    2.163755  -12.841672
  83 H     1.0000    0     1.008    5.166247   -2.152341   -2.114037
  84 H     1.0000    0     1.008   28.559223   11.856274   39.826375
  85 H     1.0000    0     1.008   32.171756    3.649326   36.719911
  86 H     1.0000    0     1.008   22.956317    9.820170   31.948050
  87 H     1.0000    0     1.008   27.631727    5.443772   28.107862
  88 H     1.0000    0     1.008   24.311629    3.348084   16.971460
  89 H     1.0000    0     1.008   18.712371    3.815754    5.131759
  90 H     1.0000    0     1.008   11.849660    0.523870   -3.899318
  91 H     1.0000    0     1.008   23.493359    6.914565   10.166065
  92 H     1.0000    0     1.008   26.211352    4.983718   10.526908
  93 H     1.0000    0     1.008   24.390827    8.984363   14.377490
  94 H     1.0000    0     1.008   27.019323    9.305635   12.283069
  95 H     1.0000    0     1.008   27.091303    7.017970   14.765318
  96 H     1.0000    0     1.008   20.460462   -0.732326    8.776814
  97 H     1.0000    0     1.008   23.424516    0.293437   10.025659
  98 H     1.0000    0     1.008   21.841795    0.339829    4.401928
  99 H     1.0000    0     1.008   24.136792   -1.693289    5.810454
 100 H     1.0000    0     1.008   24.735438    1.614903    5.575165
 101 H     1.0000    0     1.008   19.208216    1.299036    0.319213
 102 H     1.0000    0     1.008   17.401978    0.341247   -2.309642
 103 H     1.0000    0     1.008   17.495500   -2.312817    2.898122
 104 H     1.0000    0     1.008   18.941424   -3.420291    0.070317
 105 H     1.0000    0     1.008   15.595626   -3.282643    0.301884
 106 H     1.0000    0     1.008   13.701478    5.854579    0.044371
 107 H     1.0000    0     1.008   14.995714    4.460925   -2.668085
 108 H     1.0000    0     1.008   18.164237    6.618898    1.743310
 109 H     1.0000    0     1.008   17.610698    8.092658   -1.213525
 110 H     1.0000    0     1.008   19.415254    5.278194   -1.079544
 111 H     1.0000    0     1.008   27.942870    1.431940   24.262761
 112 H     1.0000    0     1.008   27.175037    0.937323   21.056595
 113 H     1.0000    0     1.008   23.416730    0.790605   25.532279
 114 H     1.0000    0     1.008   24.598017   -1.849267   23.836042
 115 H     1.0000    0     1.008   22.558436    0.340472   22.302189
 116 H     1.0000    0     1.008   27.806243    7.939647   21.195319
 117 H     1.0000    0     1.008   28.540042    5.211789   19.424041
 118 H     1.0000    0     1.008   30.600373    6.295018   24.774158
 119 H     1.0000    0     1.008   32.260460    6.740974   21.903646
 120 H     1.0000    0     1.008   31.404130    3.644412   22.857919

--------------------------------
INTERNAL COORDINATES (ANGSTROEM)
--------------------------------
 C      0   0   0     0.000000000000     0.00000000     0.00000000
 O      1   0   0     1.213918537053     0.00000000     0.00000000
 C      1   2   0     1.485743604327   126.64075249     0.00000000
 C      3   1   2     1.390490677351   127.73523333   358.75581083
 C      4   3   1     1.390745975691   117.51382230   180.86902911
 C      5   4   3     1.407987891354   120.37087950   359.95025583
 C      6   5   4     1.393696942165   121.98353254   359.34480701
 C      7   6   5     1.400449148988   117.97099530     0.67644999
 C      8   7   6     1.488216926795   131.82352455   183.26144714
 C      9   8   7     1.388606357000   124.01794341    15.49784687
 C     10   9   8     1.426377292584   123.39439131   162.38918677
 N     11  10   9     1.162510778187   177.69430301   204.13023098
 C     10   9   8     1.429248538289   122.72850319   347.19325533
 N     13  10   9     1.162672726351   178.22848678   229.86055636
 C      9   8   7     1.454495532650   107.21641110   185.94625263
 F      6   5   4     1.330737687225   118.58822302   179.44733355
 C     15   9   8     1.382008074759   134.79057845   165.11997578
 F      5   4   3     1.331204715511   120.58695449   179.84237663
 C     12  11  10    22.312866492239   148.75172291   231.43610564
 O     19  12  11     1.213968992273    88.18047802   180.77781311
 C     19  12  11     1.488842928552   142.63580666    18.80032093
 C     21  19  12     1.390868863013   128.15662897   154.13309002
 C     22  21  19     1.392304373907   117.72670331   180.01146573
 C     23  22  21     1.406867387283   120.37763648   359.02119628
 C     24  23  22     1.394162857273   121.74323504     0.87672048
 C     25  24  23     1.400603522807   118.23228303     0.05884069
 C     26  25  24     1.489790971244   131.82638030   182.66224194
 C     27  26  25     1.389148211171   124.36995781    14.43884535
 C     28  27  26     1.425242278527   122.61523902   162.02006878
 N     29  28  27     1.162481169353   178.19768098   238.30817631
 C     28  27  26     1.428612163745   122.72361243   348.75573390
 N     31  28  27     1.162571465932   179.03571635   226.68732713
 C     27  26  25     1.449562253717   107.43471299   184.66777747
 F     24  23  22     1.332109234973   118.67261990   181.09529027
 C     33  27  26     1.384264594108   135.42972630   166.31075080
 F     23  22  21     1.332109521398   120.68150250   178.96539868
 C     35  33  27     1.412200455070   132.99428176   342.25572368
 S     37  35  33     1.776162975124   117.89183024   169.24802215
 C     38  37  35     1.711978177752    90.99984721   176.87821315
 C     39  38  37     1.412855691534   112.82470688   358.27770821
 C     40  39  38     1.392504254392   112.49203169     2.46403198
 C     39  38  37     1.429642556515   137.87338821   176.45916066
 C     42  39  38     1.397064824194   108.45075563   180.50184667
 C     43  42  39     1.521600555304   111.81106878     0.80047627
 S     42  39  38     1.726450303629   138.82830812   356.69756089
 C     45  42  39     1.772265974001    90.51694282   182.05887050
 C     43  42  39     1.399061424599   112.90767145   179.26743736
 C     46  45  42     1.451799814506   121.89013768   180.59721643
 C     48  46  45     1.399473801041   122.99961053   161.15310588
 C     49  48  46     1.439601564774   123.14382679   174.71198176
 C     50  49  48     1.395922769712   123.52545685     1.74015376
 C     51  50  49     1.440050868442   114.78116536     0.83044415
 C     48  46  45     1.441446631166   122.23337968   339.39515590
 N     52  51  50     1.330562383693   125.10853973   178.65173578
 S     54  52  51     1.642486845001   107.64628006   180.82085257
 N     53  48  46     1.331258853905   125.32585787     5.06190740
 C     51  50  49     1.452612569442   123.00884594   181.36621439
 S     57  51  50     1.770244974319   121.45250533   157.08808971
 C     58  57  51     1.724537276692    90.55179495   182.48597963
 C     59  58  57     1.400698852502   112.77406563   357.59010187
 C     57  51  50     1.399690080625   127.36277910   338.17664120
 C     59  58  57     1.431385222154   138.42694535   179.84529511
 C     62  59  58     1.408492604489   108.85131046   177.88839411
 C     60  59  58     1.523905841120   111.42460041   182.61928554
 S     62  59  58     1.717007477008   138.41200153     2.30924097
 C     17  15   9     1.414677410083   131.27510761   344.32262046
 C     63  62  59     1.391450533544   112.74896100   185.21577624
 O     49  48  46     1.357613466271   120.41107521   358.48082037
 O     50  49  48     1.362170144659   116.12624501   182.27050671
 C     68  49  48     1.442027152068   118.51962295   245.61991502
 C     70  68  49     1.516380179935   110.56694947   104.34659557
 C     69  50  49     1.439876336669   115.95922676    81.85355213
 C     72  69  50     1.514242704886   108.00273765   167.90115982
 C     64  60  59     1.547432332123   111.82034361   238.09498170
 C     74  64  60     1.526463734027   115.02312128    57.96261074
 C     64  60  59     1.557147880903   111.65570089   112.13763256
 C     76  64  60     1.526995783164   116.08142286    68.65834941
 C     44  43  42     1.549185973116   110.75408615   118.23451395
 C     78  44  43     1.526723601016   114.66542261   308.18416776
 C     44  43  42     1.553163104957   108.75395572   241.74270168
 C     80  44  43     1.525072443722   116.36368872   181.77191365
 H      4   3   1     1.091315206437   121.45591480     1.02483993
 H      7   6   5     1.088551088512   118.14673430   180.42097077
 H     17  15   9     1.098502436137   112.31105505   168.70242013
 H     22  21  19     1.090995764703   121.50759711     0.38509887
 H     25  24  23     1.087751778348   118.07905816   179.89167275
 H     35  33  27     1.098591859518   111.52561644   168.16005410
 H     41  40  39     1.088463795310   124.81927153   179.39236856
 H     47  43  42     1.085210072613   125.32796900   180.18331511
 H     61  57  51     1.084876875042   121.71260056   357.68982995
 H     67  63  62     1.089096767142   124.90637328   180.06544137
 H     70  68  49     1.099522032340   109.64867689   341.08964964
 H     70  68  49     1.100629901874   106.23094409   225.17974119
 H     71  70  68     1.100320832712   111.23054236   297.00436029
 H     71  70  68     1.102333120885   109.79370475   177.01003662
 H     71  70  68     1.100373599738   110.96860266    57.17564925
 H     72  69  50     1.104086769643   108.79696527    47.01060002
 H     72  69  50     1.103171330075   109.02709900   289.36670860
 H     73  72  69     1.100241909582   110.83823837   295.52036181
 H     73  72  69     1.100861472848   110.28691794   175.44001442
 H     73  72  69     1.100508339178   110.60765201    55.76408539
 H     74  64  60     1.101986423782   107.81246770   295.62184870
 H     74  64  60     1.103362427899   108.09526396   181.33988973
 H     75  74  64     1.101711944067   111.42593923   298.64502727
 H     75  74  64     1.100771465019   110.72676507   178.63246865
 H     75  74  64     1.101301741849   111.51002020    58.93705344
 H     76  64  60     1.100943786758   107.86674978   304.59981871
 H     76  64  60     1.102930201509   107.45445904   191.41228698
 H     77  76  64     1.100398317929   112.10103689   300.63618673
 H     77  76  64     1.100204847017   109.81578870   181.43289256
 H     77  76  64     1.100302580657   112.13445218    62.42314821
 H     78  44  43     1.101847364974   108.67584249   185.62056959
 H     78  44  43     1.103938733717   107.50358260    71.05656058
 H     79  78  44     1.100423327406   111.36192015   297.39771500
 H     79  78  44     1.100888394025   110.07707986   178.37972450
 H     79  78  44     1.100720826595   111.63887299    58.63699477
 H     80  44  43     1.102459908976   107.59700432    58.04753325
 H     80  44  43     1.103548391599   107.19808866   304.15574915
 H     81  80  44     1.100962333870   111.83031723   301.67673378
 H     81  80  44     1.100482658837   110.14951643   182.73150452
 H     81  80  44     1.100091982609   112.01202689    63.26039398

---------------------------
INTERNAL COORDINATES (A.U.)
---------------------------
 C      0   0   0     0.000000000000     0.00000000     0.00000000
 O      1   0   0     2.293973583920     0.00000000     0.00000000
 C      1   2   0     2.807648517404   126.64075249     0.00000000
 C      3   1   2     2.627646571964   127.73523333   358.75581083
 C      4   3   1     2.628129015909   117.51382230   180.86902911
 C      5   4   3     2.660711514537   120.37087950   359.95025583
 C      6   5   4     2.633705534375   121.98353254   359.34480701
 C      7   6   5     2.646465356070   117.97099530     0.67644999
 C      8   7   6     2.812322419509   131.82352455   183.26144714
 C      9   8   7     2.624085722552   124.01794341    15.49784687
 C     10   9   8     2.695462446628   123.39439131   162.38918677
 N     11  10   9     2.196826998504   177.69430301   204.13023098
 C     10   9   8     2.700888314673   122.72850319   347.19325533
 N     13  10   9     2.197133036183   178.22848678   229.86055636
 C      9   8   7     2.748598219721   107.21641110   185.94625263
 F      6   5   4     2.514729784942   118.58822302   179.44733355
 C     15   9   8     2.611616776163   134.79057845   165.11997578
 F      5   4   3     2.515612340501   120.58695449   179.84237663
 C     12  11  10    42.165206933081   148.75172291   231.43610564
 O     19  12  11     2.294068930468    88.18047802   180.77781311
 C     19  12  11     2.813505391389   142.63580666    18.80032093
 C     21  19  12     2.628361239294   128.15662897   154.13309002
 C     22  21  19     2.631073961745   117.72670331   180.01146573
 C     23  22  21     2.658594068710   120.37763648   359.02119628
 C     24  23  22     2.634585986331   121.74323504     0.87672048
 C     25  24  23     2.646757080311   118.23228303     0.05884069
 C     26  25  24     2.815296932440   131.82638030   182.66224194
 C     27  26  25     2.625109678540   124.36995781    14.43884535
 C     28  27  26     2.693317580901   122.61523902   162.02006878
 N     29  28  27     2.196771045917   178.19768098   238.30817631
 C     28  27  26     2.699685741067   122.72361243   348.75573390
 N     31  28  27     2.196941681723   179.03571635   226.68732713
 C     27  26  25     2.739275673594   107.43471299   184.66777747
 F     24  23  22     2.517321634566   118.67261990   181.09529027
 C     33  27  26     2.615880979747   135.42972630   166.31075080
 F     23  22  21     2.517322175832   120.68150250   178.96539868
 C     35  33  27     2.668672106281   132.99428176   342.25572368
 S     37  35  33     3.356461592194   117.89183024   169.24802215
 C     38  37  35     3.235169903201    90.99984721   176.87821315
 C     39  38  37     2.669910323751   112.82470688   358.27770821
 C     40  39  38     2.631451681121   112.49203169     2.46403198
 C     39  38  37     2.701632901213   137.87338821   176.45916066
 C     42  39  38     2.640069909061   108.45075563   180.50184667
 C     43  42  39     2.875408334746   111.81106878     0.80047627
 S     42  39  38     3.262518257684   138.82830812   356.69756089
 C     45  42  39     3.349097327328    90.51694282   182.05887050
 C     43  42  39     2.643842937025   112.90767145   179.26743736
 C     46  45  42     2.743504050694   121.89013768   180.59721643
 C     48  46  45     2.644622215565   122.99961053   161.15310588
 C     49  48  46     2.720452699388   123.14382679   174.71198176
 C     50  49  48     2.637911738860   123.52545685     1.74015376
 C     51  50  49     2.721301760270   114.78116536     0.83044415
 C     48  46  45     2.723939369567   122.23337968   339.39515590
 N     52  51  50     2.514398509278   125.10853973   178.65173578
 S     54  52  51     3.103850315619   107.64628006   180.82085257
 N     53  48  46     2.515714647238   125.32585787     5.06190740
 C     51  50  49     2.745039934936   123.00884594   181.36621439
 S     57  51  50     3.345278191412   121.45250533   157.08808971
 C     58  57  51     3.258903160686    90.55179495   182.48597963
 C     59  58  57     2.646937227326   112.77406563   357.59010187
 C     57  51  50     2.645030924747   127.36277910   338.17664120
 C     59  58  57     2.704926062013   138.42694535   179.84529511
 C     62  59  58     2.661665284138   108.85131046   177.88839411
 C     60  59  58     2.879764693600   111.42460041   182.61928554
 S     62  59  58     3.244673901439   138.41200153     2.30924097
 C     17  15   9     2.673352872902   131.27510761   344.32262046
 C     63  62  59     2.629460437297   112.74896100   185.21577624
 O     49  48  46     2.565517646975   120.41107521   358.48082037
 O     50  49  48     2.574128521209   116.12624501   182.27050671
 C     68  49  48     2.725036395086   118.51962295   245.61991502
 C     70  68  49     2.865543254984   110.56694947   104.34659557
 C     69  50  49     2.720971943019   115.95922676    81.85355213
 C     72  69  50     2.861504012522   108.00273765   167.90115982
 C     64  60  59     2.924223318488   111.82034361   238.09498170
 C     74  64  60     2.884598410674   115.02312128    57.96261074
 C     64  60  59     2.942583044922   111.65570089   112.13763256
 C     76  64  60     2.885603837832   116.08142286    68.65834941
 C     44  43  42     2.927537219702   110.75408615   118.23451395
 C     78  44  43     2.885089488115   114.66542261   308.18416776
 C     44  43  42     2.935052909680   108.75395572   241.74270168
 C     80  44  43     2.881969253024   116.36368872   181.77191365
 H      4   3   1     2.062286865949   121.45591480     1.02483993
 H      7   6   5     2.057063440069   118.14673430   180.42097077
 H     17  15   9     2.075868761745   112.31105505   168.70242013
 H     22  21  19     2.061683208557   121.50759711     0.38509887
 H     25  24  23     2.055552962764   118.07905816   179.89167275
 H     35  33  27     2.076037747445   111.52561644   168.16005410
 H     41  40  39     2.056898479824   124.81927153   179.39236856
 H     47  43  42     2.050749835011   125.32796900   180.18331511
 H     61  57  51     2.050120182853   121.71260056   357.68982995
 H     67  63  62     2.058094623238   124.90637328   180.06544137
 H     70  68  49     2.077795519334   109.64867689   341.08964964
 H     70  68  49     2.079889089347   106.23094409   225.17974119
 H     71  70  68     2.079305033274   111.23054236   297.00436029
 H     71  70  68     2.083107706823   109.79370475   177.01003662
 H     71  70  68     2.079404748502   110.96860266    57.17564925
 H     72  69  50     2.086421622710   108.79696527    47.01060002
 H     72  69  50     2.084691692636   109.02709900   289.36670860
 H     73  72  69     2.079155890172   110.83823837   295.52036181
 H     73  72  69     2.080326695067   110.28691794   175.44001442
 H     73  72  69     2.079659369143   110.60765201    55.76408539
 H     74  64  60     2.082452544247   107.81246770   295.62184870
 H     74  64  60     2.085052815188   108.09526396   181.33988973
 H     75  74  64     2.081933852757   111.42593923   298.64502727
 H     75  74  64     2.080156604921   110.72676507   178.63246865
 H     75  74  64     2.081158682905   111.51002020    58.93705344
 H     76  64  60     2.080482245814   107.86674978   304.59981871
 H     76  64  60     2.084236025682   107.45445904   191.41228698
 H     77  76  64     2.079451459113   112.10103689   300.63618673
 H     77  76  64     2.079085852075   109.81578870   181.43289256
 H     77  76  64     2.079270541888   112.13445218    62.42314821
 H     78  44  43     2.082189761184   108.67584249   185.62056959
 H     78  44  43     2.086141875352   107.50358260    71.05656058
 H     79  78  44     2.079498720176   111.36192015   297.39771500
 H     79  78  44     2.080377568721   110.07707986   178.37972450
 H     79  78  44     2.080060912168   111.63887299    58.63699477
 H     80  44  43     2.083347301593   107.59700432    58.04753325
 H     80  44  43     2.085404235651   107.19808866   304.15574915
 H     81  80  44     2.080517294777   111.83031723   301.67673378
 H     81  80  44     2.079610840331   110.14951643   182.73150452
 H     81  80  44     2.078872569253   112.01202689    63.26039398

---------------------
BASIS SET INFORMATION
---------------------
There are 6 groups of distinct atoms

 Group   1 Type C   : 7s4p1d contracted to 3s2p1d pattern {511/31/1}
 Group   2 Type O   : 7s4p1d contracted to 3s2p1d pattern {511/31/1}
 Group   3 Type N   : 7s4p1d contracted to 3s2p1d pattern {511/31/1}
 Group   4 Type F   : 7s4p1d contracted to 3s2p1d pattern {511/31/1}
 Group   5 Type S   : 10s7p1d contracted to 4s3p1d pattern {5311/511/1}
 Group   6 Type H   : 4s1p contracted to 2s1p pattern {31/1}

Atom   0C    basis set group =>   1
Atom   1O    basis set group =>   2
Atom   2C    basis set group =>   1
Atom   3C    basis set group =>   1
Atom   4C    basis set group =>   1
Atom   5C    basis set group =>   1
Atom   6C    basis set group =>   1
Atom   7C    basis set group =>   1
Atom   8C    basis set group =>   1
Atom   9C    basis set group =>   1
Atom  10C    basis set group =>   1
Atom  11N    basis set group =>   3
Atom  12C    basis set group =>   1
Atom  13N    basis set group =>   3
Atom  14C    basis set group =>   1
Atom  15F    basis set group =>   4
Atom  16C    basis set group =>   1
Atom  17F    basis set group =>   4
Atom  18C    basis set group =>   1
Atom  19O    basis set group =>   2
Atom  20C    basis set group =>   1
Atom  21C    basis set group =>   1
Atom  22C    basis set group =>   1
Atom  23C    basis set group =>   1
Atom  24C    basis set group =>   1
Atom  25C    basis set group =>   1
Atom  26C    basis set group =>   1
Atom  27C    basis set group =>   1
Atom  28C    basis set group =>   1
Atom  29N    basis set group =>   3
Atom  30C    basis set group =>   1
Atom  31N    basis set group =>   3
Atom  32C    basis set group =>   1
Atom  33F    basis set group =>   4
Atom  34C    basis set group =>   1
Atom  35F    basis set group =>   4
Atom  36C    basis set group =>   1
Atom  37S    basis set group =>   5
Atom  38C    basis set group =>   1
Atom  39C    basis set group =>   1
Atom  40C    basis set group =>   1
Atom  41C    basis set group =>   1
Atom  42C    basis set group =>   1
Atom  43C    basis set group =>   1
Atom  44S    basis set group =>   5
Atom  45C    basis set group =>   1
Atom  46C    basis set group =>   1
Atom  47C    basis set group =>   1
Atom  48C    basis set group =>   1
Atom  49C    basis set group =>   1
Atom  50C    basis set group =>   1
Atom  51C    basis set group =>   1
Atom  52C    basis set group =>   1
Atom  53N    basis set group =>   3
Atom  54S    basis set group =>   5
Atom  55N    basis set group =>   3
Atom  56C    basis set group =>   1
Atom  57S    basis set group =>   5
Atom  58C    basis set group =>   1
Atom  59C    basis set group =>   1
Atom  60C    basis set group =>   1
Atom  61C    basis set group =>   1
Atom  62C    basis set group =>   1
Atom  63C    basis set group =>   1
Atom  64S    basis set group =>   5
Atom  65C    basis set group =>   1
Atom  66C    basis set group =>   1
Atom  67O    basis set group =>   2
Atom  68O    basis set group =>   2
Atom  69C    basis set group =>   1
Atom  70C    basis set group =>   1
Atom  71C    basis set group =>   1
Atom  72C    basis set group =>   1
Atom  73C    basis set group =>   1
Atom  74C    basis set group =>   1
Atom  75C    basis set group =>   1
Atom  76C    basis set group =>   1
Atom  77C    basis set group =>   1
Atom  78C    basis set group =>   1
Atom  79C    basis set group =>   1
Atom  80C    basis set group =>   1
Atom  81H    basis set group =>   6
Atom  82H    basis set group =>   6
Atom  83H    basis set group =>   6
Atom  84H    basis set group =>   6
Atom  85H    basis set group =>   6
Atom  86H    basis set group =>   6
Atom  87H    basis set group =>   6
Atom  88H    basis set group =>   6
Atom  89H    basis set group =>   6
Atom  90H    basis set group =>   6
Atom  91H    basis set group =>   6
Atom  92H    basis set group =>   6
Atom  93H    basis set group =>   6
Atom  94H    basis set group =>   6
Atom  95H    basis set group =>   6
Atom  96H    basis set group =>   6
Atom  97H    basis set group =>   6
Atom  98H    basis set group =>   6
Atom  99H    basis set group =>   6
Atom 100H    basis set group =>   6
Atom 101H    basis set group =>   6
Atom 102H    basis set group =>   6
Atom 103H    basis set group =>   6
Atom 104H    basis set group =>   6
Atom 105H    basis set group =>   6
Atom 106H    basis set group =>   6
Atom 107H    basis set group =>   6
Atom 108H    basis set group =>   6
Atom 109H    basis set group =>   6
Atom 110H    basis set group =>   6
Atom 111H    basis set group =>   6
Atom 112H    basis set group =>   6
Atom 113H    basis set group =>   6
Atom 114H    basis set group =>   6
Atom 115H    basis set group =>   6
Atom 116H    basis set group =>   6
Atom 117H    basis set group =>   6
Atom 118H    basis set group =>   6
Atom 119H    basis set group =>   6
Atom 120H    basis set group =>   6
------------------------------------------------------------------------------
                           ORCA GTO INTEGRAL CALCULATION
------------------------------------------------------------------------------

                         BASIS SET STATISTICS AND STARTUP INFO

 # of primitive gaussian shells          ... 1202
 # of primitive gaussian functions       ... 2284
 # of contracted shells                  ...  616
 # of contracted basis functions         ... 1354
 Highest angular momentum                ...    2
 Maximum contraction depth               ...    5
 Integral package used                   ... LIBINT
 Integral threshhold            Thresh   ...  2.500e-11
 Primitive cut-off              TCut     ...  2.500e-12


------------------------------ INTEGRAL EVALUATION ----------------------------


 * One electron integrals 
 Pre-screening matrix                    ... done
 Shell pair data                         ... done (   0.022 sec)

-------------------------------------------------------------------------------
                                 ORCA SCF
-------------------------------------------------------------------------------

------------
SCF SETTINGS
------------
Hamiltonian:
 Ab initio Hamiltonian  Method          .... Hartree-Fock(GTOs)


General Settings:
 Integral files         IntName         .... BCDT-4F
 Hartree-Fock type      HFTyp           .... RHF
 Total Charge           Charge          ....    0
 Multiplicity           Mult            ....    1
 Number of Electrons    NEL             ....  602
 Basis Dimension        Dim             .... 1354
 Nuclear Repulsion      ENuc            ....  13109.5421435776 Eh

Convergence Acceleration:
 DIIS                   CNVDIIS         .... on
   Start iteration      DIISMaxIt       ....    12
   Startup error        DIISStart       ....  0.200000
   # of expansion vecs  DIISMaxEq       ....     5
   Bias factor          DIISBfac        ....   1.050
   Max. coefficient     DIISMaxC        ....  10.000
 Newton-Raphson         CNVNR           .... off
 SOSCF                  CNVSOSCF        .... on
   Start iteration      SOSCFMaxIt      ....   150
   Startup grad/error   SOSCFStart      ....  0.003300
 Level Shifting         CNVShift        .... on
   Level shift para.    LevelShift      ....    0.2500
   Turn off err/grad.   ShiftErr        ....    0.0010
 Zerner damping         CNVZerner       .... off
 Static damping         CNVDamp         .... on
   Fraction old density DampFac         ....    0.7000
   Max. Damping (<1)    DampMax         ....    0.9800
   Min. Damping (>=0)   DampMin         ....    0.0000
   Turn off err/grad.   DampErr         ....    0.1000
 Fernandez-Rico         CNVRico         .... off

SCF Procedure:
 Maximum # iterations   MaxIter         ....   125
 SCF integral mode      SCFMode         .... Direct
   Integral package                     .... LIBINT
 Reset frequency        DirectResetFreq ....    20
 Integral Threshold     Thresh          ....  2.500e-11 Eh
 Primitive CutOff       TCut            ....  2.500e-12 Eh

Convergence Tolerance:
 Convergence Check Mode ConvCheckMode   .... Total+1el-Energy
 Convergence forced     ConvForced      .... 1
 Energy Change          TolE            ....  1.000e-08 Eh
 1-El. energy change                    ....  1.000e-05 Eh
 Orbital Gradient       TolG            ....  1.000e-05
 Orbital Rotation angle TolX            ....  1.000e-05
 DIIS Error             TolErr          ....  5.000e-07


Diagonalization of the overlap matrix:
Smallest eigenvalue                        ... 1.272e-04
Time for diagonalization                   ...    0.468 sec
Threshold for overlap eigenvalues          ... 1.000e-08
Number of eigenvalues below threshold      ... 0
Time for construction of square roots      ...    0.202 sec
Total time needed                          ...    0.675 sec

-------------------
DFT GRID GENERATION
-------------------

General Integration Accuracy     IntAcc      ...  4.340
Radial Grid Type                 RadialGrid  ... Gauss-Chebyshev
Angular Grid (max. acc.)         AngularGrid ... Lebedev-110
Angular grid pruning method      GridPruning ... 3 (G Style)
Weight generation scheme         WeightScheme... Becke
Basis function cutoff            BFCut       ...    1.0000e-11
Integration weight cutoff        WCut        ...    1.0000e-14
Grids for H and He will be reduced by one unit

# of grid points (after initial pruning)     ... 167498 (   0.3 sec)
# of grid points (after weights+screening)   ... 145722 (   9.5 sec)
nearest neighbour list constructed           ...    0.0 sec
Grid point re-assignment to atoms done       ...    0.0 sec
Grid point division into batches done        ...    0.1 sec
Reduced shell lists constructed in    2.6 sec

Total number of grid points                  ...   145722
Total number of batches                      ...     2344
Average number of points per batch           ...       62
Average number of grid points per atom       ...     1204
Average number of shells per batch           ...   115.86 (18.81%)
Average number of basis functions per batch  ...   236.00 (17.43%)
Average number of large shells per batch     ...    68.58 (59.19%)
Average number of large basis fcns per batch ...   141.82 (60.09%)
Maximum spatial batch extension              ...  30.57, 20.50, 22.06 au
Average spatial batch extension              ...   3.35,  3.40,  3.07 au

Time for grid setup =   12.366 sec

------------------------------
INITIAL GUESS: MODEL POTENTIAL
------------------------------
Loading Hartree-Fock densities                     ... done
Calculating cut-offs                               ... done
Setting up the integral package                    ... done
Initializing the effective Hamiltonian             ... done
Starting the Coulomb interaction                   ... done (  12.4 sec)
Reading the grid                                   ... done
Mapping shells                                     ... done
Starting the XC term evaluation                    ... done (   2.6 sec)
Transforming the Hamiltonian                       ... done (   0.2 sec)
Diagonalizing the Hamiltonian                      ... done (   0.5 sec)
Back transforming the eigenvectors                 ... done (   0.1 sec)
Now organizing SCF variables                       ... done
                      ------------------
                      INITIAL GUESS DONE (  28.4 sec)
                      ------------------
--------------
SCF ITERATIONS
--------------
ITER       Energy         Delta-E        Max-DP      RMS-DP      [F,P]     Damp
               ***  Starting incremental Fock matrix formation  ***
  0  -5376.5348362726   0.000000000000 0.14237424  0.00122796  0.2284889 0.7000
  1  -5377.4579387189  -0.923102446272 0.09633138  0.00094061  0.1346191 0.7000
                               ***Turning on DIIS***
  2  -5378.0022737515  -0.544335032668 0.18497193  0.00215635  0.0751622 0.0000
  3  -5374.3705616994   3.631712052167 0.08191412  0.00058666  0.0516704 0.0000
  4  -5379.4418941429  -5.071332443578 0.01250096  0.00020230  0.0137978 0.0000
  5  -5379.2989628337   0.142931309259 0.00899011  0.00009983  0.0091739 0.0000
  6  -5379.0948697119   0.204093121807 0.00745274  0.00006242  0.0037170 0.0000
  7  -5379.1828584803  -0.087988768479 0.00624257  0.00004020  0.0027264 0.0000
                      *** Initiating the SOSCF procedure ***
                           *** Shutting down DIIS ***
                      *** Re-Reading the Fockian *** 
                      *** Removing any level shift *** 
ITER      Energy       Delta-E        Grad      Rot      Max-DP    RMS-DP
  8  -5379.16748480   0.0153736759  0.003223  0.003223  0.005296  0.000031
               *** Restarting incremental Fock matrix formation ***
  9  -5379.17186978  -0.0043849777  0.001244  0.005257  0.003362  0.000017
 10  -5379.17199386  -0.0001240732  0.000543  0.006503  0.004640  0.000028
 11  -5379.17205557  -0.0000617186  0.000247  0.000687  0.000572  0.000006
 12  -5379.17206300  -0.0000074290  0.000124  0.000554  0.000257  0.000002
 13  -5379.17206492  -0.0000019130  0.000033  0.000145  0.000148  0.000001
 14  -5379.17206512  -0.0000002078  0.000024  0.000086  0.000116  0.000001
 15  -5379.17206520  -0.0000000753  0.000009  0.000065  0.000052  0.000000
 16  -5379.17206522  -0.0000000181  0.000004  0.000040  0.000025  0.000000
 17  -5379.17206522  -0.0000000050  0.000003  0.000027  0.000014  0.000000
                  ***Gradient check signals convergence***
              ***Rediagonalizing the Fockian in SOSCF/NRSCF***

               *****************************************************
               *                     SUCCESS                       *
               *           SCF CONVERGED AFTER  18 CYCLES          *
               *****************************************************


----------------
TOTAL SCF ENERGY
----------------

Total Energy       :        -5379.17206522 Eh         -146374.71344 eV

Components:
Nuclear Repulsion  :        13109.54214358 Eh          356728.77747 eV
Electronic Energy  :       -18488.71420879 Eh         -503103.49091 eV
One Electron Energy:       -33503.51970109 Eh         -911677.11984 eV
Two Electron Energy:        15014.80549230 Eh          408573.62893 eV

Virial components:
Potential Energy   :       -10742.54279758 Eh         -292319.45076 eV
Kinetic Energy     :         5363.37073236 Eh          145944.73731 eV
Virial Ratio       :            2.00294616


---------------
SCF CONVERGENCE
---------------

  Last Energy change         ...    6.0900e-09  Tolerance :   1.0000e-08
  Last MAX-Density change    ...    6.4528e-06  Tolerance :   1.0000e-07
  Last RMS-Density change    ...    4.9408e-08  Tolerance :   5.0000e-09
  Last Orbital Gradient      ...    1.2581e-06  Tolerance :   1.0000e-05
  Last Orbital Rotation      ...    1.2467e-05  Tolerance :   1.0000e-05

             **** THE GBW FILE WAS UPDATED (BCDT-4F.gbw) ****
             **** DENSITY FILE WAS UPDATED (BCDT-4F.scfp) ****
             **** ENERGY FILE WAS UPDATED (BCDT-4F.en.tmp) ****
             **** THE GBW FILE WAS UPDATED (BCDT-4F.gbw) ****
             **** DENSITY FILE WAS UPDATED (BCDT-4F.scfp) ****
----------------
ORBITAL ENERGIES
----------------

  NO   OCC          E(Eh)            E(eV) 
   0   2.0000     -92.040369     -2504.5458 
   1   2.0000     -91.987189     -2503.0987 
   2   2.0000     -91.985327     -2503.0480 
   3   2.0000     -91.978796     -2502.8703 
   4   2.0000     -91.976835     -2502.8169 
   5   2.0000     -26.336058      -716.6406 
   6   2.0000     -26.334304      -716.5928 
   7   2.0000     -26.333729      -716.5772 
   8   2.0000     -26.331929      -716.5282 
   9   2.0000     -20.605103      -560.6934 
  10   2.0000     -20.604859      -560.6867 
  11   2.0000     -20.565105      -559.6050 
  12   2.0000     -20.562097      -559.5231 
  13   2.0000     -15.633082      -425.3978 
  14   2.0000     -15.631720      -425.3607 
  15   2.0000     -15.596343      -424.3981 
  16   2.0000     -15.595263      -424.3687 
  17   2.0000     -15.592733      -424.2998 
  18   2.0000     -15.592679      -424.2984 
  19   2.0000     -11.378346      -309.6205 
  20   2.0000     -11.377239      -309.5904 
  21   2.0000     -11.375812      -309.5516 
  22   2.0000     -11.374616      -309.5190 
  23   2.0000     -11.365078      -309.2595 
  24   2.0000     -11.362334      -309.1848 
  25   2.0000     -11.353087      -308.9332 
  26   2.0000     -11.351471      -308.8892 
  27   2.0000     -11.349556      -308.8371 
  28   2.0000     -11.347649      -308.7852 
  29   2.0000     -11.328995      -308.2776 
  30   2.0000     -11.328085      -308.2529 
  31   2.0000     -11.328076      -308.2526 
  32   2.0000     -11.325566      -308.1843 
  33   2.0000     -11.323655      -308.1323 
  34   2.0000     -11.322204      -308.0928 
  35   2.0000     -11.320308      -308.0413 
  36   2.0000     -11.319914      -308.0305 
  37   2.0000     -11.319626      -308.0227 
  38   2.0000     -11.319117      -308.0088 
  39   2.0000     -11.311115      -307.7911 
  40   2.0000     -11.310679      -307.7792 
  41   2.0000     -11.308983      -307.7331 
  42   2.0000     -11.308134      -307.7100 
  43   2.0000     -11.305627      -307.6417 
  44   2.0000     -11.305580      -307.6405 
  45   2.0000     -11.305252      -307.6315 
  46   2.0000     -11.303663      -307.5883 
  47   2.0000     -11.302962      -307.5692 
  48   2.0000     -11.300350      -307.4982 
  49   2.0000     -11.299799      -307.4831 
  50   2.0000     -11.297578      -307.4227 
  51   2.0000     -11.297073      -307.4090 
  52   2.0000     -11.296753      -307.4003 
  53   2.0000     -11.296398      -307.3906 
  54   2.0000     -11.296301      -307.3880 
  55   2.0000     -11.294606      -307.3418 
  56   2.0000     -11.294589      -307.3414 
  57   2.0000     -11.294389      -307.3360 
  58   2.0000     -11.290759      -307.2372 
  59   2.0000     -11.289705      -307.2085 
  60   2.0000     -11.287513      -307.1488 
  61   2.0000     -11.280024      -306.9451 
  62   2.0000     -11.278384      -306.9004 
  63   2.0000     -11.277270      -306.8701 
  64   2.0000     -11.272259      -306.7338 
  65   2.0000     -11.271077      -306.7016 
  66   2.0000     -11.269801      -306.6669 
  67   2.0000     -11.268996      -306.6450 
  68   2.0000     -11.267309      -306.5991 
  69   2.0000     -11.267091      -306.5931 
  70   2.0000     -11.266332      -306.5725 
  71   2.0000     -11.256454      -306.3037 
  72   2.0000     -11.256082      -306.2936 
  73   2.0000     -11.255584      -306.2800 
  74   2.0000     -11.251225      -306.1614 
  75   2.0000     -11.248389      -306.0842 
  76   2.0000     -11.247744      -306.0667 
  77   2.0000     -11.243566      -305.9530 
  78   2.0000     -11.240930      -305.8813 
  79   2.0000     -11.237922      -305.7994 
  80   2.0000     -11.220901      -305.3362 
  81   2.0000      -9.071016      -246.8349 
  82   2.0000      -9.021895      -245.4983 
  83   2.0000      -9.020241      -245.4532 
  84   2.0000      -9.012692      -245.2478 
  85   2.0000      -9.010579      -245.1903 
  86   2.0000      -6.758140      -183.8983 
  87   2.0000      -6.756402      -183.8510 
  88   2.0000      -6.754814      -183.8078 
  89   2.0000      -6.709325      -182.5700 
  90   2.0000      -6.708312      -182.5424 
  91   2.0000      -6.707672      -182.5250 
  92   2.0000      -6.706624      -182.4965 
  93   2.0000      -6.706480      -182.4926 
  94   2.0000      -6.704830      -182.4477 
  95   2.0000      -6.700008      -182.3165 
  96   2.0000      -6.698980      -182.2885 
  97   2.0000      -6.697889      -182.2588 
  98   2.0000      -6.697136      -182.2383 
  99   2.0000      -6.696862      -182.2309 
 100   2.0000      -6.694999      -182.1802 
 101   2.0000      -1.648331       -44.8534 
 102   2.0000      -1.645466       -44.7754 
 103   2.0000      -1.632976       -44.4355 
 104   2.0000      -1.630080       -44.3567 
 105   2.0000      -1.442136       -39.2425 
 106   2.0000      -1.409826       -38.3633 
 107   2.0000      -1.394485       -37.9459 
 108   2.0000      -1.391574       -37.8667 
 109   2.0000      -1.359157       -36.9846 
 110   2.0000      -1.245220       -33.8842 
 111   2.0000      -1.242230       -33.8028 
 112   2.0000      -1.237827       -33.6830 
 113   2.0000      -1.236563       -33.6486 
 114   2.0000      -1.223207       -33.2851 
 115   2.0000      -1.220828       -33.2204 
 116   2.0000      -1.220149       -33.2019 
 117   2.0000      -1.218285       -33.1512 
 118   2.0000      -1.213179       -33.0123 
 119   2.0000      -1.193250       -32.4700 
 120   2.0000      -1.185208       -32.2511 
 121   2.0000      -1.169972       -31.8366 
 122   2.0000      -1.162388       -31.6302 
 123   2.0000      -1.158972       -31.5372 
 124   2.0000      -1.132745       -30.8236 
 125   2.0000      -1.125051       -30.6142 
 126   2.0000      -1.098987       -29.9050 
 127   2.0000      -1.095964       -29.8227 
 128   2.0000      -1.089975       -29.6597 
 129   2.0000      -1.084438       -29.5090 
 130   2.0000      -1.078142       -29.3377 
 131   2.0000      -1.066917       -29.0323 
 132   2.0000      -1.064097       -28.9556 
 133   2.0000      -1.063713       -28.9451 
 134   2.0000      -1.050723       -28.5916 
 135   2.0000      -1.047428       -28.5020 
 136   2.0000      -1.027441       -27.9581 
 137   2.0000      -1.026261       -27.9260 
 138   2.0000      -1.025260       -27.8987 
 139   2.0000      -1.021807       -27.8048 
 140   2.0000      -1.017470       -27.6868 
 141   2.0000      -1.011844       -27.5337 
 142   2.0000      -1.007085       -27.4042 
 143   2.0000      -1.005322       -27.3562 
 144   2.0000      -0.991229       -26.9727 
 145   2.0000      -0.980963       -26.6933 
 146   2.0000      -0.954335       -25.9688 
 147   2.0000      -0.937074       -25.4991 
 148   2.0000      -0.933489       -25.4015 
 149   2.0000      -0.929909       -25.3041 
 150   2.0000      -0.927238       -25.2314 
 151   2.0000      -0.924176       -25.1481 
 152   2.0000      -0.906006       -24.6537 
 153   2.0000      -0.892161       -24.2769 
 154   2.0000      -0.886285       -24.1170 
 155   2.0000      -0.884111       -24.0579 
 156   2.0000      -0.868889       -23.6437 
 157   2.0000      -0.857569       -23.3356 
 158   2.0000      -0.854022       -23.2391 
 159   2.0000      -0.851235       -23.1633 
 160   2.0000      -0.845956       -23.0196 
 161   2.0000      -0.842975       -22.9385 
 162   2.0000      -0.835057       -22.7231 
 163   2.0000      -0.827488       -22.5171 
 164   2.0000      -0.827320       -22.5125 
 165   2.0000      -0.822174       -22.3725 
 166   2.0000      -0.819868       -22.3097 
 167   2.0000      -0.811412       -22.0796 
 168   2.0000      -0.803480       -21.8638 
 169   2.0000      -0.788323       -21.4514 
 170   2.0000      -0.783140       -21.3103 
 171   2.0000      -0.780141       -21.2287 
 172   2.0000      -0.779604       -21.2141 
 173   2.0000      -0.772030       -21.0080 
 174   2.0000      -0.769088       -20.9279 
 175   2.0000      -0.765406       -20.8277 
 176   2.0000      -0.757674       -20.6174 
 177   2.0000      -0.754339       -20.5266 
 178   2.0000      -0.750297       -20.4166 
 179   2.0000      -0.748384       -20.3646 
 180   2.0000      -0.743198       -20.2234 
 181   2.0000      -0.742843       -20.2138 
 182   2.0000      -0.741587       -20.1796 
 183   2.0000      -0.740597       -20.1527 
 184   2.0000      -0.738943       -20.1077 
 185   2.0000      -0.729820       -19.8594 
 186   2.0000      -0.726960       -19.7816 
 187   2.0000      -0.718077       -19.5399 
 188   2.0000      -0.715399       -19.4670 
 189   2.0000      -0.712808       -19.3965 
 190   2.0000      -0.703439       -19.1415 
 191   2.0000      -0.698805       -19.0154 
 192   2.0000      -0.697471       -18.9791 
 193   2.0000      -0.694174       -18.8894 
 194   2.0000      -0.691848       -18.8261 
 195   2.0000      -0.681138       -18.5347 
 196   2.0000      -0.677488       -18.4354 
 197   2.0000      -0.671169       -18.2634 
 198   2.0000      -0.664650       -18.0860 
 199   2.0000      -0.662632       -18.0311 
 200   2.0000      -0.659273       -17.9397 
 201   2.0000      -0.658751       -17.9255 
 202   2.0000      -0.657644       -17.8954 
 203   2.0000      -0.654604       -17.8127 
 204   2.0000      -0.651279       -17.7222 
 205   2.0000      -0.646962       -17.6047 
 206   2.0000      -0.643170       -17.5015 
 207   2.0000      -0.640985       -17.4421 
 208   2.0000      -0.640555       -17.4304 
 209   2.0000      -0.638150       -17.3649 
 210   2.0000      -0.631610       -17.1870 
 211   2.0000      -0.629262       -17.1231 
 212   2.0000      -0.626651       -17.0520 
 213   2.0000      -0.625769       -17.0280 
 214   2.0000      -0.622598       -16.9417 
 215   2.0000      -0.621623       -16.9152 
 216   2.0000      -0.619187       -16.8489 
 217   2.0000      -0.616914       -16.7871 
 218   2.0000      -0.616560       -16.7775 
 219   2.0000      -0.614567       -16.7232 
 220   2.0000      -0.612452       -16.6657 
 221   2.0000      -0.605841       -16.4858 
 222   2.0000      -0.599793       -16.3212 
 223   2.0000      -0.594118       -16.1668 
 224   2.0000      -0.593312       -16.1448 
 225   2.0000      -0.588589       -16.0163 
 226   2.0000      -0.585864       -15.9422 
 227   2.0000      -0.582431       -15.8487 
 228   2.0000      -0.579796       -15.7771 
 229   2.0000      -0.578990       -15.7551 
 230   2.0000      -0.578504       -15.7419 
 231   2.0000      -0.576550       -15.6887 
 232   2.0000      -0.573277       -15.5997 
 233   2.0000      -0.572278       -15.5725 
 234   2.0000      -0.569769       -15.5042 
 235   2.0000      -0.569021       -15.4838 
 236   2.0000      -0.567740       -15.4490 
 237   2.0000      -0.564125       -15.3506 
 238   2.0000      -0.563167       -15.3245 
 239   2.0000      -0.562697       -15.3118 
 240   2.0000      -0.562255       -15.2997 
 241   2.0000      -0.558847       -15.2070 
 242   2.0000      -0.557694       -15.1756 
 243   2.0000      -0.555498       -15.1159 
 244   2.0000      -0.554434       -15.0869 
 245   2.0000      -0.549109       -14.9420 
 246   2.0000      -0.547143       -14.8885 
 247   2.0000      -0.545292       -14.8381 
 248   2.0000      -0.543972       -14.8022 
 249   2.0000      -0.540881       -14.7181 
 250   2.0000      -0.536679       -14.6038 
 251   2.0000      -0.535320       -14.5668 
 252   2.0000      -0.531116       -14.4524 
 253   2.0000      -0.528232       -14.3739 
 254   2.0000      -0.527992       -14.3674 
 255   2.0000      -0.525783       -14.3073 
 256   2.0000      -0.521267       -14.1844 
 257   2.0000      -0.518172       -14.1002 
 258   2.0000      -0.516361       -14.0509 
 259   2.0000      -0.515501       -14.0275 
 260   2.0000      -0.509698       -13.8696 
 261   2.0000      -0.507415       -13.8075 
 262   2.0000      -0.504741       -13.7347 
 263   2.0000      -0.501839       -13.6557 
 264   2.0000      -0.499120       -13.5818 
 265   2.0000      -0.497668       -13.5422 
 266   2.0000      -0.495693       -13.4885 
 267   2.0000      -0.494890       -13.4666 
 268   2.0000      -0.492778       -13.4092 
 269   2.0000      -0.490410       -13.3447 
 270   2.0000      -0.489455       -13.3187 
 271   2.0000      -0.484672       -13.1886 
 272   2.0000      -0.480686       -13.0801 
 273   2.0000      -0.478176       -13.0118 
 274   2.0000      -0.476509       -12.9665 
 275   2.0000      -0.476220       -12.9586 
 276   2.0000      -0.474577       -12.9139 
 277   2.0000      -0.472827       -12.8663 
 278   2.0000      -0.469341       -12.7714 
 279   2.0000      -0.467854       -12.7310 
 280   2.0000      -0.465779       -12.6745 
 281   2.0000      -0.464726       -12.6458 
 282   2.0000      -0.460260       -12.5243 
 283   2.0000      -0.448557       -12.2059 
 284   2.0000      -0.445116       -12.1122 
 285   2.0000      -0.422941       -11.5088 
 286   2.0000      -0.416481       -11.3330 
 287   2.0000      -0.393927       -10.7193 
 288   2.0000      -0.388294       -10.5660 
 289   2.0000      -0.384944       -10.4749 
 290   2.0000      -0.377796       -10.2803 
 291   2.0000      -0.376335       -10.2406 
 292   2.0000      -0.371073       -10.0974 
 293   2.0000      -0.366373        -9.9695 
 294   2.0000      -0.364135        -9.9086 
 295   2.0000      -0.359768        -9.7898 
 296   2.0000      -0.354053        -9.6343 
 297   2.0000      -0.349690        -9.5156 
 298   2.0000      -0.328596        -8.9415 
 299   2.0000      -0.283607        -7.7173 
 300   2.0000      -0.259246        -7.0544 
 301   0.0000      -0.036328        -0.9885 
 302   0.0000      -0.021474        -0.5843 
 303   0.0000      -0.001612        -0.0439 
 304   0.0000       0.017780         0.4838 
 305   0.0000       0.022094         0.6012 
 306   0.0000       0.056521         1.5380 
 307   0.0000       0.060842         1.6556 
 308   0.0000       0.089597         2.4381 
 309   0.0000       0.098116         2.6699 
 310   0.0000       0.120666         3.2835 
 311   0.0000       0.124691         3.3930 
 312   0.0000       0.139222         3.7884 
 313   0.0000       0.141182         3.8418 
 314   0.0000       0.142890         3.8882 
 315   0.0000       0.143469         3.9040 
 316   0.0000       0.148526         4.0416 
 317   0.0000       0.148823         4.0497 
 318   0.0000       0.153447         4.1755 
 319   0.0000       0.156401         4.2559 
 320   0.0000       0.158431         4.3111 
 321   0.0000       0.162459         4.4207 
 322   0.0000       0.165236         4.4963 
 323   0.0000       0.167933         4.5697 
 324   0.0000       0.174758         4.7554 
 325   0.0000       0.176018         4.7897 
 326   0.0000       0.180915         4.9229 
 327   0.0000       0.183683         4.9983 
 328   0.0000       0.186910         5.0861 
 329   0.0000       0.190048         5.1715 
 330   0.0000       0.193834         5.2745 
 331   0.0000       0.193937         5.2773 
 332   0.0000       0.195857         5.3295 
 333   0.0000       0.196863         5.3569 
 334   0.0000       0.198983         5.4146 
 335   0.0000       0.205172         5.5830 
 336   0.0000       0.206011         5.6059 
 337   0.0000       0.207299         5.6409 
 338   0.0000       0.208549         5.6749 
 339   0.0000       0.210588         5.7304 
 340   0.0000       0.214646         5.8408 
 341   0.0000       0.215908         5.8752 
 342   0.0000       0.218567         5.9475 
 343   0.0000       0.220787         6.0079 
 344   0.0000       0.221511         6.0276 
 345   0.0000       0.223394         6.0789 
 346   0.0000       0.225110         6.1256 
 347   0.0000       0.231818         6.3081 
 348   0.0000       0.232021         6.3136 
 349   0.0000       0.235915         6.4196 
 350   0.0000       0.238762         6.4970 
 351   0.0000       0.241736         6.5780 
 352   0.0000       0.244210         6.6453 
 353   0.0000       0.244659         6.6575 
 354   0.0000       0.245736         6.6868 
 355   0.0000       0.249272         6.7830 
 356   0.0000       0.250742         6.8230 
 357   0.0000       0.252746         6.8776 
 358   0.0000       0.254876         6.9355 
 359   0.0000       0.256250         6.9729 
 360   0.0000       0.259040         7.0488 
 361   0.0000       0.260289         7.0828 
 362   0.0000       0.261017         7.1026 
 363   0.0000       0.262844         7.1524 
 364   0.0000       0.263181         7.1615 
 365   0.0000       0.264598         7.2001 
 366   0.0000       0.268077         7.2947 
 367   0.0000       0.268200         7.2981 
 368   0.0000       0.269252         7.3267 
 369   0.0000       0.274360         7.4657 
 370   0.0000       0.275175         7.4879 
 371   0.0000       0.277240         7.5441 
 372   0.0000       0.281299         7.6545 
 373   0.0000       0.285316         7.7638 
 374   0.0000       0.287328         7.8186 
 375   0.0000       0.291112         7.9216 
 376   0.0000       0.294048         8.0015 
 377   0.0000       0.301324         8.1995 
 378   0.0000       0.306810         8.3487 
 379   0.0000       0.310098         8.4382 
 380   0.0000       0.316410         8.6100 
 381   0.0000       0.321974         8.7614 
 382   0.0000       0.327540         8.9128 
 383   0.0000       0.329701         8.9716 
 384   0.0000       0.331945         9.0327 
 385   0.0000       0.332923         9.0593 
 386   0.0000       0.335366         9.1258 
 387   0.0000       0.337415         9.1815 
 388   0.0000       0.338518         9.2115 
 389   0.0000       0.343040         9.3346 
 390   0.0000       0.345322         9.3967 
 391   0.0000       0.347686         9.4610 
 392   0.0000       0.350299         9.5321 
 393   0.0000       0.354365         9.6428 
 394   0.0000       0.357359         9.7242 
 395   0.0000       0.357572         9.7300 
 396   0.0000       0.363016         9.8782 
 397   0.0000       0.364705         9.9241 
 398   0.0000       0.366398         9.9702 
 399   0.0000       0.368035        10.0147 
 400   0.0000       0.370060        10.0699 
 401   0.0000       0.373330        10.1588 
 402   0.0000       0.375118        10.2075 
 403   0.0000       0.378241        10.2925 
 404   0.0000       0.385199        10.4818 
 405   0.0000       0.386054        10.5051 
 406   0.0000       0.387221        10.5368 
 407   0.0000       0.389403        10.5962 
 408   0.0000       0.392070        10.6688 
 409   0.0000       0.395048        10.7498 
 410   0.0000       0.397821        10.8253 
 411   0.0000       0.398585        10.8460 
 412   0.0000       0.400145        10.8885 
 413   0.0000       0.404796        11.0151 
 414   0.0000       0.408920        11.1273 
 415   0.0000       0.417354        11.3568 
 416   0.0000       0.418657        11.3922 
 417   0.0000       0.419607        11.4181 
 418   0.0000       0.420042        11.4299 
 419   0.0000       0.423229        11.5166 
 420   0.0000       0.423315        11.5190 
 421   0.0000       0.425052        11.5662 
 422   0.0000       0.425951        11.5907 
 423   0.0000       0.427973        11.6457 
 424   0.0000       0.431609        11.7447 
 425   0.0000       0.437451        11.9037 
 426   0.0000       0.441740        12.0204 
 427   0.0000       0.443697        12.0736 
 428   0.0000       0.446648        12.1539 
 429   0.0000       0.448019        12.1912 
 430   0.0000       0.448852        12.2139 
 431   0.0000       0.450358        12.2549 
 432   0.0000       0.455657        12.3991 
 433   0.0000       0.456417        12.4197 
 434   0.0000       0.459461        12.5026 
 435   0.0000       0.463530        12.6133 
 436   0.0000       0.465551        12.6683 
 437   0.0000       0.466977        12.7071 
 438   0.0000       0.469782        12.7834 
 439   0.0000       0.471028        12.8173 
 440   0.0000       0.476471        12.9654 
 441   0.0000       0.481741        13.1088 
 442   0.0000       0.484076        13.1724 
 443   0.0000       0.486612        13.2414 
 444   0.0000       0.489518        13.3205 
 445   0.0000       0.490882        13.3576 
 446   0.0000       0.493325        13.4241 
 447   0.0000       0.499503        13.5922 
 448   0.0000       0.500409        13.6168 
 449   0.0000       0.507419        13.8076 
 450   0.0000       0.510296        13.8859 
 451   0.0000       0.513527        13.9738 
 452   0.0000       0.517048        14.0696 
 453   0.0000       0.522119        14.2076 
 454   0.0000       0.523343        14.2409 
 455   0.0000       0.529941        14.4204 
 456   0.0000       0.530663        14.4401 
 457   0.0000       0.539495        14.6804 
 458   0.0000       0.543422        14.7873 
 459   0.0000       0.545557        14.8454 
 460   0.0000       0.551254        15.0004 
 461   0.0000       0.551832        15.0161 
[...]
   Time for J+K (Direct):  1921.596
   Time for Sigma-Completion:    15.724
   Size of expansion space: 18
   Lowest Energy          :     0.089864492429
   Maximum Energy change  :     0.000923340229 (vector 2)
   Maximum residual norm  :     0.000104982429

                       ****Iteration    4****
   Time for densities:     1.781
   Using LibInt in JK Direct
   Time for J+K (Direct):  1929.810
   Time for Sigma-Completion:    14.696
   Size of expansion space: 21
   Lowest Energy          :     0.089820512546
   Maximum Energy change  :     0.000202200492 (vector 2)
   Maximum residual norm  :     0.000022954715

                       ****Iteration    5****
   Time for densities:     1.779
   Using LibInt in JK Direct
   Time for J+K (Direct):  1934.595
   Time for Sigma-Completion:    20.026
   Size of expansion space: 24
   Lowest Energy          :     0.089813079197
   Maximum Energy change  :     0.000054854480 (vector 2)
   Maximum residual norm  :     0.000007153914

                       ****Iteration    6****
   Time for densities:     1.885
   Using LibInt in JK Direct
   Time for J+K (Direct):  1960.191
   Time for Sigma-Completion:    19.793
   Size of expansion space: 27
   Lowest Energy          :     0.089811944903
   Maximum Energy change  :     0.000015929769 (vector 2)
   Maximum residual norm  :     0.000002240556

                       ****Iteration    7****
   Time for densities:     1.779
   Using LibInt in JK Direct
   Time for J+K (Direct):  1943.739
   Time for Sigma-Completion:    19.484
   Size of expansion space: 30
   Lowest Energy          :     0.089811727499
   Maximum Energy change  :     0.000005168563 (vector 2)
   Maximum residual norm  :     0.000000793846
   Rebuilding the expansion space

                       ****Iteration    8****
   Time for densities:     3.546
   Using LibInt in JK Direct
   Time for J+K (Direct):  3388.056
   Time for Sigma-Completion:    37.024
   Size of expansion space: 6
   Lowest Energy          :     0.089811692597
   Maximum Energy change  :     0.000001082957 (vector 2)
   Maximum residual norm  :     0.000000162470

      *** CONVERGENCE OF RESIDUAL NORM REACHED ***

Storing the converged CI vectors               ... BCDT-4F.cis1

                 *** DAVIDSON DONE ***

Total time for solving the CIS problem: 23136.875sec

-----------------------------
CIS-EXCITED STATES (SINGLETS)
-----------------------------

the weight of the individual excitations are printed if larger than 1.0e-02

STATE  1:  E=   0.089812 au      2.444 eV    19711.4 cm**-1
   298a -> 303a  :     0.051323 (c= -0.22654494)
   299a -> 302a  :     0.209472 (c=  0.45768090)
   299a -> 304a  :     0.012334 (c=  0.11105781)
   300a -> 301a  :     0.617340 (c= -0.78570995)

STATE  2:  E=   0.105419 au      2.869 eV    23136.9 cm**-1
   298a -> 302a  :     0.081259 (c=  0.28506018)
   299a -> 301a  :     0.370503 (c= -0.60868965)
   299a -> 303a  :     0.039497 (c= -0.19873789)
   300a -> 302a  :     0.364091 (c=  0.60339965)
   300a -> 304a  :     0.011963 (c=  0.10937759)

STATE  3:  E=   0.130762 au      3.558 eV    28698.8 cm**-1
   297a -> 302a  :     0.018652 (c=  0.13657282)
   298a -> 301a  :     0.178399 (c= -0.42237340)
   298a -> 305a  :     0.012758 (c=  0.11295199)
   299a -> 302a  :     0.160079 (c=  0.40009847)
   299a -> 309a  :     0.012477 (c= -0.11169948)
   300a -> 301a  :     0.030355 (c=  0.17422742)
   300a -> 303a  :     0.423960 (c= -0.65112237)
   300a -> 305a  :     0.020669 (c= -0.14376742)


----------------------
CIS-EXCITATION SPECTRA
----------------------

Center of mass = ( 18.2195,  3.5922, 12.8710)
Calculating the Dipole integrals                  ... done
Transforming integrals                            ... done
Calculating the Linear Momentum integrals         ... done
Transforming integrals                            ... done
Calculating angular momentum integrals            ... done
Transforming integrals                            ... done

-----------------------------------------------------------------------------
         ABSORPTION SPECTRUM VIA TRANSITION ELECTRIC DIPOLE MOMENTS
-----------------------------------------------------------------------------
State   Energy    Wavelength  fosc         T2        TX        TY        TZ  
        (cm-1)      (nm)                 (au**2)    (au)      (au)      (au) 
-----------------------------------------------------------------------------
   1   19711.4    507.3   3.123923387  52.17455   3.12482   0.58739   6.48576
   2   23136.9    432.2   0.017185620   0.24453  -0.32629  -0.14253   0.34315
   3   28698.8    348.4   0.128005640   1.46839  -0.24866  -1.16636  -0.21487

-----------------------------------------------------------------------------
         ABSORPTION SPECTRUM VIA TRANSITION VELOCITY DIPOLE MOMENTS
-----------------------------------------------------------------------------
State   Energy    Wavelength   fosc        P2         PX        PY        PZ  
        (cm-1)      (nm)                 (au**2)     (au)      (au)      (au) 
-----------------------------------------------------------------------------
   1   19711.4    507.3   2.000880002   0.26955  -0.22575  -0.04038  -0.46579
   2   23136.9    432.2   0.009287218   0.00147   0.02811   0.00015  -0.02604
   3   28698.8    348.4   0.002958265   0.00058   0.00348  -0.02005   0.01288

-------------------------------------------------------------------
                             CD SPECTRUM
-------------------------------------------------------------------
State  Energy     Wavelength     R         MX        MY        MZ   
       (cm-1)       (nm)     (1e40*cgs)   (au)      (au)      (au)  
-------------------------------------------------------------------
   1   19711.4    507.3    535.61303   0.23145   0.62626   0.00694
   2   23136.9    432.2    -200.61924   0.93210  -0.15307  -0.41736
   3   28698.8    348.4    -86.86702   0.04056   0.11622   0.17970

Total run time:    23250.881 sec

           *** ORCA-CIS/TD-DFT FINISHED WITHOUT ERROR ***

-----------------------
CIS/TD-DFT TOTAL ENERGY
-----------------------

    E(SCF)  =  -5379.172065216 Eh
    DE(CIS) =      0.089811693 Eh (Root  1)
    ----------------------------- ---------
    E(tot)  =  -5379.082253523 Eh


-------------------------   --------------------
FINAL SINGLE POINT ENERGY     -5379.082253523468
-------------------------   --------------------

------------------------------------------------------------------------------
                         ORCA SCF GRADIENT CALCULATION
------------------------------------------------------------------------------


------------
CIS GRADIENT
------------

Reference wavefunction             ... RHF
State of interest                  ... 1
Basis dimension                    ... 1354
DFT-XC contribution needed         ... NO
RI-approximation                   ... OFF
CIS-vectors being read from        ... BCDT-4F.cis

 => Number of Vectors found: 3
 => Orbital Window: 101...300 -> 301...1353

Reading the CIS file                     ... done
Norm of the CI vector                    ... 1.000000000
Making the CIS (pseudo)densities         ... done
Making operators G(D) and Q(T)           ... done
Transforming the Fock operators          ... done
Making the frozen-core relaxed density   ... done
Constructing the G(H) operator           ... done
Transforming the G(H) operator           ... done
Calculating the CIS Lagrangian           ... done
Solving the Z-vector equations           ... done
Finalizing the relaxed density           ... done
Storing the relaxed density              ... done
Constructing the G(Z) operator           ... done
Transforming the G(Z) operator           ... done
Making the W-matrix                      ... done
Finalizing the W-matrix                  ... done
Transforming the W-matrix                ... done
Nuclear repulsion gradient               ... done
One-Electron gradient                    ... done
Prescreening matrices                    ... done
Two-Electron gradient (4-center)         ... done
                 ---------------------------
                 EXCITED STATE GRADIENT DONE
                 ---------------------------


------------------
CARTESIAN GRADIENT
------------------

   1   C   :    0.023195315    0.025037754   -0.021462718
   2   O   :   -0.030898262   -0.031672832    0.019854993
   3   C   :   -0.005499346   -0.006248023    0.008789100
   4   C   :   -0.001209928   -0.001500351    0.002715930
   5   C   :   -0.002703290   -0.002706137    0.006531886
   6   C   :    0.003588562    0.003998436    0.005169431
   7   C   :    0.001730292    0.002797373    0.003724867
   8   C   :    0.010381183    0.011693169    0.009960141
   9   C   :   -0.005678000   -0.016533661   -0.007626427
  10   C   :    0.008610694    0.018961725    0.002983534
  11   C   :   -0.002675813   -0.039786390   -0.065363507
  12   N   :    0.005602515    0.033298731    0.063081539
  13   C   :   -0.032171871   -0.040314839    0.055713196
  14   N   :    0.029834797    0.036747267   -0.052804861
  15   C   :    0.003529763    0.005670469    0.000975977
  16   F   :    0.005385854    0.005247574   -0.019113862
  17   C   :    0.002636507    0.003510849    0.000931343
  18   F   :   -0.009479572   -0.009369552   -0.016660774
  19   C   :    0.025801255   -0.030546625   -0.001096331
  20   O   :   -0.029353373    0.038212940    0.006396467
  21   C   :   -0.008550818    0.007742221   -0.002171480
  22   C   :   -0.002266944    0.001888828   -0.001645483
  23   C   :   -0.005932352    0.003593977   -0.002467835
  24   C   :   -0.002267405   -0.003943558   -0.005513820
  25   C   :   -0.002576092   -0.002164367   -0.002867395
  26   C   :   -0.003357249   -0.012172234   -0.012961706
  27   C   :    0.005884953    0.016907045    0.007744255
  28   C   :   -0.001498330   -0.019445584   -0.006799917
  29   C   :    0.057997552    0.029863905    0.039535672
  30   N   :   -0.053774976   -0.024371554   -0.041362957
  31   C   :   -0.051065674    0.052775489   -0.018062309
  32   N   :    0.048133743   -0.048294794    0.018128593
  33   C   :    0.000526805   -0.006489073   -0.003761847
  34   F   :    0.016737898   -0.009462612    0.010671104
  35   C   :   -0.000167599   -0.004153374   -0.002325418
  36   F   :    0.010398733    0.009963165    0.016659319
  37   C   :    0.002774505   -0.000128850    0.007850500
  38   S   :   -0.006279702    0.003137409    0.000037578
  39   C   :   -0.006352411    0.004429170    0.004091353
  40   C   :    0.011608263   -0.006075964   -0.002893091
  41   C   :    0.001075954   -0.003672739    0.001045881
  42   C   :   -0.008633543    0.003005206   -0.000829115
  43   C   :    0.011694652   -0.005625933   -0.001501699
  44   C   :   -0.004714486    0.002188379    0.000505812
  45   S   :   -0.007949838    0.002849660   -0.000555793
  46   C   :    0.000522344   -0.000435393   -0.001933176
  47   C   :    0.000403984   -0.001003701   -0.000865294
  48   C   :   -0.012793661    0.001226215    0.001231251
  49   C   :   -0.004273601    0.004034860    0.004965761
  50   C   :   -0.007894972   -0.000552432    0.000407759
  51   C   :   -0.008726848    0.001992254    0.008973267
  52   C   :    0.034877063   -0.002368819   -0.011150248
  53   C   :    0.030788698   -0.008856264   -0.019087442
  54   N   :   -0.037735478   -0.005075232   -0.023361104
  55   S   :   -0.015779037    0.002722724    0.007494491
  56   N   :   -0.005417834    0.012463757    0.042297598
  57   C   :    0.001788998    0.000150338    0.000953443
  58   S   :   -0.004987217   -0.001420435    0.007481492
  59   C   :   -0.005257683   -0.000759180    0.007746641
  60   C   :    0.009726791    0.002636912   -0.009393561
  61   C   :    0.001754661    0.000396036   -0.000751528
  62   C   :   -0.007459998   -0.004284452    0.004149060
  63   C   :    0.010120333    0.000720838   -0.008248531
  64   C   :   -0.002915705   -0.001089611    0.003824468
  65   S   :   -0.005115690   -0.001110833    0.004876095
  66   C   :   -0.004399719   -0.000737484   -0.006501041
  67   C   :    0.000164911    0.003482352   -0.001802911
  68   O   :    0.010310301   -0.009740941    0.008409588
  69   O   :    0.006363016    0.009979496   -0.013347733
  70   C   :    0.002462298    0.004687596    0.002742746
  71   C   :   -0.002352557   -0.003429874   -0.003163587
  72   C   :    0.002597112   -0.001784750   -0.005146920
  73   C   :   -0.002423752    0.000334877    0.004139680
  74   C   :   -0.004046045   -0.002871087    0.003626629
  75   C   :    0.001137781    0.006422579   -0.001888787
  76   C   :    0.005150017   -0.001152897    0.002948314
  77   C   :   -0.004993107   -0.003631255    0.000232676
  78   C   :   -0.006087888    0.002209716    0.001020112
  79   C   :    0.004725641    0.003972908   -0.003075164
  80   C   :    0.002307566   -0.002736192    0.006042757
  81   C   :   -0.005771142    0.000175113   -0.003954290
  82   H   :   -0.005705062   -0.005565070    0.001761522
  83   H   :    0.006468231    0.006773122   -0.001091024
  84   H   :   -0.007009766   -0.005756833    0.002853889
  85   H   :   -0.003404001    0.006542733    0.002686024
  86   H   :    0.002847171   -0.007662910   -0.003142031
  87   H   :   -0.005280363    0.007459983    0.002875750
  88   H   :    0.006912053   -0.002995356    0.003298861
  89   H   :    0.004878712   -0.003670281   -0.006271042
  90   H   :    0.008600937    0.002835033   -0.000985524
  91   H   :    0.001853165    0.000372963   -0.007690464
  92   H   :   -0.005271822    0.003720748   -0.006619864
  93   H   :    0.006073502   -0.004061790   -0.004911920
  94   H   :   -0.005043526    0.003187049    0.003948702
  95   H   :    0.004144402    0.004830250   -0.003684766
  96   H   :    0.003692609   -0.003668511    0.005920762
  97   H   :   -0.006891968   -0.005796385    0.001845018
  98   H   :    0.006385001   -0.002125875    0.007381996
  99   H   :   -0.006242602    0.001017582   -0.005695090
 100   H   :    0.003423467   -0.006115584   -0.000665960
 101   H   :    0.004750190    0.004881409   -0.001403266
 102   H   :    0.006062636    0.004531446    0.002734247
 103   H   :   -0.000233822    0.000485461   -0.006705682
 104   H   :    0.000320136    0.000604354    0.007688666
 105   H   :    0.004656811   -0.004045617   -0.002386360
 106   H   :   -0.006695453   -0.002985975   -0.001770070
 107   H   :   -0.006529564    0.003239931    0.002183170
 108   H   :   -0.002553604   -0.001381732   -0.006805181
 109   H   :    0.001675302    0.000565104    0.007386298
 110   H   :   -0.000092426    0.005740319   -0.003055109
 111   H   :    0.005234179   -0.003893038   -0.002512618
 112   H   :    0.005591206   -0.000437794    0.004893541
 113   H   :    0.002446870   -0.001539883   -0.005908572
 114   H   :   -0.002519093    0.003392111    0.007917859
 115   H   :    0.001583367   -0.006529944    0.000521801
 116   H   :   -0.005582310    0.001891660   -0.004772242
 117   H   :   -0.002703961    0.006627024   -0.000457558
 118   H   :   -0.000183912   -0.002519342   -0.006927206
 119   H   :   -0.001098495    0.002277216    0.006922273
 120   H   :    0.004888847    0.003467188   -0.002497032
 121   H   :    0.001710459   -0.007100203   -0.000004433

Difference to translation invariance:
           :   -0.0000000000    0.0000000000   -0.0000000004

Norm of the cartesian gradient     ...    0.2624044200
RMS gradient                       ...    0.0137726602
MAX gradient                       ...    0.0653635073

-------
TIMINGS
-------

Total CIS gradient time            ...    24893.834 sec

Fock matrix formation       ....    1896.071 sec  (  7.6%)
  Coulomb formation         ....    1896.071 sec  (100.0% of F)
Z-vector equation           ....   20880.700 sec  ( 83.9%)
One electron gradient       ....      17.413 sec  (  0.1%)
Prescreening matrices       ....       1.224 sec  (  0.0%)
Two electron gradient       ....    2094.679 sec  (  8.4%)

                            ***************************************
                            *     ORCA property calculations      *
                            ***************************************

                                    ---------------------
                                    Active property flags
                                    ---------------------
   (+) Dipole Moment


------------------------------------------------------------------------------
                       ORCA ELECTRIC PROPERTIES CALCULATION
------------------------------------------------------------------------------

Dipole Moment Calculation                       ... on
Quadrupole Moment Calculation                   ... off
Polarizability Calculation                      ... off
GBWName                                         ... BCDT-4F.gbw
Electron density file                           ... BCDT-4F.scfp
The origin for moment calculation is the CENTER OF MASS  = (18.219527,  3.592190 12.871019)

-------------
DIPOLE MOMENT
-------------
                                X             Y             Z
Electronic contribution:    -68.19609       7.98934      29.62148
Nuclear contribution   :     70.30561      -8.16145     -31.30123
                        -----------------------------------------
Total Dipole Moment    :      2.10952      -0.17210      -1.67975
                        -----------------------------------------
Magnitude (a.u.)       :      2.70208
Magnitude (Debye)      :      6.86815



--------------------
Rotational spectrum 
--------------------
 
Rotational constants in cm-1:     0.003057     0.000149     0.000147 
Rotational constants in MHz :    91.660637     4.460095     4.404462 

 Dipole components along the rotational axes: 
x,y,z [a.u.] :    -0.593174     2.635530     0.058168 
x,y,z [Debye]:    -1.507729     6.698986     0.147852 

 

                        *** CIS RELAXED DENSITY ***

------------------------------------------------------------------------------
                       ORCA ELECTRIC PROPERTIES CALCULATION
------------------------------------------------------------------------------

Dipole Moment Calculation                       ... on
Quadrupole Moment Calculation                   ... off
Polarizability Calculation                      ... off
GBWName                                         ... BCDT-4F.gbw
Electron density file                           ... BCDT-4F.cisp
The origin for moment calculation is the CENTER OF MASS  = (18.219527,  3.592190 12.871019)

-------------
DIPOLE MOMENT
-------------
                                X             Y             Z
Electronic contribution:    -67.91609       7.99655      29.65637
Nuclear contribution   :     70.30561      -8.16145     -31.30123
                        -----------------------------------------
Total Dipole Moment    :      2.38952      -0.16490      -1.64486
                        -----------------------------------------
Magnitude (a.u.)       :      2.90561
Magnitude (Debye)      :      7.38547



--------------------
Rotational spectrum 
--------------------
 
Rotational constants in cm-1:     0.003057     0.000149     0.000147 
Rotational constants in MHz :    91.660637     4.460095     4.404462 

 Dipole components along the rotational axes: 
x,y,z [a.u.] :    -0.438650     2.871734     0.057444 
x,y,z [Debye]:    -1.114961     7.299368     0.146012 

 

Timings for individual modules:

Sum of individual times         ...    57695.696 sec (= 961.595 min)
GTO integral calculation        ...        1.908 sec (=   0.032 min)   0.0 %
SCF iterations                  ...     9548.717 sec (= 159.145 min)  16.6 %
CIS module                      ...    23250.950 sec (= 387.516 min)  40.3 %
SCF Gradient evaluation         ...    24894.121 sec (= 414.902 min)  43.1 %
                             ****ORCA TERMINATED NORMALLY****
TOTAL RUN TIME: 0 days 16 hours 1 minutes 36 seconds 620 msec
