
                                 *****************
                                 * O   R   C   A *
                                 *****************

           --- An Ab Initio, DFT and Semiempirical electronic structure package ---

                  #######################################################
                  #                        -***-                        #
                  #          Department of theory and spectroscopy      #
                  #               Directorship: Frank Neese             #
                  #        Max Planck Institute fuer Kohlenforschung    #
                  #                Kaiser Wilhelm Platz 1               #
                  #                 D-45470 Muelheim/Ruhr               #
                  #                      Germany                        #
                  #                                                     #
                  #                  All rights reserved                #
                  #                        -***-                        #
                  #######################################################


                         Program Version 4.2.0 -  RELEASE  -


 With contributions from (in alphabetic order):
   Daniel Aravena         : Magnetic Suceptibility
   Michael Atanasov       : Ab Initio Ligand Field Theory (pilot matlab implementation)
   Alexander A. Auer      : GIAO ZORA, VPT2
   Ute Becker             : Parallelization
   Giovanni Bistoni       : ED, misc. LED, open-shell LED, HFLED
   Martin Brehm           : Molecular dynamics
   Dmytro Bykov           : SCF Hessian
   Vijay G. Chilkuri      : MRCI spin determinant printing, contributions to CSF-ICE
   Dipayan Datta          : RHF DLPNO-CCSD density
   Achintya Kumar Dutta   : EOM-CC, STEOM-CC
   Dmitry Ganyushin       : Spin-Orbit,Spin-Spin,Magnetic field MRCI
   Miquel Garcia          : C-PCM Hessian, Gaussian charge scheme
   Yang Guo               : DLPNO-NEVPT2, CIM, IAO-localization
   Andreas Hansen         : Spin unrestricted coupled pair/coupled cluster methods
   Benjamin Helmich-Paris : CASSCF linear response (MC-RPA)
   Lee Huntington         : MR-EOM, pCC
   Robert Izsak           : Overlap fitted RIJCOSX, COSX-SCS-MP3, EOM
   Christian Kollmar      : KDIIS, OOCD, Brueckner-CCSD(T), CCSD density
   Simone Kossmann        : Meta GGA functionals, TD-DFT gradient, OOMP2, MP2 Hessian
   Martin Krupicka        : AUTO-CI
   Lucas Lang             : DCDCAS
   Dagmar Lenk            : GEPOL surface, SMD
   Dimitrios Liakos       : Extrapolation schemes; Compound Job, initial MDCI parallelization
   Dimitrios Manganas     : Further ROCIS development; embedding schemes
   Dimitrios Pantazis     : SARC Basis sets
   Taras Petrenko         : DFT Hessian,TD-DFT gradient, ASA, ECA, R-Raman, ABS, FL, XAS/XES, NRVS
   Peter Pinski           : DLPNO-MP2, DLPNO-MP2 Gradient
   Christoph Reimann      : Effective Core Potentials
   Marius Retegan         : Local ZFS, SOC
   Christoph Riplinger    : Optimizer, TS searches, QM/MM, DLPNO-CCSD(T), (RO)-DLPNO pert. Triples
   Tobias Risthaus        : Range-separated hybrids, TD-DFT gradient, RPA, STAB
   Michael Roemelt        : Original ROCIS implementation
   Masaaki Saitow         : Open-shell DLPNO-CCSD energy and density
   Barbara Sandhoefer     : DKH picture change effects
   Avijit Sen             : IP-ROCIS
   Kantharuban Sivalingam : CASSCF convergence, NEVPT2, FIC-MRCI
   Bernardo de Souza      : ESD, SOC TD-DFT
   Georgi Stoychev        : AutoAux, RI-MP2 NMR
   Willem Van den Heuvel  : Paramagnetic NMR
   Boris Wezisla          : Elementary symmetry handling
   Frank Wennmohs         : Technical directorship


 We gratefully acknowledge several colleagues who have allowed us to
 interface, adapt or use parts of their codes:
   Stefan Grimme, W. Hujo, H. Kruse,             : VdW corrections, initial TS optimization,
                  C. Bannwarth                     DFT functionals, gCP, sTDA/sTD-DF
   Ed Valeev, F. Pavosevic, A. Kumar             : LibInt (2-el integral package), F12 methods
   Garnet Chan, S. Sharma, J. Yang, R. Olivares  : DMRG
   Ulf Ekstrom                                   : XCFun DFT Library
   Mihaly Kallay                                 : mrcc  (arbitrary order and MRCC methods)
   Andreas Klamt, Michael Diedenhofen            : otool_cosmo (COSMO solvation model)
   Jiri Pittner, Ondrej Demel                    : Mk-CCSD
   Frank Weinhold                                : gennbo (NPA and NBO analysis)
   Christopher J. Cramer and Donald G. Truhlar   : smd solvation model
   Lars Goerigk                                  : TD-DFT with DH, B97 family of functionals
   V. Asgeirsson, H. Jonsson                     : NEB implementation
   FAccTs GmbH                                   : IRC, NEB, NEB-TS, Multilevel, MM, QM/MM, CI optimization
   S Lehtola, MJT Oliveira, MAL Marques          : LibXC Library


 Your calculation uses the libint2 library for the computation of 2-el integrals
 For citations please refer to: http://libint.valeyev.net

 Your ORCA version has been built with support for libXC version: 4.2.3
 For citations please refer to: https://tddft.org/programs/libxc/

 This ORCA versions uses:
   CBLAS   interface :  Fast vector & matrix operations
   LAPACKE interface :  Fast linear algebra routines
   SCALAPACK package :  Parallel linear algebra routines


----- Orbital basis set information -----
Your calculation utilizes the basis: def2-SVP
   F. Weigend and R. Ahlrichs, Phys. Chem. Chem. Phys. 7, 3297 (2005).

================================================================================
                                        WARNINGS
                       Please study these warnings very carefully!
================================================================================

INFO   : Checking CIS options ...

WARNING: CIS/ROCIS methods need fully converged wavefunctions
  ===> : Setting SCFConvForced true
         You can overwrite this default with %scf ConvForced false 


INFO   : the flag for use of LIBINT has been found!

================================================================================
                                       INPUT FILE
================================================================================
NAME = BT6IC-HD-4Cl.inp
|  1> # ORCA input file
|  2> # BT6IC-HD-4Cl.out
|  3> ! Engrad Keepdens
|  4> %maxcore 1000
|  5> %tddft
|  6>   nroots 3 
|  7>   # nroots is the number of states to be computed
|  8>   Iroot 1
|  9>   end
| 10> * xyz 0 1
| 11>    C        2.83575         2.53510        -2.10198
| 12>    O        1.78149         2.79335        -1.56953
| 13>    C        3.42985         3.17342        -3.30068
| 14>    C        2.95013         4.22944        -4.04768
| 15>    C        3.70435         4.66947        -5.12911
| 16>    C        4.91812         4.04895        -5.44522
| 17>    C        5.39421         2.97714        -4.69831
| 18>    C        4.64527         2.53958        -3.61984
| 19>    C        4.84727         1.42712        -2.69711
| 20>    C        5.63472         0.32928        -2.93078
| 21>    C        5.49380        -0.87046        -2.19921
| 22>    N        5.34801        -1.87495        -1.66419
| 23>    C        6.61483         0.25272        -3.93762
| 24>    N        7.46955         0.15821        -4.69864
| 25>    C        3.85081         1.54975        -1.65480
| 26>    C        3.79529         1.02752        -0.39546
| 27>    C        4.84338         0.45493         0.35763
| 28>    S        6.52503         0.82726        -0.02083
| 29>    C        7.06667        -0.15868         1.28182
| 30>    C        5.98787        -0.71314         1.98203
| 31>    C        4.73098        -0.36204         1.47622
| 32>    C        3.44974        -0.83428         2.07711
| 33>    C        3.07802         0.03065         3.28473
| 34>    S        6.48009        -1.76019         3.29177
| 35>    C        8.12780        -1.46740         2.86806
| 36>    C        8.29429        -0.59215         1.78764
| 37>    N        9.61834        -0.45132         1.48946
| 38>    C        9.97976         0.28478         0.30088
| 39>    C       10.32991        -0.60248        -0.90728
| 40>    C       10.34015        -1.26287         2.35403
| 41>    C        9.40557        -1.90865         3.22333
| 42>    C        9.79132        -2.88708         4.16187
| 43>    N        9.02633        -3.57745         4.99389
| 44>    S        9.95772        -4.63863         5.78669
| 45>    N       11.36810        -4.26440         5.08485
| 46>    C       11.16625        -3.28263         4.21771
| 47>    C       12.09636        -2.60284         3.40391
| 48>    C       11.72082        -1.56288         2.51293
| 49>    N       12.86701        -1.07130         1.93090
| 50>    C       13.11528         0.16504         1.23220
| 51>    C       12.86163         1.42874         2.07324
| 52>    C       13.96737        -1.77547         2.42085
| 53>    C       13.50091        -2.78335         3.35534
| 54>    S       14.43876        -3.88935         4.14169
| 55>    C       16.46254        -1.37729         1.83393
| 56>    C       15.22488        -1.56507         2.05962
| 57>    S       17.80718        -0.36824         2.36303
| 58>    C       18.36081        -2.85995         1.28697
| 59>    C       17.65889        -1.64747         1.02409
| 60>    C       17.71014        -1.13873        -0.40129
| 61>    C       19.13893        -0.81930        -0.82536
| 62>    C       18.96691        -3.86130         1.54723
| 63>    C       11.73662        -6.51654         2.82602
| 64>    C       10.66820        -5.69106         2.22771
| 65>    C        9.32865        -5.59216         2.38304
| 66>    C        8.60488        -4.63008         1.64569
| 67>    N        8.04476        -3.82593         1.05130
| 68>    C        8.60910        -6.40891         3.28283
| 69>    N        8.03554        -7.08640         4.00712
| 70>    C       11.66789        -5.01436         1.39168
| 71>    C       11.89364        -4.04257         0.45539
| 72>    C       13.23539        -3.87836         0.08860
| 73>    C       14.25401        -4.67081         0.61958
| 74>    C       14.01121        -5.66951         1.57875
| 75>    C       12.70481        -5.80305         1.94899
| 76>    C       11.80195        -7.37789         3.80202
| 77>    O       11.85528        -8.16455         4.64346
| 78>   Cl       15.87370        -4.41740         0.11079
| 79>   Cl        3.13969         5.98256        -6.08151
| 80>    C       13.79822         1.52887         3.28867
| 81>    C       13.28562         0.82249         4.53946
| 82>    C       13.05388         2.64819         1.17021
| 83>    C        9.14989        -1.51426        -1.25970
| 84>    C        9.42254        -2.43071        -2.44681
| 85>    C       10.70652         0.30270        -2.07800
| 86>   Cl        5.84270         4.61253        -6.77834
| 87>   Cl       13.63543        -2.64668        -1.04620
| 88>    H        2.01165         4.69894        -3.79872
| 89>    H        6.33257         2.51834        -4.96567
| 90>    H        2.84630         1.15081         0.11593
| 91>    H        3.58307        -1.86706         2.40504
| 92>    H        2.65030        -0.80857         1.33721
| 93>    H        3.85435        -0.02729         4.04339
| 94>    H        2.14445        -0.31865         3.71691
| 95>    H        2.95659         1.07046         2.98978
| 96>    H       10.78613         0.98098         0.52298
| 97>    H        9.10508         0.88572         0.03601
| 98>    H       11.19224        -1.22893        -0.65392
| 99>    H       12.54359         0.19152         0.30593
|100>    H       14.17173         0.14446         0.94897
|101>    H       11.82857         1.41360         2.43990
|102>    H       17.08627        -0.24548        -0.48340
|103>    H       17.28930        -1.91093        -1.05207
|104>    H       19.55909        -0.04996        -0.18027
|105>    H       19.15514        -0.46024        -1.85098
|106>    H       19.76300        -1.70750        -0.75532
|107>    H       19.48417        -4.74991         1.75440
|108>    H       11.11536        -3.43431         0.02463
|109>    H       14.82412        -6.24711         1.98517
|110>    H       13.92292         2.58638         3.53124
|111>    H       14.78417         1.13873         3.02762
|112>    H       12.27640         1.15241         4.78029
|113>    H       13.92985         1.05859         5.38298
|114>    H       13.27561        -0.25762         4.42884
|115>    H       14.08953         2.71220         0.84415
|116>    H       12.80769         3.56023         1.70755
|117>    H       12.42132         2.59725         0.28574
|118>    H        8.27976        -0.89581        -1.48889
|119>    H        8.89364        -2.13056        -0.39469
|120>    H        9.45914        -1.86777        -3.37532
|121>    H        8.62299        -3.16226        -2.52898
|122>    H       10.36445        -2.96250        -2.32443
|123>    H        9.83576         0.85370        -2.42587
|124>    H       11.09146        -0.28636        -2.90398
|125>    H       11.47502         1.01814        -1.78960
|126> *
|127> 
|128>                          ****END OF INPUT****
================================================================================

                     *******************************
                     * Energy+Gradient Calculation *
                     *******************************

---------------------------------
CARTESIAN COORDINATES (ANGSTROEM)
---------------------------------
  C      2.835750    2.535100   -2.101980
  O      1.781490    2.793350   -1.569530
  C      3.429850    3.173420   -3.300680
  C      2.950130    4.229440   -4.047680
  C      3.704350    4.669470   -5.129110
  C      4.918120    4.048950   -5.445220
  C      5.394210    2.977140   -4.698310
  C      4.645270    2.539580   -3.619840
  C      4.847270    1.427120   -2.697110
  C      5.634720    0.329280   -2.930780
  C      5.493800   -0.870460   -2.199210
  N      5.348010   -1.874950   -1.664190
  C      6.614830    0.252720   -3.937620
  N      7.469550    0.158210   -4.698640
  C      3.850810    1.549750   -1.654800
  C      3.795290    1.027520   -0.395460
  C      4.843380    0.454930    0.357630
  S      6.525030    0.827260   -0.020830
  C      7.066670   -0.158680    1.281820
  C      5.987870   -0.713140    1.982030
  C      4.730980   -0.362040    1.476220
  C      3.449740   -0.834280    2.077110
  C      3.078020    0.030650    3.284730
  S      6.480090   -1.760190    3.291770
  C      8.127800   -1.467400    2.868060
  C      8.294290   -0.592150    1.787640
  N      9.618340   -0.451320    1.489460
  C      9.979760    0.284780    0.300880
  C     10.329910   -0.602480   -0.907280
  C     10.340150   -1.262870    2.354030
  C      9.405570   -1.908650    3.223330
  C      9.791320   -2.887080    4.161870
  N      9.026330   -3.577450    4.993890
  S      9.957720   -4.638630    5.786690
  N     11.368100   -4.264400    5.084850
  C     11.166250   -3.282630    4.217710
  C     12.096360   -2.602840    3.403910
  C     11.720820   -1.562880    2.512930
  N     12.867010   -1.071300    1.930900
  C     13.115280    0.165040    1.232200
  C     12.861630    1.428740    2.073240
  C     13.967370   -1.775470    2.420850
  C     13.500910   -2.783350    3.355340
  S     14.438760   -3.889350    4.141690
  C     16.462540   -1.377290    1.833930
  C     15.224880   -1.565070    2.059620
  S     17.807180   -0.368240    2.363030
  C     18.360810   -2.859950    1.286970
  C     17.658890   -1.647470    1.024090
  C     17.710140   -1.138730   -0.401290
  C     19.138930   -0.819300   -0.825360
  C     18.966910   -3.861300    1.547230
  C     11.736620   -6.516540    2.826020
  C     10.668200   -5.691060    2.227710
  C      9.328650   -5.592160    2.383040
  C      8.604880   -4.630080    1.645690
  N      8.044760   -3.825930    1.051300
  C      8.609100   -6.408910    3.282830
  N      8.035540   -7.086400    4.007120
  C     11.667890   -5.014360    1.391680
  C     11.893640   -4.042570    0.455390
  C     13.235390   -3.878360    0.088600
  C     14.254010   -4.670810    0.619580
  C     14.011210   -5.669510    1.578750
  C     12.704810   -5.803050    1.948990
  C     11.801950   -7.377890    3.802020
  O     11.855280   -8.164550    4.643460
  Cl    15.873700   -4.417400    0.110790
  Cl     3.139690    5.982560   -6.081510
  C     13.798220    1.528870    3.288670
  C     13.285620    0.822490    4.539460
  C     13.053880    2.648190    1.170210
  C      9.149890   -1.514260   -1.259700
  C      9.422540   -2.430710   -2.446810
  C     10.706520    0.302700   -2.078000
  Cl     5.842700    4.612530   -6.778340
  Cl    13.635430   -2.646680   -1.046200
  H      2.011650    4.698940   -3.798720
  H      6.332570    2.518340   -4.965670
  H      2.846300    1.150810    0.115930
  H      3.583070   -1.867060    2.405040
  H      2.650300   -0.808570    1.337210
  H      3.854350   -0.027290    4.043390
  H      2.144450   -0.318650    3.716910
  H      2.956590    1.070460    2.989780
  H     10.786130    0.980980    0.522980
  H      9.105080    0.885720    0.036010
  H     11.192240   -1.228930   -0.653920
  H     12.543590    0.191520    0.305930
  H     14.171730    0.144460    0.948970
  H     11.828570    1.413600    2.439900
  H     17.086270   -0.245480   -0.483400
  H     17.289300   -1.910930   -1.052070
  H     19.559090   -0.049960   -0.180270
  H     19.155140   -0.460240   -1.850980
  H     19.763000   -1.707500   -0.755320
  H     19.484170   -4.749910    1.754400
  H     11.115360   -3.434310    0.024630
  H     14.824120   -6.247110    1.985170
  H     13.922920    2.586380    3.531240
  H     14.784170    1.138730    3.027620
  H     12.276400    1.152410    4.780290
  H     13.929850    1.058590    5.382980
  H     13.275610   -0.257620    4.428840
  H     14.089530    2.712200    0.844150
  H     12.807690    3.560230    1.707550
  H     12.421320    2.597250    0.285740
  H      8.279760   -0.895810   -1.488890
  H      8.893640   -2.130560   -0.394690
  H      9.459140   -1.867770   -3.375320
  H      8.622990   -3.162260   -2.528980
  H     10.364450   -2.962500   -2.324430
  H      9.835760    0.853700   -2.425870
  H     11.091460   -0.286360   -2.903980
  H     11.475020    1.018140   -1.789600

----------------------------
CARTESIAN COORDINATES (A.U.)
----------------------------
  NO LB      ZA    FRAG     MASS         X           Y           Z
   0 C     6.0000    0    12.011    5.358791    4.790645   -3.972167
   1 O     8.0000    0    15.999    3.366528    5.278666   -2.965982
   2 C     6.0000    0    12.011    6.481477    5.996895   -6.237381
   3 C     6.0000    0    12.011    5.574938    7.992483   -7.649007
   4 C     6.0000    0    12.011    7.000207    8.824019   -9.692613
   5 C     6.0000    0    12.011    9.293900    7.651407  -10.289975
   6 C     6.0000    0    12.011   10.193580    5.625979   -8.878519
   7 C     6.0000    0    12.011    8.778288    4.799111   -6.840506
   8 C     6.0000    0    12.011    9.160013    2.696866   -5.096799
   9 C     6.0000    0    12.011   10.648078    0.622249   -5.538372
  10 C     6.0000    0    12.011   10.381777   -1.644931   -4.155905
  11 N     7.0000    0    14.007   10.106274   -3.543142   -3.144863
  12 C     6.0000    0    12.011   12.500217    0.477572   -7.441023
  13 N     7.0000    0    14.007   14.115404    0.298974   -8.879143
  14 C     6.0000    0    12.011    7.276976    2.928603   -3.127119
  15 C     6.0000    0    12.011    7.172059    1.941731   -0.747311
  16 C     6.0000    0    12.011    9.152662    0.859693    0.675823
  17 S    16.0000    0    32.060   12.330520    1.563295   -0.039363
  18 C     6.0000    0    12.011   13.354071   -0.299862    2.422289
  19 C     6.0000    0    12.011   11.315434   -1.347639    3.745494
  20 C     6.0000    0    12.011    8.940257   -0.684156    2.789652
  21 C     6.0000    0    12.011    6.519064   -1.576561    3.925169
  22 C     6.0000    0    12.011    5.816615    0.057920    6.207240
  23 S    16.0000    0    32.060   12.245595   -3.326277    6.220544
  24 C     6.0000    0    12.011   15.359316   -2.772984    5.419848
  25 C     6.0000    0    12.011   15.673937   -1.119001    3.378150
  26 N     7.0000    0    14.007   18.176028   -0.852871    2.814671
  27 C     6.0000    0    12.011   18.859013    0.538156    0.568581
  28 C     6.0000    0    12.011   19.520701   -1.138522   -1.714511
  29 C     6.0000    0    12.011   19.540052   -2.386478    4.448472
  30 C     6.0000    0    12.011   17.773951   -3.606826    6.091211
  31 C     6.0000    0    12.011   18.502913   -5.455791    7.864795
  32 N     7.0000    0    14.007   17.057292   -6.760401    9.437084
  33 S    16.0000    0    32.060   18.817364   -8.765740   10.935259
  34 N     7.0000    0    14.007   21.482596   -8.058548    9.608974
  35 C     6.0000    0    12.011   21.101154   -6.203272    7.970317
  36 C     6.0000    0    12.011   22.858808   -4.918655    6.432458
  37 C     6.0000    0    12.011   22.149140   -2.953415    4.748749
  38 N     7.0000    0    14.007   24.315125   -2.024464    3.648872
  39 C     6.0000    0    12.011   24.784287    0.311880    2.328521
  40 C     6.0000    0    12.011   24.304958    2.699927    3.917856
  41 C     6.0000    0    12.011   26.394504   -3.355152    4.574744
  42 C     6.0000    0    12.011   25.513022   -5.259769    6.340674
  43 S    16.0000    0    32.060   27.285302   -7.349806    7.826660
  44 C     6.0000    0    12.011   31.109692   -2.602701    3.465625
  45 C     6.0000    0    12.011   28.770854   -2.957554    3.892118
  46 S    16.0000    0    32.060   33.650693   -0.695873    4.465480
  47 C     6.0000    0    12.011   34.696902   -5.404522    2.432021
  48 C     6.0000    0    12.011   33.370466   -3.113267    1.935250
  49 C     6.0000    0    12.011   33.467314   -2.151888   -0.758328
  50 C     6.0000    0    12.011   36.167336   -1.548253   -1.559704
  51 C     6.0000    0    12.011   35.842266   -7.296800    2.923841
  52 C     6.0000    0    12.011   22.178998  -12.314476    5.340404
  53 C     6.0000    0    12.011   20.159976  -10.754545    4.209762
  54 C     6.0000    0    12.011   17.628594  -10.567651    4.503293
  55 C     6.0000    0    12.011   16.260867   -8.749583    3.109903
  56 N     7.0000    0    14.007   15.202393   -7.229960    1.986669
  57 C     6.0000    0    12.011   16.268841  -12.111085    6.203650
  58 N     7.0000    0    14.007   15.184970  -13.391355    7.572359
  59 C     6.0000    0    12.011   22.049117   -9.475767    2.629894
  60 C     6.0000    0    12.011   22.475722   -7.639350    0.860562
  61 C     6.0000    0    12.011   25.011262   -7.329038    0.167430
  62 C     6.0000    0    12.011   26.936175   -8.826552    1.170837
  63 C     6.0000    0    12.011   26.477350  -10.713821    2.983405
  64 C     6.0000    0    12.011   24.008611  -10.966175    3.683057
  65 C     6.0000    0    12.011   22.302453  -13.942192    7.184777
  66 O     8.0000    0    15.999   22.403232  -15.428764    8.774868
  67 Cl   17.0000    0    35.453   29.996946   -8.347676    0.209363
  68 Cl   17.0000    0    35.453    5.933154   11.305400  -11.492388
  69 C     6.0000    0    12.011   26.074857    2.889146    6.214686
  70 C     6.0000    0    12.011   25.106183    1.554281    8.578336
  71 C     6.0000    0    12.011   24.668258    5.004354    2.211376
  72 C     6.0000    0    12.011   17.290786   -2.861537   -2.380488
  73 C     6.0000    0    12.011   17.806020   -4.593376   -4.623801
  74 C     6.0000    0    12.011   20.232391    0.572020   -3.926851
  75 Cl   17.0000    0    35.453   11.041103    8.716418  -12.809206
  76 Cl   17.0000    0    35.453   25.767228   -5.001500   -1.977031
  77 H     1.0000    0     1.008    3.801468    8.879710   -7.178540
  78 H     1.0000    0     1.008   11.966823    4.758973   -9.383756
  79 H     1.0000    0     1.008    5.378727    2.174716    0.219076
  80 H     1.0000    0     1.008    6.771021   -3.528232    4.544867
  81 H     1.0000    0     1.008    5.008341   -1.527976    2.526961
  82 H     1.0000    0     1.008    7.283666   -0.051571    7.640900
  83 H     1.0000    0     1.008    4.052423   -0.602161    7.023942
  84 H     1.0000    0     1.008    5.587145    2.022876    5.649865
  85 H     1.0000    0     1.008   20.382832    1.853784    0.988289
  86 H     1.0000    0     1.008   17.206108    1.673768    0.068049
  87 H     1.0000    0     1.008   21.150268   -2.322341   -1.235730
  88 H     1.0000    0     1.008   23.703950    0.361920    0.578124
  89 H     1.0000    0     1.008   26.780689    0.272990    1.793293
  90 H     1.0000    0     1.008   22.352758    2.671317    4.610743
  91 H     1.0000    0     1.008   32.288371   -0.463890   -0.913494
  92 H     1.0000    0     1.008   32.672042   -3.611134   -1.988124
  93 H     1.0000    0     1.008   36.961324   -0.094411   -0.340661
  94 H     1.0000    0     1.008   36.197969   -0.869728   -3.497845
  95 H     1.0000    0     1.008   37.346658   -3.226707   -1.427348
  96 H     1.0000    0     1.008   36.819745   -8.976029    3.315336
  97 H     1.0000    0     1.008   21.004986   -6.489905    0.046544
  98 H     1.0000    0     1.008   28.013527  -11.805327    3.751428
  99 H     1.0000    0     1.008   26.310506    4.887550    6.673077
 100 H     1.0000    0     1.008   27.938032    2.151888    5.721373
 101 H     1.0000    0     1.008   23.199034    2.177739    9.033439
 102 H     1.0000    0     1.008   26.323602    2.000445   10.172358
 103 H     1.0000    0     1.008   25.087267   -0.486831    8.369295
 104 H     1.0000    0     1.008   26.625353    5.125315    1.595212
 105 H     1.0000    0     1.008   24.203027    6.727860    3.226802
 106 H     1.0000    0     1.008   23.472893    4.908091    0.539970
 107 H     1.0000    0     1.008   15.646479   -1.692836   -2.813594
 108 H     1.0000    0     1.008   16.806544   -4.026175   -0.745856
 109 H     1.0000    0     1.008   17.875184   -3.529574   -6.378430
 110 H     1.0000    0     1.008   16.295090   -5.975805   -4.779080
 111 H     1.0000    0     1.008   19.585972   -5.598314   -4.392536
 112 H     1.0000    0     1.008   18.586893    1.613259   -4.584230
 113 H     1.0000    0     1.008   20.959822   -0.541142   -5.487727
 114 H     1.0000    0     1.008   21.684645    1.924006   -3.381854

--------------------------------
INTERNAL COORDINATES (ANGSTROEM)
--------------------------------
 C      0   0   0     0.000000000000     0.00000000     0.00000000
 O      1   0   0     1.208991403030     0.00000000     0.00000000
 C      1   2   0     1.482325511620   127.85404771     0.00000000
 C      3   1   2     1.379608103339   128.91093483     2.70286075
 C      4   3   1     1.389951457498   118.35391183   179.00509596
 C      5   4   3     1.399359930611   120.39986054     0.08012067
 C      6   5   4     1.390436230936   121.16219641     0.49212593
 C      7   6   5     1.384004125030   118.49012840   359.40546346
 C      8   7   6     1.459384083955   131.20761576   177.12632761
 C      9   8   7     1.371106063366   125.59798760   339.74943022
 C     10   9   8     1.412242606247   122.31835620   198.90427339
 N     11  10   9     1.147388898587   176.33422106   106.12276726
 C     10   9   8     1.407197154382   124.43779330    16.29048922
 N     13  10   9     1.148316097118   175.61667717   132.35360396
 C      9   8   7     1.447197562394   107.18649308   172.37354542
 C     15   9   8     1.364457356937   131.32471538   199.90851279
 C     16  15   9     1.411912357160   128.11943002    15.63684390
 S     17  16  15     1.763464862990   120.51643443    21.37146798
 C     18  17  16     1.721147464833    90.95811854   178.62702845
 C     19  18  17     1.400546099098   111.27035059   358.63145822
 C     17  16  15     1.389718435152   127.42255452   197.44614592
 C     21  17  16     1.491863045759   125.43258090     2.20169080
 C     22  21  17     1.531217073997   110.32478463   260.88804196
 S     20  19  18     1.747573488727   113.26210973   178.44596757
 C     24  20  19     1.726326849788    89.04125565   358.99359845
 C     19  18  17     1.396710770954   136.75855892   175.35614022
 N     26  19  18     1.364497271452   137.87739312   359.35572902
 C     27  26  19     1.444018712760   118.38225548   356.31940063
 C     28  27  26     1.539313455960   114.15078276   260.08218432
 C     27  26  19     1.388201845374   107.94546985   185.20102830
 C     25  24  20     1.397717606779   139.16740635   186.31594560
 C     31  25  24     1.409604788230   129.68291676     1.23852604
 N     32  31  25     1.324415991069   128.46445447   355.82836740
 S     33  32  31     1.619296811737   108.47829559   176.34237207
 N     34  33  32     1.619197092049    97.89328202   359.46001939
 C     35  34  33     1.325348080694   108.79249852     0.86201381
 C     36  35  34     1.410492643086   129.35131101   177.97169672
 C     37  36  35     1.419997342814   122.72364103   179.83621581
 N     38  37  36     1.376285338656   107.85954588   176.83521641
 C     39  38  37     1.441650539659   130.89629381   197.58827283
 C     40  39  38     1.539033558471   114.26338771    60.04298918
 C     39  38  37     1.395241384492   109.14926220     0.33839832
 C     37  36  35     1.416934581235   127.73697504   357.59453302
 S     43  37  36     1.649589326166   129.24518961     4.62051375
 C     42  39  38     2.594011512638   126.99018873   181.66362526
 C     45  42  39     1.272006124238     2.88920485   317.39471772
 S     45  42  39     1.762437358348   138.92329056    86.13255733
 C     45  42  39     2.469994921068   134.20361266   224.01255494
 C     48  45  42     1.425449168227    31.98487508   139.79334294
 C     49  48  45     1.514315388055   116.27522453   210.73256893
 C     50  49  48     1.524241369961   111.34645093   298.08344441
 C     48  45  42     1.199080606173   147.31896158   315.88903392
 C     35  34  33     3.210958507814   104.05086399   261.14584786
 C     53  35  34     1.476791584111    79.04246583    72.95138001
 C     54  53  35     1.352147485077   135.32258929   279.22414281
 C     55  54  53     1.411781130983   119.85022104   178.07727716
 N     56  55  54     1.146163648438   178.19368658   322.21231054
 C     55  54  53     1.412251680509   122.38794910   359.14110314
 N     58  55  54     1.145670012613   179.05418136   317.25053519
 C     54  53  35     1.468417225110    89.75477366    99.06088277
 C     60  54  53     1.368202408527   146.02265515   182.21523640
 C     61  60  54     1.400640171743   114.86847986   177.49379791
 C     62  61  60     1.395529815984   122.20929570     1.41741674
 C     63  62  61     1.405830935390   122.47514623   358.64909786
 C     64  63  62     1.364401535179   114.83702012     0.00000000
 C     53  35  34     1.303367880301    86.70338770   295.68095817
 O     66  53  35     1.153125889962   178.34339696   165.55105859
 Cl    63  62  61     1.716531266333   119.48050171   179.50599995
 Cl     5   4   3     1.717589014782   119.67331927   180.04918048
 C     41  40  39     1.537692079026   112.64552372    63.10791592
 C     70  41  40     1.525190836748   114.41552810   272.44776929
 C     41  40  39     1.529536382666   108.13676642   184.59149733
 C     29  28  27     1.532315184680   110.38445381    58.31427490
 C     73  29  28     1.524286317297   113.52345013   180.23802762
 C     29  28  27     1.527013831928   108.43101654   180.70975269
 Cl     6   5   4     1.717463107959   119.78696412   180.42419965
 Cl    62  61  60     1.721870687363   118.62083214   181.93688953
 H      4   3   1     1.078497121925   120.71779742   358.84597046
 H      7   6   5     1.078192143915   119.52529394   179.96375422
 H     16  15   9     1.085035564532   115.28370324   189.73213125
 H     22  21  17     1.091764398669   108.39350110   141.49668904
 H     22  21  17     1.089595029220   110.43466106    22.86683342
 H     23  22  21     1.087019000800   110.30074618   299.70969744
 H     23  22  21     1.086435910351   109.92091127   179.99029469
 H     23  22  21     1.087633018761   110.68659524    59.99775780
 H     28  27  26     1.088235005364   110.09571780   134.30707275
 H     28  27  26     1.093777903827   106.21495018    18.93247429
 H     29  28  27     1.095556443548   109.09452177   299.04839647
 H     40  39  38     1.088809790276   110.04375910   294.38756756
 H     40  39  38     1.093951265734   106.00103368   179.38052440
 H     41  40  39     1.096303670887   109.07057734   303.09525544
 H     50  49  48     1.092635067852   109.02979498   176.45973322
 H     50  49  48     1.094035535986   108.04504864    59.05686276
 H     51  50  49     1.088374737533   110.18809052   299.68947875
 H     51  50  49     1.086776532733   110.22948914   179.76081209
 H     51  50  49     1.087781322923   110.41100709    59.54472249
 H     52  48  45     1.048858926930   178.50618522    99.92905782
 H     61  60  54     1.077615034973   123.73085448   357.87323473
 H     64  63  62     1.076857299971   120.54167695   181.48050787
 H     70  41  40     1.092116154537   107.94849308   152.52852448
 H     70  41  40     1.091995295136   109.73783649    35.99399529
 H     71  70  41     1.088747584934   110.64627314   307.25044515
 H     71  70  41     1.087336881238   109.66405051   188.00896866
 H     71  70  41     1.085805966368   112.34989946    68.54067892
 H     72  41  40     1.087650369466   110.09597033   295.15726134
 H     72  41  40     1.086812197806   110.40680858   175.58918330
 H     72  41  40     1.088583583424   111.67540004    55.38744290
 H     73  29  28     1.091849199981   108.96224501    59.02915378
 H     73  29  28     1.092580455893   109.52219666   301.83403497
 H     74  73  29     1.086449181370   111.10519019   289.20761283
 H     74  73  29     1.086829109796   109.38920250   170.07060691
 H     74  73  29     1.088564153645   111.15758110    50.35548328
 H     75  29  28     1.087583336807   110.36992763   291.99864646
 H     75  29  28     1.085086838737   110.44406955   172.15231695
 H     75  29  28     1.088862343733   111.13034927    52.39108023

---------------------------
INTERNAL COORDINATES (A.U.)
---------------------------
 C      0   0   0     0.000000000000     0.00000000     0.00000000
 O      1   0   0     2.284662649992     0.00000000     0.00000000
 C      1   2   0     2.801189258287   127.85404771     0.00000000
 C      3   1   2     2.607081487450   128.91093483     2.70286075
 C      4   3   1     2.626627594115   118.35391183   179.00509596
 C      5   4   3     2.644407031638   120.39986054     0.08012067
 C      6   5   4     2.627543683151   121.16219641     0.49212593
 C      7   6   5     2.615388764524   118.49012840   359.40546346
 C      8   7   6     2.757836242878   131.20761576   177.12632761
 C      9   8   7     2.591014960321   125.59798760   339.74943022
 C     10   9   8     2.668751760462   122.31835620   198.90427339
 N     11  10   9     2.168250787430   176.33422106   106.12276726
 C     10   9   8     2.659217238215   124.43779330    16.29048922
 N     13  10   9     2.170002938726   175.61667717   132.35360396
 C      9   8   7     2.734807054604   107.18649308   172.37354542
 C     15   9   8     2.578450726025   131.32471538   199.90851279
 C     16  15   9     2.668127680131   128.11943002    15.63684390
 S     17  16  15     3.332465637844   120.51643443    21.37146798
 C     18  17  16     3.252497344627    90.95811854   178.62702845
 C     19  18  17     2.646648565228   111.27035059   358.63145822
 C     17  16  15     2.626187245698   127.42255452   197.44614592
 C     21  17  16     2.819212585801   125.43258090     2.20169080
 C     22  21  17     2.893580921439   110.32478463   260.88804196
 S     20  19  18     3.302435292595   113.26210973   178.44596757
 C     24  20  19     3.262284963735    89.04125565   358.99359845
 C     19  18  17     2.639400845402   136.75855892   175.35614022
 N     26  19  18     2.578526153527   137.87739312   359.35572902
 C     27  26  19     2.728799899373   118.38225548   356.31940063
 C     28  27  26     2.908880866025   114.15078276   260.08218432
 C     27  26  19     2.623321306361   107.94546985   185.20102830
 C     25  24  20     2.641303489372   139.16740635   186.31594560
 C     31  25  24     2.663767006818   129.68291676     1.23852604
 N     32  31  25     2.502783510507   128.46445447   355.82836740
 S     33  32  31     3.060027503714   108.47829559   176.34237207
 N     34  33  32     3.059839060814    97.89328202   359.46001939
 C     35  34  33     2.504544904630   108.79249852     0.86201381
 C     36  35  34     2.665444809343   129.35131101   177.97169672
 C     37  36  35     2.683406088815   122.72364103   179.83621581
 N     38  37  36     2.600802372191   107.85954588   176.83521641
 C     39  38  37     2.724324700776   130.89629381   197.58827283
 C     40  39  38     2.908351936425   114.26338771    60.04298918
 C     39  38  37     2.636624107404   109.14926220     0.33839832
 C     37  36  35     2.677618308217   127.73697504   357.59453302
 S     43  37  36     3.117272059893   129.24518961     4.62051375
 C     42  39  38     4.901971347125   126.99018873   181.66362526
 C     45  42  39     2.403743215481     2.88920485   317.39471772
 S     45  42  39     3.330523935469   138.92329056    86.13255733
 C     45  42  39     4.667613952994   134.20361266   224.01255494
 C     48  45  42     2.693708545776    31.98487508   139.79334294
 C     49  48  45     2.861641363807   116.27522453   210.73256893
 C     50  49  48     2.880398751219   111.34645093   298.08344441
 C     48  45  42     2.265933958163   147.31896158   315.88903392
 C     35  34  33     6.067832207152   104.05086399   261.14584786
 C     53  35  34     2.790731650849    79.04246583    72.95138001
 C     54  53  35     2.555188439466   135.32258929   279.22414281
 C     55  54  53     2.667879698596   119.85022104   178.07727716
 N     56  55  54     2.165935400203   178.19368658   322.21231054
 C     55  54  53     2.668768908332   122.38794910   359.14110314
 N     58  55  54     2.165002563684   179.05418136   317.25053519
 C     54  53  35     2.774906405791    89.75477366    99.06088277
 C     60  54  53     2.585527847888   146.02265515   182.21523640
 C     61  60  54     2.646826336763   114.86847986   177.49379791
 C     62  61  60     2.637169163931   122.20929570     1.41741674
 C     63  62  61     2.656635458482   122.47514623   358.64909786
 C     64  63  62     2.578345238191   114.83702012     0.00000000
 C     53  35  34     2.463008345518    86.70338770   295.68095817
 O     66  53  35     2.179092129962   178.34339696   165.55105859
 Cl    63  62  61     3.243773993683   119.48050171   179.50599995
 Cl     5   4   3     3.245772848570   119.67331927   180.04918048
 C     41  40  39     2.905816907660   112.64552372    63.10791592
 C     70  41  40     2.882192983420   114.41552810   272.44776929
 C     41  40  39     2.890404875108   108.13676642   184.59149733
 C     29  28  27     2.895656049894   110.38445381    58.31427490
 C     73  29  28     2.880483689375   113.52345013   180.23802762
 C     29  28  27     2.885637945054   108.43101654   180.70975269
 Cl     6   5   4     3.245534919156   119.78696412   180.42419965
 Cl    62  61  60     3.253864037143   118.62083214   181.93688953
 H      4   3   1     2.038064196660   120.71779742   358.84597046
 H      7   6   5     2.037487871745   119.52529394   179.96375422
 H     16  15   9     2.050420062531   115.28370324   189.73213125
 H     22  21  17     2.063135716249   108.39350110   141.49668904
 H     22  21  17     2.059036202107   110.43466106    22.86683342
 H     23  22  21     2.054168213881   110.30074618   299.70969744
 H     23  22  21     2.053066332621   109.92091127   179.99029469
 H     23  22  21     2.055328539669   110.68659524    59.99775780
 H     28  27  26     2.056466129485   110.09571780   134.30707275
 H     28  27  26     2.066940689567   106.21495018    18.93247429
 H     29  28  27     2.070301642559   109.09452177   299.04839647
 H     40  39  38     2.057552315553   110.04375910   294.38756756
 H     40  39  38     2.067268296093   106.00103368   179.38052440
 H     41  40  39     2.071713697589   109.07057734   303.09525544
 H     50  49  48     2.064781042559   109.02979498   176.45973322
 H     50  49  48     2.067427543791   108.04504864    59.05686276
 H     51  50  49     2.056730185016   110.18809052   299.68947875
 H     51  50  49     2.053710015639   110.22948914   179.76081209
 H     51  50  49     2.055608793919   110.41100709    59.54472249
 H     52  48  45     1.982056125016   178.50618522    99.92905782
 H     61  60  54     2.036397293895   123.73085448   357.87323473
 H     64  63  62     2.034965382258   120.54167695   181.48050787
 H     70  41  40     2.063800438506   107.94849308   152.52852448
 H     70  41  40     2.063572047338   109.73783649    35.99399529
 H     71  70  41     2.057434764494   110.64627314   307.25044515
 H     71  70  41     2.054768920852   109.66405051   188.00896866
 H     71  70  41     2.051875911013   112.34989946    68.54067892
 H     72  41  40     2.055361327749   110.09597033   295.15726134
 H     72  41  40     2.053777412858   110.40680858   175.58918330
 H     72  41  40     2.057124846554   111.67540004    55.38744290
 H     73  29  28     2.063295967506   108.96224501    59.02915378
 H     73  29  28     2.064677840913   109.52219666   301.83403497
 H     74  73  29     2.053091411213   111.10519019   289.20761283
 H     74  73  29     2.053809371888   109.38920250   170.07060691
 H     74  73  29     2.057088129592   111.15758110    50.35548328
 H     75  29  28     2.055234654381   110.36992763   291.99864646
 H     75  29  28     2.050516956735   110.44406955   172.15231695
 H     75  29  28     2.057651627195   111.13034927    52.39108023

---------------------
BASIS SET INFORMATION
---------------------
There are 6 groups of distinct atoms

 Group   1 Type C   : 7s4p1d contracted to 3s2p1d pattern {511/31/1}
 Group   2 Type O   : 7s4p1d contracted to 3s2p1d pattern {511/31/1}
 Group   3 Type N   : 7s4p1d contracted to 3s2p1d pattern {511/31/1}
 Group   4 Type S   : 10s7p1d contracted to 4s3p1d pattern {5311/511/1}
 Group   5 Type Cl  : 10s7p1d contracted to 4s3p1d pattern {5311/511/1}
 Group   6 Type H   : 4s1p contracted to 2s1p pattern {31/1}

Atom   0C    basis set group =>   1
Atom   1O    basis set group =>   2
Atom   2C    basis set group =>   1
Atom   3C    basis set group =>   1
Atom   4C    basis set group =>   1
Atom   5C    basis set group =>   1
Atom   6C    basis set group =>   1
Atom   7C    basis set group =>   1
Atom   8C    basis set group =>   1
Atom   9C    basis set group =>   1
Atom  10C    basis set group =>   1
Atom  11N    basis set group =>   3
Atom  12C    basis set group =>   1
Atom  13N    basis set group =>   3
Atom  14C    basis set group =>   1
Atom  15C    basis set group =>   1
Atom  16C    basis set group =>   1
Atom  17S    basis set group =>   4
Atom  18C    basis set group =>   1
Atom  19C    basis set group =>   1
Atom  20C    basis set group =>   1
Atom  21C    basis set group =>   1
Atom  22C    basis set group =>   1
Atom  23S    basis set group =>   4
Atom  24C    basis set group =>   1
Atom  25C    basis set group =>   1
Atom  26N    basis set group =>   3
Atom  27C    basis set group =>   1
Atom  28C    basis set group =>   1
Atom  29C    basis set group =>   1
Atom  30C    basis set group =>   1
Atom  31C    basis set group =>   1
Atom  32N    basis set group =>   3
Atom  33S    basis set group =>   4
Atom  34N    basis set group =>   3
Atom  35C    basis set group =>   1
Atom  36C    basis set group =>   1
Atom  37C    basis set group =>   1
Atom  38N    basis set group =>   3
Atom  39C    basis set group =>   1
Atom  40C    basis set group =>   1
Atom  41C    basis set group =>   1
Atom  42C    basis set group =>   1
Atom  43S    basis set group =>   4
Atom  44C    basis set group =>   1
Atom  45C    basis set group =>   1
Atom  46S    basis set group =>   4
Atom  47C    basis set group =>   1
Atom  48C    basis set group =>   1
Atom  49C    basis set group =>   1
Atom  50C    basis set group =>   1
Atom  51C    basis set group =>   1
Atom  52C    basis set group =>   1
Atom  53C    basis set group =>   1
Atom  54C    basis set group =>   1
Atom  55C    basis set group =>   1
Atom  56N    basis set group =>   3
Atom  57C    basis set group =>   1
Atom  58N    basis set group =>   3
Atom  59C    basis set group =>   1
Atom  60C    basis set group =>   1
Atom  61C    basis set group =>   1
Atom  62C    basis set group =>   1
Atom  63C    basis set group =>   1
Atom  64C    basis set group =>   1
Atom  65C    basis set group =>   1
Atom  66O    basis set group =>   2
Atom  67Cl   basis set group =>   5
Atom  68Cl   basis set group =>   5
Atom  69C    basis set group =>   1
Atom  70C    basis set group =>   1
Atom  71C    basis set group =>   1
Atom  72C    basis set group =>   1
Atom  73C    basis set group =>   1
Atom  74C    basis set group =>   1
Atom  75Cl   basis set group =>   5
Atom  76Cl   basis set group =>   5
Atom  77H    basis set group =>   6
Atom  78H    basis set group =>   6
Atom  79H    basis set group =>   6
Atom  80H    basis set group =>   6
Atom  81H    basis set group =>   6
Atom  82H    basis set group =>   6
Atom  83H    basis set group =>   6
Atom  84H    basis set group =>   6
Atom  85H    basis set group =>   6
Atom  86H    basis set group =>   6
Atom  87H    basis set group =>   6
Atom  88H    basis set group =>   6
Atom  89H    basis set group =>   6
Atom  90H    basis set group =>   6
Atom  91H    basis set group =>   6
Atom  92H    basis set group =>   6
Atom  93H    basis set group =>   6
Atom  94H    basis set group =>   6
Atom  95H    basis set group =>   6
Atom  96H    basis set group =>   6
Atom  97H    basis set group =>   6
Atom  98H    basis set group =>   6
Atom  99H    basis set group =>   6
Atom 100H    basis set group =>   6
Atom 101H    basis set group =>   6
Atom 102H    basis set group =>   6
Atom 103H    basis set group =>   6
Atom 104H    basis set group =>   6
Atom 105H    basis set group =>   6
Atom 106H    basis set group =>   6
Atom 107H    basis set group =>   6
Atom 108H    basis set group =>   6
Atom 109H    basis set group =>   6
Atom 110H    basis set group =>   6
Atom 111H    basis set group =>   6
Atom 112H    basis set group =>   6
Atom 113H    basis set group =>   6
Atom 114H    basis set group =>   6
------------------------------------------------------------------------------
                           ORCA GTO INTEGRAL CALCULATION
------------------------------------------------------------------------------

                         BASIS SET STATISTICS AND STARTUP INFO

 # of primitive gaussian shells          ... 1168
 # of primitive gaussian functions       ... 2222
 # of contracted shells                  ...  594
 # of contracted basis functions         ... 1304
 Highest angular momentum                ...    2
 Maximum contraction depth               ...    5
 Integral package used                   ... LIBINT
 Integral threshhold            Thresh   ...  2.500e-11
 Primitive cut-off              TCut     ...  2.500e-12


------------------------------ INTEGRAL EVALUATION ----------------------------


 * One electron integrals 
 Pre-screening matrix                    ... done
 Shell pair data                         ... done (   0.028 sec)

-------------------------------------------------------------------------------
                                 ORCA SCF
-------------------------------------------------------------------------------

------------
SCF SETTINGS
------------
Hamiltonian:
 Ab initio Hamiltonian  Method          .... Hartree-Fock(GTOs)


General Settings:
 Integral files         IntName         .... BT6IC-HD-4Cl
 Hartree-Fock type      HFTyp           .... RHF
 Total Charge           Charge          ....    0
 Multiplicity           Mult            ....    1
 Number of Electrons    NEL             ....  606
 Basis Dimension        Dim             .... 1304
 Nuclear Repulsion      ENuc            ....  15880.3793017387 Eh

Convergence Acceleration:
 DIIS                   CNVDIIS         .... on
   Start iteration      DIISMaxIt       ....    12
   Startup error        DIISStart       ....  0.200000
   # of expansion vecs  DIISMaxEq       ....     5
   Bias factor          DIISBfac        ....   1.050
   Max. coefficient     DIISMaxC        ....  10.000
 Newton-Raphson         CNVNR           .... off
 SOSCF                  CNVSOSCF        .... on
   Start iteration      SOSCFMaxIt      ....   150
   Startup grad/error   SOSCFStart      ....  0.003300
 Level Shifting         CNVShift        .... on
   Level shift para.    LevelShift      ....    0.2500
   Turn off err/grad.   ShiftErr        ....    0.0010
 Zerner damping         CNVZerner       .... off
 Static damping         CNVDamp         .... on
   Fraction old density DampFac         ....    0.7000
   Max. Damping (<1)    DampMax         ....    0.9800
   Min. Damping (>=0)   DampMin         ....    0.0000
   Turn off err/grad.   DampErr         ....    0.1000
 Fernandez-Rico         CNVRico         .... off

SCF Procedure:
 Maximum # iterations   MaxIter         ....   125
 SCF integral mode      SCFMode         .... Direct
   Integral package                     .... LIBINT
 Reset frequency        DirectResetFreq ....    20
 Integral Threshold     Thresh          ....  2.500e-11 Eh
 Primitive CutOff       TCut            ....  2.500e-12 Eh

Convergence Tolerance:
 Convergence Check Mode ConvCheckMode   .... Total+1el-Energy
 Convergence forced     ConvForced      .... 1
 Energy Change          TolE            ....  1.000e-08 Eh
 1-El. energy change                    ....  1.000e-05 Eh
 Orbital Gradient       TolG            ....  1.000e-05
 Orbital Rotation angle TolX            ....  1.000e-05
 DIIS Error             TolErr          ....  5.000e-07


Diagonalization of the overlap matrix:
Smallest eigenvalue                        ... 6.391e-05
Time for diagonalization                   ...    0.625 sec
Threshold for overlap eigenvalues          ... 1.000e-08
Number of eigenvalues below threshold      ... 0
Time for construction of square roots      ...    0.181 sec
Total time needed                          ...    0.812 sec

-------------------
DFT GRID GENERATION
-------------------

General Integration Accuracy     IntAcc      ...  4.340
Radial Grid Type                 RadialGrid  ... Gauss-Chebyshev
Angular Grid (max. acc.)         AngularGrid ... Lebedev-110
Angular grid pruning method      GridPruning ... 3 (G Style)
Weight generation scheme         WeightScheme... Becke
Basis function cutoff            BFCut       ...    1.0000e-11
Integration weight cutoff        WCut        ...    1.0000e-14
Grids for H and He will be reduced by one unit

# of grid points (after initial pruning)     ... 159674 (   0.3 sec)
# of grid points (after weights+screening)   ... 136516 (   8.1 sec)
nearest neighbour list constructed           ...    0.0 sec
Grid point re-assignment to atoms done       ...    0.0 sec
Grid point division into batches done        ...    0.1 sec
Reduced shell lists constructed in    3.2 sec

Total number of grid points                  ...   136516
Total number of batches                      ...     2193
Average number of points per batch           ...       62
Average number of grid points per atom       ...     1187
Average number of shells per batch           ...   148.49 (25.00%)
Average number of basis functions per batch  ...   298.82 (22.92%)
Average number of large shells per batch     ...    80.52 (54.23%)
Average number of large basis fcns per batch ...   165.14 (55.26%)
Maximum spatial batch extension              ...  21.41, 19.80, 23.77 au
Average spatial batch extension              ...   3.01,  3.14,  3.20 au

Time for grid setup =   11.564 sec

------------------------------
INITIAL GUESS: MODEL POTENTIAL
------------------------------
Loading Hartree-Fock densities                     ... done
Calculating cut-offs                               ... done
Setting up the integral package                    ... done
Initializing the effective Hamiltonian             ... done
Starting the Coulomb interaction                   ... done (  15.2 sec)
Reading the grid                                   ... done
Mapping shells                                     ... done
Starting the XC term evaluation                    ... done (   3.2 sec)
Transforming the Hamiltonian                       ... done (   0.2 sec)
Diagonalizing the Hamiltonian                      ... done (   0.4 sec)
Back transforming the eigenvectors                 ... done (   0.1 sec)
Now organizing SCF variables                       ... done
                      ------------------
                      INITIAL GUESS DONE (  30.9 sec)
                      ------------------
--------------
SCF ITERATIONS
--------------
ITER       Energy         Delta-E        Max-DP      RMS-DP      [F,P]     Damp
               ***  Starting incremental Fock matrix formation  ***
  0  -6623.1537784088   0.000000000000 0.20601871  0.00155476  0.2329831 0.7000
  1  -6624.0165126991  -0.862734290342 0.14913623  0.00117560  0.1381727 0.7000
                               ***Turning on DIIS***
  2  -6624.5321218314  -0.515609132297 0.33206898  0.00272399  0.0780493 0.0000
  3  -6621.0650242247   3.467097606768 0.07811945  0.00060311  0.0524661 0.0000
  4  -6625.9345170520  -4.869492827289 0.01979290  0.00022568  0.0183861 0.0000
  5  -6625.7218197713   0.212697280644 0.00922774  0.00011140  0.0096924 0.0000
  6  -6625.6021764701   0.119643301197 0.00721823  0.00006700  0.0030756 0.0000
                      *** Initiating the SOSCF procedure ***
                           *** Shutting down DIIS ***
                      *** Re-Reading the Fockian *** 
                      *** Removing any level shift *** 
ITER      Energy       Delta-E        Grad      Rot      Max-DP    RMS-DP
  7  -6625.65577021  -0.0535937424  0.002894  0.002894  0.004152  0.000040
               *** Restarting incremental Fock matrix formation ***
  8  -6625.65031867   0.0054515422  0.001659  0.006499  0.003307  0.000027
  9  -6625.65056453  -0.0002458616  0.000883  0.009056  0.005434  0.000045
 10  -6625.65068889  -0.0001243577  0.000355  0.001194  0.001274  0.000012
 11  -6625.65070424  -0.0000153539  0.000143  0.000601  0.000470  0.000005
 12  -6625.65070937  -0.0000051288  0.000068  0.000516  0.000275  0.000003
 13  -6625.65071069  -0.0000013204  0.000074  0.000712  0.000342  0.000003
 14  -6625.65071126  -0.0000005639  0.000034  0.000309  0.000105  0.000001
 15  -6625.65071139  -0.0000001299  0.000009  0.000070  0.000050  0.000000
 16  -6625.65071140  -0.0000000162  0.000007  0.000049  0.000035  0.000000
                  ***Gradient check signals convergence***
              ***Rediagonalizing the Fockian in SOSCF/NRSCF***

               *****************************************************
               *                     SUCCESS                       *
               *           SCF CONVERGED AFTER  17 CYCLES          *
               *****************************************************


----------------
TOTAL SCF ENERGY
----------------

Total Energy       :        -6625.65071137 Eh         -180293.12178 eV

Components:
Nuclear Repulsion  :        15880.37930174 Eh          432127.08972 eV
Electronic Energy  :       -22506.03001311 Eh         -612420.21150 eV
One Electron Energy:       -40767.10593302 Eh        -1109329.34965 eV
Two Electron Energy:        18261.07591991 Eh          496909.13815 eV

Virial components:
Potential Energy   :       -13240.16848000 Eh         -360283.30079 eV
Kinetic Energy     :         6614.51776862 Eh          179990.17901 eV
Virial Ratio       :            2.00168311


---------------
SCF CONVERGENCE
---------------

  Last Energy change         ...    2.9002e-08  Tolerance :   1.0000e-08
  Last MAX-Density change    ...    1.8358e-05  Tolerance :   1.0000e-07
  Last RMS-Density change    ...    1.2617e-07  Tolerance :   5.0000e-09
  Last Orbital Gradient      ...    2.0302e-06  Tolerance :   1.0000e-05
  Last Orbital Rotation      ...    1.7798e-05  Tolerance :   1.0000e-05

             **** THE GBW FILE WAS UPDATED (BT6IC-HD-4Cl.gbw) ****
             **** DENSITY FILE WAS UPDATED (BT6IC-HD-4Cl.scfp) ****
             **** ENERGY FILE WAS UPDATED (BT6IC-HD-4Cl.en.tmp) ****
             **** THE GBW FILE WAS UPDATED (BT6IC-HD-4Cl.gbw) ****
             **** DENSITY FILE WAS UPDATED (BT6IC-HD-4Cl.scfp) ****
----------------
ORBITAL ENERGIES
----------------

  NO   OCC          E(Eh)            E(eV) 
   0   2.0000    -104.826766     -2852.4813 
   1   2.0000    -104.825958     -2852.4593 
   2   2.0000    -104.825801     -2852.4551 
   3   2.0000    -104.822286     -2852.3594 
   4   2.0000     -92.019712     -2503.9837 
   5   2.0000     -91.983097     -2502.9873 
   6   2.0000     -91.974478     -2502.7528 
   7   2.0000     -91.947483     -2502.0182 
   8   2.0000     -91.868714     -2499.8748 
   9   2.0000     -20.668265      -562.4121 
  10   2.0000     -20.570504      -559.7519 
  11   2.0000     -15.658909      -426.1006 
  12   2.0000     -15.636534      -425.4917 
  13   2.0000     -15.612449      -424.8363 
  14   2.0000     -15.601168      -424.5294 
  15   2.0000     -15.599336      -424.4795 
  16   2.0000     -15.593014      -424.3075 
  17   2.0000     -15.589390      -424.2089 
  18   2.0000     -15.588526      -424.1854 
  19   2.0000     -11.429499      -311.0125 
  20   2.0000     -11.368969      -309.3654 
  21   2.0000     -11.355843      -309.0082 
  22   2.0000     -11.354917      -308.9830 
  23   2.0000     -11.349312      -308.8305 
  24   2.0000     -11.347574      -308.7832 
  25   2.0000     -11.345153      -308.7173 
  26   2.0000     -11.344206      -308.6915 
  27   2.0000     -11.335524      -308.4553 
  28   2.0000     -11.335327      -308.4499 
  29   2.0000     -11.329795      -308.2994 
  30   2.0000     -11.327910      -308.2481 
  31   2.0000     -11.325053      -308.1703 
  32   2.0000     -11.324159      -308.1460 
  33   2.0000     -11.318919      -308.0034 
  34   2.0000     -11.317072      -307.9532 
  35   2.0000     -11.316134      -307.9277 
  36   2.0000     -11.312801      -307.8370 
  37   2.0000     -11.309172      -307.7382 
  38   2.0000     -11.309013      -307.7339 
  39   2.0000     -11.306972      -307.6784 
  40   2.0000     -11.306181      -307.6568 
  41   2.0000     -11.304882      -307.6215 
  42   2.0000     -11.304495      -307.6109 
  43   2.0000     -11.303956      -307.5963 
  44   2.0000     -11.303174      -307.5750 
  45   2.0000     -11.301942      -307.5415 
  46   2.0000     -11.300403      -307.4996 
  47   2.0000     -11.300266      -307.4959 
  48   2.0000     -11.298931      -307.4595 
  49   2.0000     -11.298747      -307.4545 
  50   2.0000     -11.298497      -307.4477 
  51   2.0000     -11.297602      -307.4234 
  52   2.0000     -11.296259      -307.3868 
  53   2.0000     -11.295571      -307.3681 
  54   2.0000     -11.294596      -307.3416 
  55   2.0000     -11.290687      -307.2352 
  56   2.0000     -11.288511      -307.1760 
  57   2.0000     -11.288431      -307.1738 
  58   2.0000     -11.287147      -307.1389 
  59   2.0000     -11.285058      -307.0820 
  60   2.0000     -11.284612      -307.0699 
  61   2.0000     -11.279926      -306.9424 
  62   2.0000     -11.264957      -306.5351 
  63   2.0000     -11.259007      -306.3731 
  64   2.0000     -11.256233      -306.2977 
  65   2.0000     -11.253990      -306.2366 
  66   2.0000     -11.253492      -306.2231 
  67   2.0000     -11.250270      -306.1354 
  68   2.0000     -11.249822      -306.1232 
  69   2.0000     -11.246264      -306.0264 
  70   2.0000     -11.242567      -305.9258 
  71   2.0000     -11.236017      -305.7476 
  72   2.0000     -11.235750      -305.7403 
  73   2.0000     -11.234894      -305.7170 
  74   2.0000     -11.224300      -305.4287 
  75   2.0000     -11.223721      -305.4130 
  76   2.0000     -11.215970      -305.2021 
  77   2.0000     -10.589992      -288.1683 
  78   2.0000     -10.589727      -288.1611 
  79   2.0000     -10.589605      -288.1578 
  80   2.0000     -10.585803      -288.0543 
  81   2.0000      -9.051231      -246.2965 
  82   2.0000      -9.017918      -245.3900 
  83   2.0000      -9.008932      -245.1455 
  84   2.0000      -8.983094      -244.4424 
  85   2.0000      -8.904660      -242.3081 
  86   2.0000      -8.065125      -219.4632 
  87   2.0000      -8.064829      -219.4552 
  88   2.0000      -8.064704      -219.4518 
  89   2.0000      -8.061521      -219.3651 
  90   2.0000      -8.061413      -219.3622 
  91   2.0000      -8.061040      -219.3520 
  92   2.0000      -8.061029      -219.3518 
  93   2.0000      -8.060909      -219.3485 
  94   2.0000      -8.060897      -219.3482 
  95   2.0000      -8.060848      -219.3468 
  96   2.0000      -8.057139      -219.2459 
  97   2.0000      -8.057073      -219.2441 
  98   2.0000      -6.738489      -183.3636 
  99   2.0000      -6.736617      -183.3127 
 100   2.0000      -6.735069      -183.2706 
 101   2.0000      -6.705589      -182.4683 
 102   2.0000      -6.704484      -182.4383 
 103   2.0000      -6.702426      -182.3823 
 104   2.0000      -6.696474      -182.2203 
 105   2.0000      -6.695662      -182.1982 
 106   2.0000      -6.693285      -182.1335 
 107   2.0000      -6.670607      -181.5165 
 108   2.0000      -6.668691      -181.4643 
 109   2.0000      -6.666197      -181.3965 
 110   2.0000      -6.592732      -179.3973 
 111   2.0000      -6.590789      -179.3445 
 112   2.0000      -6.588771      -179.2896 
 113   2.0000      -1.500960       -40.8432 
 114   2.0000      -1.402746       -38.1707 
 115   2.0000      -1.360392       -37.0182 
 116   2.0000      -1.348257       -36.6879 
 117   2.0000      -1.338606       -36.4253 
 118   2.0000      -1.267598       -34.4931 
 119   2.0000      -1.262312       -34.3493 
 120   2.0000      -1.248064       -33.9615 
 121   2.0000      -1.243920       -33.8488 
 122   2.0000      -1.237503       -33.6742 
 123   2.0000      -1.228725       -33.4353 
 124   2.0000      -1.227876       -33.4122 
 125   2.0000      -1.220078       -33.2000 
 126   2.0000      -1.213597       -33.0237 
 127   2.0000      -1.208601       -32.8877 
 128   2.0000      -1.191020       -32.4093 
 129   2.0000      -1.175906       -31.9980 
 130   2.0000      -1.164716       -31.6935 
 131   2.0000      -1.160697       -31.5842 
 132   2.0000      -1.160291       -31.5731 
 133   2.0000      -1.139744       -31.0140 
 134   2.0000      -1.131523       -30.7903 
 135   2.0000      -1.127927       -30.6925 
 136   2.0000      -1.111961       -30.2580 
 137   2.0000      -1.103410       -30.0253 
 138   2.0000      -1.097807       -29.8729 
 139   2.0000      -1.096322       -29.8324 
 140   2.0000      -1.094759       -29.7899 
 141   2.0000      -1.079888       -29.3853 
 142   2.0000      -1.063897       -28.9501 
 143   2.0000      -1.056099       -28.7379 
 144   2.0000      -1.051537       -28.6138 
 145   2.0000      -1.051215       -28.6050 
 146   2.0000      -1.042742       -28.3744 
 147   2.0000      -1.031963       -28.0811 
 148   2.0000      -1.027912       -27.9709 
 149   2.0000      -1.021187       -27.7879 
 150   2.0000      -1.009705       -27.4755 
 151   2.0000      -1.003013       -27.2934 
 152   2.0000      -0.996786       -27.1239 
 153   2.0000      -0.980310       -26.6756 
 154   2.0000      -0.974337       -26.5131 
 155   2.0000      -0.964404       -26.2428 
 156   2.0000      -0.943764       -25.6811 
 157   2.0000      -0.943366       -25.6703 
 158   2.0000      -0.934119       -25.4187 
 159   2.0000      -0.931413       -25.3450 
 160   2.0000      -0.920056       -25.0360 
 161   2.0000      -0.908583       -24.7238 
 162   2.0000      -0.894332       -24.3360 
 163   2.0000      -0.879198       -23.9242 
 164   2.0000      -0.879088       -23.9212 
 165   2.0000      -0.878035       -23.8925 
 166   2.0000      -0.871507       -23.7149 
 167   2.0000      -0.861850       -23.4521 
 168   2.0000      -0.857256       -23.3271 
 169   2.0000      -0.843155       -22.9434 
 170   2.0000      -0.841695       -22.9037 
 171   2.0000      -0.834508       -22.7081 
 172   2.0000      -0.833059       -22.6687 
 173   2.0000      -0.822482       -22.3809 
 174   2.0000      -0.809242       -22.0206 
 175   2.0000      -0.804089       -21.8804 
 176   2.0000      -0.801609       -21.8129 
 177   2.0000      -0.789066       -21.4716 
 178   2.0000      -0.785529       -21.3753 
 179   2.0000      -0.779480       -21.2107 
 180   2.0000      -0.770913       -20.9776 
 181   2.0000      -0.767320       -20.8798 
 182   2.0000      -0.760022       -20.6812 
 183   2.0000      -0.757932       -20.6244 
 184   2.0000      -0.746998       -20.3268 
 185   2.0000      -0.742131       -20.1944 
 186   2.0000      -0.735710       -20.0197 
 187   2.0000      -0.725094       -19.7308 
 188   2.0000      -0.719771       -19.5860 
 189   2.0000      -0.714616       -19.4457 
 190   2.0000      -0.711530       -19.3617 
 191   2.0000      -0.707368       -19.2485 
 192   2.0000      -0.703093       -19.1321 
 193   2.0000      -0.692751       -18.8507 
 194   2.0000      -0.688559       -18.7366 
 195   2.0000      -0.686877       -18.6909 
 196   2.0000      -0.682057       -18.5597 
 197   2.0000      -0.680295       -18.5118 
 198   2.0000      -0.675819       -18.3900 
 199   2.0000      -0.669340       -18.2137 
 200   2.0000      -0.668145       -18.1812 
 201   2.0000      -0.664800       -18.0901 
 202   2.0000      -0.661747       -18.0070 
 203   2.0000      -0.655955       -17.8494 
 204   2.0000      -0.652972       -17.7683 
 205   2.0000      -0.650154       -17.6916 
 206   2.0000      -0.648965       -17.6592 
 207   2.0000      -0.643818       -17.5192 
 208   2.0000      -0.637435       -17.3455 
 209   2.0000      -0.634161       -17.2564 
 210   2.0000      -0.630998       -17.1703 
 211   2.0000      -0.630671       -17.1614 
 212   2.0000      -0.629502       -17.1296 
 213   2.0000      -0.626402       -17.0453 
 214   2.0000      -0.622415       -16.9368 
 215   2.0000      -0.621096       -16.9009 
 216   2.0000      -0.615145       -16.7390 
 217   2.0000      -0.614265       -16.7150 
 218   2.0000      -0.607533       -16.5318 
 219   2.0000      -0.605320       -16.4716 
 220   2.0000      -0.599029       -16.3004 
 221   2.0000      -0.593186       -16.1414 
 222   2.0000      -0.591209       -16.0876 
 223   2.0000      -0.590367       -16.0647 
 224   2.0000      -0.587739       -15.9932 
 225   2.0000      -0.585836       -15.9414 
 226   2.0000      -0.584380       -15.9018 
 227   2.0000      -0.583196       -15.8696 
 228   2.0000      -0.580795       -15.8042 
 229   2.0000      -0.579702       -15.7745 
 230   2.0000      -0.577262       -15.7081 
 231   2.0000      -0.575549       -15.6615 
 232   2.0000      -0.572683       -15.5835 
 233   2.0000      -0.572473       -15.5778 
 234   2.0000      -0.570959       -15.5366 
 235   2.0000      -0.569267       -15.4905 
 236   2.0000      -0.568000       -15.4561 
 237   2.0000      -0.565692       -15.3932 
 238   2.0000      -0.564434       -15.3590 
 239   2.0000      -0.559906       -15.2358 
 240   2.0000      -0.551036       -14.9944 
 241   2.0000      -0.547555       -14.8997 
 242   2.0000      -0.546088       -14.8598 
 243   2.0000      -0.545035       -14.8311 
 244   2.0000      -0.543713       -14.7952 
 245   2.0000      -0.541889       -14.7455 
 246   2.0000      -0.538738       -14.6598 
 247   2.0000      -0.536225       -14.5914 
 248   2.0000      -0.535688       -14.5768 
 249   2.0000      -0.527135       -14.3441 
 250   2.0000      -0.524576       -14.2744 
 251   2.0000      -0.522453       -14.2167 
 252   2.0000      -0.521907       -14.2018 
 253   2.0000      -0.518085       -14.0978 
 254   2.0000      -0.514570       -14.0022 
 255   2.0000      -0.512681       -13.9508 
 256   2.0000      -0.510003       -13.8779 
 257   2.0000      -0.509047       -13.8519 
 258   2.0000      -0.508376       -13.8336 
 259   2.0000      -0.506681       -13.7875 
 260   2.0000      -0.505453       -13.7541 
 261   2.0000      -0.504922       -13.7396 
 262   2.0000      -0.504149       -13.7186 
 263   2.0000      -0.501125       -13.6363 
 264   2.0000      -0.498521       -13.5654 
 265   2.0000      -0.497353       -13.5337 
 266   2.0000      -0.494209       -13.4481 
 267   2.0000      -0.492599       -13.4043 
 268   2.0000      -0.490166       -13.3381 
 269   2.0000      -0.488356       -13.2888 
 270   2.0000      -0.486265       -13.2320 
 271   2.0000      -0.484557       -13.1855 
 272   2.0000      -0.481596       -13.1049 
 273   2.0000      -0.478199       -13.0125 
 274   2.0000      -0.475442       -12.9374 
 275   2.0000      -0.469921       -12.7872 
 276   2.0000      -0.467757       -12.7283 
 277   2.0000      -0.467367       -12.7177 
 278   2.0000      -0.463866       -12.6224 
 279   2.0000      -0.460450       -12.5295 
 280   2.0000      -0.458790       -12.4843 
 281   2.0000      -0.455448       -12.3934 
 282   2.0000      -0.454472       -12.3668 
 283   2.0000      -0.450387       -12.2556 
 284   2.0000      -0.447027       -12.1642 
 285   2.0000      -0.444871       -12.1056 
 286   2.0000      -0.428145       -11.6504 
 287   2.0000      -0.412708       -11.2304 
 288   2.0000      -0.411051       -11.1853 
 289   2.0000      -0.399133       -10.8610 
 290   2.0000      -0.393737       -10.7141 
 291   2.0000      -0.387895       -10.5552 
 292   2.0000      -0.382607       -10.4113 
 293   2.0000      -0.360029        -9.7969 
 294   2.0000      -0.356495        -9.7007 
 295   2.0000      -0.353742        -9.6258 
 296   2.0000      -0.351775        -9.5723 
 297   2.0000      -0.344860        -9.3841 
 298   2.0000      -0.329847        -8.9756 
 299   2.0000      -0.320694        -8.7265 
 300   2.0000      -0.318111        -8.6562 
 301   2.0000      -0.295136        -8.0310 
 302   2.0000      -0.271571        -7.3898 
 303   0.0000      -0.038246        -1.0407 
 304   0.0000      -0.007620        -0.2073 
 305   0.0000       0.009163         0.2493 
 306   0.0000       0.015800         0.4299 
 307   0.0000       0.047344         1.2883 
 308   0.0000       0.066091         1.7984 
 309   0.0000       0.075842         2.0638 
 310   0.0000       0.079000         2.1497 
 311   0.0000       0.103618         2.8196 
 312   0.0000       0.111180         3.0254 
 313   0.0000       0.127362         3.4657 
 314   0.0000       0.131495         3.5782 
 315   0.0000       0.133967         3.6454 
 316   0.0000       0.141631         3.8540 
 317   0.0000       0.144714         3.9379 
 318   0.0000       0.149520         4.0686 
 319   0.0000       0.151390         4.1195 
 320   0.0000       0.155227         4.2239 
 321   0.0000       0.160468         4.3666 
 322   0.0000       0.161303         4.3893 
 323   0.0000       0.167285         4.5521 
 324   0.0000       0.169262         4.6059 
 325   0.0000       0.172344         4.6897 
 326   0.0000       0.179173         4.8755 
 327   0.0000       0.181397         4.9361 
 328   0.0000       0.183465         4.9923 
 329   0.0000       0.186921         5.0864 
 330   0.0000       0.187926         5.1137 
 331   0.0000       0.193042         5.2530 
 332   0.0000       0.197080         5.3628 
 333   0.0000       0.198843         5.4108 
 334   0.0000       0.201314         5.4780 
 335   0.0000       0.201646         5.4871 
 336   0.0000       0.202732         5.5166 
 337   0.0000       0.206506         5.6193 
 338   0.0000       0.208711         5.6793 
 339   0.0000       0.210855         5.7377 
 340   0.0000       0.212000         5.7688 
 341   0.0000       0.214286         5.8310 
 342   0.0000       0.216841         5.9005 
 343   0.0000       0.219170         5.9639 
 344   0.0000       0.220840         6.0093 
 345   0.0000       0.225000         6.1226 
 346   0.0000       0.226018         6.1503 
 347   0.0000       0.229112         6.2345 
 348   0.0000       0.230979         6.2853 
 349   0.0000       0.232062         6.3147 
 350   0.0000       0.235605         6.4111 
 351   0.0000       0.239132         6.5071 
 352   0.0000       0.240638         6.5481 
 353   0.0000       0.244224         6.6457 
 354   0.0000       0.244837         6.6624 
 355   0.0000       0.246577         6.7097 
 356   0.0000       0.251663         6.8481 
 357   0.0000       0.253966         6.9108 
 358   0.0000       0.256295         6.9742 
 359   0.0000       0.259315         7.0563 
 360   0.0000       0.261645         7.1197 
 361   0.0000       0.262480         7.1425 
 362   0.0000       0.265634         7.2283 
 363   0.0000       0.267820         7.2878 
 364   0.0000       0.269940         7.3454 
 365   0.0000       0.271424         7.3858 
 366   0.0000       0.275032         7.4840 
 367   0.0000       0.276715         7.5298 
 368   0.0000       0.278981         7.5915 
 369   0.0000       0.280416         7.6305 
 370   0.0000       0.282882         7.6976 
 371   0.0000       0.284586         7.7440 
 372   0.0000       0.289754         7.8846 
 373   0.0000       0.291620         7.9354 
 374   0.0000       0.300202         8.1689 
 375   0.0000       0.301950         8.2165 
 376   0.0000       0.303309         8.2535 
 377   0.0000       0.307513         8.3679 
 378   0.0000       0.311632         8.4799 
 379   0.0000       0.314209         8.5501 
 380   0.0000       0.323008         8.7895 
 381   0.0000       0.323328         8.7982 
 382   0.0000       0.327856         8.9214 
 383   0.0000       0.330139         8.9836 
 384   0.0000       0.331448         9.0192 
 385   0.0000       0.335885         9.1399 
 386   0.0000       0.336987         9.1699 
 387   0.0000       0.340480         9.2649 
 388   0.0000       0.343945         9.3592 
 389   0.0000       0.346665         9.4332 
 390   0.0000       0.348179         9.4744 
 391   0.0000       0.351002         9.5512 
 392   0.0000       0.352484         9.5916 
 393   0.0000       0.357987         9.7413 
 394   0.0000       0.361644         9.8408 
 395   0.0000       0.361891         9.8475 
 396   0.0000       0.366595         9.9756 
 397   0.0000       0.368011        10.0141 
 398   0.0000       0.370850        10.0913 
 399   0.0000       0.371708        10.1147 
 400   0.0000       0.373549        10.1648 
 401   0.0000       0.376343        10.2408 
 402   0.0000       0.380968        10.3667 
 403   0.0000       0.384674        10.4675 
 404   0.0000       0.387448        10.5430 
 405   0.0000       0.387747        10.5511 
 406   0.0000       0.394610        10.7379 
 407   0.0000       0.397441        10.8149 
 408   0.0000       0.399402        10.8683 
 409   0.0000       0.399737        10.8774 
 410   0.0000       0.401107        10.9147 
 411   0.0000       0.405346        11.0300 
 412   0.0000       0.407815        11.0972 
 413   0.0000       0.409181        11.1344 
 414   0.0000       0.411040        11.1850 
 415   0.0000       0.411900        11.2084 
 416   0.0000       0.416100        11.3227 
 417   0.0000       0.417689        11.3659 
 418   0.0000       0.422374        11.4934 
 419   0.0000       0.425681        11.5834 
 420   0.0000       0.428463        11.6591 
 421   0.0000       0.430092        11.7034 
 422   0.0000       0.430978        11.7275 
 423   0.0000       0.434198        11.8151 
 424   0.0000       0.437514        11.9054 
 425   0.0000       0.440800        11.9948 
 426   0.0000       0.441776        12.0213 
 427   0.0000       0.444205        12.0874 
 428   0.0000       0.448273        12.1981 
 429   0.0000       0.448792        12.2123 
 430   0.0000       0.455028        12.3820 
 431   0.0000       0.456940        12.4340 
 432   0.0000       0.459513        12.5040 
 433   0.0000       0.462237        12.5781 
 434   0.0000       0.462878        12.5956 
 435   0.0000       0.466972        12.7070 
 436   0.0000       0.474497        12.9117 
 437   0.0000       0.479638        13.0516 
 438   0.0000       0.484329        13.1793 
 439   0.0000       0.489325        13.3152 
 440   0.0000       0.492289        13.3959 
 441   0.0000       0.501687        13.6516 
 442   0.0000       0.504149        13.7186 
 443   0.0000       0.507184        13.8012 
 444   0.0000       0.510554        13.8929 
 445   0.0000       0.513103        13.9622 
 446   0.0000       0.518632        14.1127 
 447   0.0000       0.521319        14.1858 
 448   0.0000       0.521687        14.1958 
 449   0.0000       0.527955        14.3664 
 450   0.0000       0.533047        14.5049 
 451   0.0000       0.536412        14.5965 
 452   0.0000       0.542667        14.7667 
 453   0.0000       0.545106        14.8331 
 454   0.0000       0.548608        14.9284 
 455   0.0000       0.552946        15.0464 
 456   0.0000       0.556110        15.1325 
 457   0.0000       0.558448        15.1961 
 458   0.0000       0.563502        15.3337 
 459   0.0000       0.567388        15.4394 
 460   0.0000       0.573640        15.6095 
 461   0.0000       0.578423        15.7397 
 462   0.0000       0.579754        15.7759 
 463   0.0000       0.582125        15.8404 
 464   0.0000       0.584267        15.8987 
 465   0.0000       0.586902        15.9704 
 466   0.0000       0.591231        16.0882 
 467   0.0000       0.592756        16.1297 
 468   0.0000       0.601643        16.3715 
 469   0.0000       0.602497        16.3948 
 470   0.0000       0.605594        16.4790 
 471   0.0000       0.607009        16.5175 
 472   0.0000       0.608814        16.5667 
 473   0.0000       0.610599        16.6152 
 474   0.0000       0.615859        16.7584 
 475   0.0000       0.618286        16.8244 
 476   0.0000       0.620870        16.8947 
 477   0.0000       0.623067        16.9545 
 478   0.0000       0.624512        16.9938 
 479   0.0000       0.626229        17.0406 
 480   0.0000       0.627437        17.0734 
 481   0.0000       0.630875        17.1670 
 482   0.0000       0.633287        17.2326 
 483   0.0000       0.636618        17.3232 
 484   0.0000       0.636983        17.3332 
 485   0.0000       0.638708        17.3801 
 486   0.0000       0.641096        17.4451 
 487   0.0000       0.643585        17.5128 
 488   0.0000       0.646627        17.5956 
 489   0.0000       0.647695        17.6247 
 490   0.0000       0.649780        17.6814 
 491   0.0000       0.653053        17.7705 
 492   0.0000       0.655232        17.8298 
 493   0.0000       0.656366        17.8606 
 494   0.0000       0.660406        17.9705 
 495   0.0000       0.661829        18.0093 
 496   0.0000       0.665308        18.1039 
 497   0.0000       0.666362        18.1326 
 498   0.0000       0.671714        18.2783 
 499   0.0000       0.673843        18.3362 
 500   0.0000       0.678864        18.4728 
 501   0.0000       0.679735        18.4965 
 502   0.0000       0.684710        18.6319 
 503   0.0000       0.689955        18.7746 
 504   0.0000       0.691912        18.8279 
 505   0.0000       0.693506        18.8713 
 506   0.0000       0.694861        18.9081 
 507   0.0000       0.698284        19.0013 
[...]
   Time for densities:     1.571
   Using LibInt in JK Direct
   Time for J+K (Direct):  2758.357
   Time for Sigma-Completion:    12.485
   Size of expansion space: 27
   Lowest Energy          :     0.092822407757
   Maximum Energy change  :     0.002932873716 (vector 0)
   Maximum residual norm  :     0.000187993983

                       ****Iteration    7****
   Time for densities:     1.567
   Using LibInt in JK Direct
   Time for J+K (Direct):  2782.731
   Time for Sigma-Completion:    11.793
   Size of expansion space: 30
   Lowest Energy          :     0.092479152728
   Maximum Energy change  :     0.000343255029 (vector 0)
   Maximum residual norm  :     0.000027036908
   Rebuilding the expansion space

                       ****Iteration    8****
   Time for densities:     3.133
   Using LibInt in JK Direct
   Time for J+K (Direct):  5248.007
   Time for Sigma-Completion:    24.438
   Size of expansion space: 6
   Lowest Energy          :     0.092438119956
   Maximum Energy change  :     0.000041032772 (vector 0)
   Maximum residual norm  :     0.000006896914

                       ****Iteration    9****
   Time for densities:     1.572
   Using LibInt in JK Direct
   Time for J+K (Direct):  2703.933
   Time for Sigma-Completion:    11.802
   Size of expansion space: 9
   Lowest Energy          :     0.092423340486
   Maximum Energy change  :     0.000014779470 (vector 0)
   Maximum residual norm  :     0.000001522385

                       ****Iteration   10****
   Time for densities:     1.542
   Using LibInt in JK Direct
   Time for J+K (Direct):  2684.343
   Time for Sigma-Completion:    13.256
   Size of expansion space: 12
   Lowest Energy          :     0.092420414413
   Maximum Energy change  :     0.000002926073 (vector 0)
   Maximum residual norm  :     0.000000369881

                       ****Iteration   11****
   Time for densities:     1.544
   Using LibInt in JK Direct
   Time for J+K (Direct):  2725.527
   Time for Sigma-Completion:    11.061
   Size of expansion space: 15
   Lowest Energy          :     0.092419794412
   Maximum Energy change  :     0.000000620001 (vector 0)
   Maximum residual norm  :     0.000000044006

      *** CONVERGENCE OF RESIDUAL NORM REACHED ***

Storing the converged CI vectors               ... BT6IC-HD-4Cl.cis1

                 *** DAVIDSON DONE ***

Total time for solving the CIS problem: 40870.886sec

-----------------------------
CIS-EXCITED STATES (SINGLETS)
-----------------------------

the weight of the individual excitations are printed if larger than 1.0e-02

STATE  1:  E=   0.092420 au      2.515 eV    20283.8 cm**-1
   300a -> 303a  :     0.280936 (c= -0.53003415)
   300a -> 304a  :     0.321704 (c=  0.56718999)
   300a -> 305a  :     0.019065 (c=  0.13807456)
   300a -> 306a  :     0.072047 (c=  0.26841503)
   300a -> 307a  :     0.167478 (c= -0.40924090)
   300a -> 312a  :     0.017900 (c= -0.13379054)

STATE  2:  E=   0.101889 au      2.773 eV    22362.1 cm**-1
   297a -> 303a  :     0.014042 (c=  0.11850062)
   297a -> 304a  :     0.027196 (c=  0.16491116)
   301a -> 303a  :     0.208518 (c=  0.45663773)
   301a -> 304a  :     0.026163 (c=  0.16175119)
   301a -> 306a  :     0.011653 (c=  0.10794781)
   302a -> 303a  :     0.550470 (c= -0.74193681)
   302a -> 304a  :     0.041816 (c=  0.20449067)

STATE  3:  E=   0.117676 au      3.202 eV    25827.0 cm**-1
   297a -> 303a  :     0.021409 (c=  0.14631754)
   297a -> 304a  :     0.011503 (c=  0.10725343)
   298a -> 303a  :     0.010623 (c= -0.10306881)
   301a -> 303a  :     0.367814 (c=  0.60647666)
   301a -> 304a  :     0.019263 (c= -0.13879188)
   302a -> 303a  :     0.068572 (c=  0.26186179)
   302a -> 304a  :     0.320054 (c= -0.56573327)
   302a -> 306a  :     0.046572 (c= -0.21580630)
   302a -> 307a  :     0.015612 (c=  0.12494917)


----------------------
CIS-EXCITATION SPECTRA
----------------------

Center of mass = ( 18.6696, -2.2825,  1.0328)
Calculating the Dipole integrals                  ... done
Transforming integrals                            ... done
Calculating the Linear Momentum integrals         ... done
Transforming integrals                            ... done
Calculating angular momentum integrals            ... done
Transforming integrals                            ... done

-----------------------------------------------------------------------------
         ABSORPTION SPECTRUM VIA TRANSITION ELECTRIC DIPOLE MOMENTS
-----------------------------------------------------------------------------
State   Energy    Wavelength  fosc         T2        TX        TY        TZ  
        (cm-1)      (nm)                 (au**2)    (au)      (au)      (au) 
-----------------------------------------------------------------------------
   1   20283.8    493.0   0.000372487   0.00605  -0.03340   0.06078  -0.03515
   2   22362.1    447.2   1.120842583  16.50087   2.66375  -1.75475   2.51518
   3   25827.0    387.2   0.131963384   1.68211   0.98318   0.81746   0.21732

-----------------------------------------------------------------------------
         ABSORPTION SPECTRUM VIA TRANSITION VELOCITY DIPOLE MOMENTS
-----------------------------------------------------------------------------
State   Energy    Wavelength   fosc        P2         PX        PY        PZ  
        (cm-1)      (nm)                 (au**2)     (au)      (au)      (au) 
-----------------------------------------------------------------------------
   1   20283.8    493.0   0.000234423   0.00003  -0.00087   0.00066   0.00560
   2   22362.1    447.2   0.064499911   0.00986  -0.07287   0.04839  -0.04697
   3   25827.0    387.2   0.395161589   0.06975  -0.18774   0.14692  -0.11365

-------------------------------------------------------------------
                             CD SPECTRUM
-------------------------------------------------------------------
State  Energy     Wavelength     R         MX        MY        MZ   
       (cm-1)       (nm)     (1e40*cgs)   (au)      (au)      (au)  
-------------------------------------------------------------------
   1   20283.8    493.0    -13.95482   0.21375  -0.27709   0.15983
   2   22362.1    447.2    -184.34308   0.64564   1.72506   0.36426
   3   25827.0    387.2    300.50378  -0.12937   0.88155   0.20228

Total run time:    40942.609 sec

           *** ORCA-CIS/TD-DFT FINISHED WITHOUT ERROR ***

-----------------------
CIS/TD-DFT TOTAL ENERGY
-----------------------

    E(SCF)  =  -6625.650711374 Eh
    DE(CIS) =      0.092419794 Eh (Root  1)
    ----------------------------- ---------
    E(tot)  =  -6625.558291579 Eh


-------------------------   --------------------
FINAL SINGLE POINT ENERGY     -6625.558291579146
-------------------------   --------------------

------------------------------------------------------------------------------
                         ORCA SCF GRADIENT CALCULATION
------------------------------------------------------------------------------


------------
CIS GRADIENT
------------

Reference wavefunction             ... RHF
State of interest                  ... 1
Basis dimension                    ... 1304
DFT-XC contribution needed         ... NO
RI-approximation                   ... OFF
CIS-vectors being read from        ... BT6IC-HD-4Cl.cis

 => Number of Vectors found: 3
 => Orbital Window: 113...302 -> 303...1303

Reading the CIS file                     ... done
Norm of the CI vector                    ... 1.000000000
Making the CIS (pseudo)densities         ... done
Making operators G(D) and Q(T)           ... done
Transforming the Fock operators          ... done
Making the frozen-core relaxed density   ... done
Constructing the G(H) operator           ... done
Transforming the G(H) operator           ... done
Calculating the CIS Lagrangian           ... done
Solving the Z-vector equations           ... done
Finalizing the relaxed density           ... done
Storing the relaxed density              ... done
Constructing the G(Z) operator           ... done
Transforming the G(Z) operator           ... done
Making the W-matrix                      ... done
Finalizing the W-matrix                  ... done
Transforming the W-matrix                ... done
Nuclear repulsion gradient               ... done
One-Electron gradient                    ... done
Prescreening matrices                    ... done
Two-Electron gradient (4-center)         ... done
                 ---------------------------
                 EXCITED STATE GRADIENT DONE
                 ---------------------------


------------------
CARTESIAN GRADIENT
------------------

   1   C   :    0.034249679   -0.005345044   -0.021869556
   2   O   :   -0.034397757    0.006733578    0.019518568
   3   C   :   -0.009525644   -0.001258140    0.009820451
   4   C   :   -0.000097781    0.002223922   -0.001192093
   5   C   :   -0.003675814    0.003879699   -0.001018847
   6   C   :    0.004571565   -0.000614078   -0.003324095
   7   C   :   -0.000930753   -0.000610164    0.000357890
   8   C   :    0.011817645   -0.018733175    0.005863483
   9   C   :   -0.013028502    0.027740121    0.004259408
  10   C   :    0.020430143   -0.024128948   -0.006265975
  11   C   :    0.012103313    0.053766808   -0.023661322
  12   N   :   -0.004244022   -0.029524766    0.019084362
  13   C   :   -0.044773630    0.001450618    0.041127297
  14   N   :    0.026823008   -0.003504306   -0.021127221
  15   C   :    0.009919123    0.002595426   -0.016059936
  16   C   :    0.009235365   -0.007523584    0.010997879
  17   C   :   -0.016310422    0.005751909   -0.015534999
  18   S   :    0.001483759   -0.002082245   -0.015410537
  19   C   :    0.029208633   -0.000272016    0.000821369
  20   C   :   -0.025002714   -0.004689754    0.005278487
  21   C   :    0.004223698   -0.007576686    0.017605596
  22   C   :    0.004791377   -0.003167523   -0.005826725
  23   C   :    0.001566265    0.003150555    0.001819170
  24   S   :    0.000079990   -0.000489577   -0.000658367
  25   C   :   -0.003399473   -0.018419134    0.017015632
  26   C   :   -0.008371249    0.020292378   -0.033650927
  27   N   :    0.004355849    0.003924796   -0.008452353
  28   C   :   -0.009370112   -0.002348286    0.010954539
  29   C   :    0.005295054   -0.004354624   -0.000981051
  30   C   :    0.030402684    0.002262744   -0.008370318
  31   C   :   -0.000432561   -0.020385871    0.016097254
  32   C   :    0.005915132    0.025819531   -0.030097040
  33   N   :   -0.011975627   -0.014402114    0.014797651
  34   S   :   -0.001835789   -0.009809091    0.005756538
  35   N   :   -0.002734831   -0.020114687    0.012201596
  36   C   :    0.013133045    0.021389276   -0.026749770
  37   C   :    0.000087548   -0.020429410    0.012096027
  38   C   :   -0.020197762    0.020735088   -0.019072123
  39   N   :   -0.000672342    0.008483705   -0.002980031
  40   C   :    0.002805452   -0.011563165    0.003006317
  41   C   :   -0.005240246   -0.000814815    0.004795668
  42   C   :   -0.009513379    0.007306113   -0.000946328
  43   C   :    0.005951063   -0.018894163    0.012436544
  44   S   :   -0.011782015    0.001586859   -0.015909506
  45   C   :   -0.004903924   -0.004975570    0.000248683
  46   C   :    0.001331155    0.008599243   -0.001265675
  47   S   :   -0.006644101   -0.003324948   -0.001780000
  48   C   :   -0.025600049    0.034948798   -0.014717108
  49   C   :    0.018713693   -0.017736508   -0.001475807
  50   C   :   -0.005013366   -0.002948504    0.004631283
  51   C   :    0.004235767    0.000496926    0.000351119
  52   C   :    0.016046980   -0.027535550    0.009826874
  53   C   :   -0.004114401   -0.009012462    0.014725419
  54   C   :    0.024519512    0.002339549   -0.002268940
  55   C   :   -0.029550432    0.004022800    0.005230687
  56   C   :    0.028024810   -0.037955380    0.033026035
  57   N   :   -0.016255946    0.031532833   -0.015660232
  58   C   :    0.026457833    0.035835350   -0.033216294
  59   N   :   -0.015807782   -0.017846893    0.020867317
  60   C   :   -0.018476946    0.014195624   -0.005523035
  61   C   :   -0.002510539    0.004459213    0.002378633
  62   C   :    0.001304624    0.004605456   -0.000577026
  63   C   :    0.005405657    0.002819636    0.000559021
  64   C   :    0.001877002    0.000644240    0.007718081
  65   C   :    0.011244866   -0.007086066    0.010818678
  66   C   :   -0.000023372    0.051126061   -0.049784383
  67   O   :    0.000653023   -0.037922964    0.038144948
  68   Cl  :   -0.001753227    0.007566418    0.000663707
  69   Cl  :    0.005185352   -0.004556651    0.000474290
  70   C   :    0.005093884    0.001506739   -0.004109615
  71   C   :   -0.003995615   -0.001068575    0.000689717
  72   C   :    0.003934385    0.003106123   -0.001854050
  73   C   :   -0.005010954    0.004285547    0.000387756
  74   C   :    0.003648606   -0.001830166   -0.002576645
  75   C   :   -0.003284645    0.002954444   -0.003859466
  76   Cl  :   -0.005869012    0.000854319    0.003621465
  77   Cl  :    0.001324080   -0.003865173    0.008502545
  78   H   :    0.000893239   -0.000922113    0.000151656
  79   H   :    0.000852582   -0.001824036    0.001461782
  80   H   :   -0.000179925   -0.001044369    0.002086022
  81   H   :    0.002538711    0.000509170    0.003309662
  82   H   :   -0.000887232    0.003202499   -0.001278812
  83   H   :   -0.000325033   -0.001523028   -0.002673259
  84   H   :    0.002482976   -0.000022587   -0.002440856
  85   H   :    0.000573243   -0.002336176   -0.000932273
  86   H   :    0.006235352    0.001757363    0.000841413
  87   H   :   -0.008009777    0.000226789   -0.002655565
  88   H   :    0.002598717   -0.003524434    0.000145821
  89   H   :   -0.004509852    0.000647870   -0.003745109
  90   H   :    0.008071580   -0.000821078    0.001316073
  91   H   :   -0.001374442   -0.001045519    0.001609040
  92   H   :    0.000037082    0.002885481   -0.000612448
  93   H   :    0.001126944   -0.001904732   -0.001047924
  94   H   :   -0.001660900   -0.001464392    0.000156123
  95   H   :   -0.001539583   -0.000916333    0.002732869
  96   H   :   -0.002463767    0.000173086    0.001333012
  97   H   :   -0.007363707    0.011928128   -0.003282012
  98   H   :   -0.000875816    0.000392594   -0.000287573
  99   H   :   -0.000905118    0.000382070    0.000386814
 100   H   :   -0.001513697    0.000165389    0.000303263
 101   H   :   -0.000781119   -0.003379065    0.000118988
 102   H   :    0.001980681   -0.000392790   -0.001944555
 103   H   :   -0.000630784    0.000232748   -0.003477396
 104   H   :    0.000902520   -0.000300404   -0.001769509
 105   H   :   -0.002895067   -0.001648704    0.001783999
 106   H   :   -0.000027507   -0.002862761   -0.000091494
 107   H   :    0.000378931   -0.001620934    0.002488792
 108   H   :   -0.001417212    0.002339571   -0.002109483
 109   H   :    0.001345158   -0.003940882    0.004290740
 110   H   :   -0.000992547    0.001204661    0.003117681
 111   H   :    0.001090184    0.002443833    0.001748144
 112   H   :   -0.002342898    0.002193198    0.001437020
 113   H   :    0.001216027   -0.002232205    0.002416897
 114   H   :   -0.000885961   -0.001021096    0.003101662
 115   H   :   -0.001865865   -0.002208475    0.001260203

Difference to translation invariance:
           :    0.0000000001    0.0000000001   -0.0000000001

Norm of the cartesian gradient     ...    0.2365007799
RMS gradient                       ...    0.0127327740
MAX gradient                       ...    0.0537668082

-------
TIMINGS
-------

Total CIS gradient time            ...    38632.384 sec

Fock matrix formation       ....    2677.940 sec  (  6.9%)
  Coulomb formation         ....    2677.940 sec  (100.0% of F)
Z-vector equation           ....   32866.360 sec  ( 85.1%)
One electron gradient       ....      18.620 sec  (  0.0%)
Prescreening matrices       ....       1.323 sec  (  0.0%)
Two electron gradient       ....    3064.720 sec  (  7.9%)

                            ***************************************
                            *     ORCA property calculations      *
                            ***************************************

                                    ---------------------
                                    Active property flags
                                    ---------------------
   (+) Dipole Moment


------------------------------------------------------------------------------
                       ORCA ELECTRIC PROPERTIES CALCULATION
------------------------------------------------------------------------------

Dipole Moment Calculation                       ... on
Quadrupole Moment Calculation                   ... off
Polarizability Calculation                      ... off
GBWName                                         ... BT6IC-HD-4Cl.gbw
Electron density file                           ... BT6IC-HD-4Cl.scfp
The origin for moment calculation is the CENTER OF MASS  = (18.669573, -2.282546  1.032806)

-------------
DIPOLE MOMENT
-------------
                                X             Y             Z
Electronic contribution:    -41.49317     -24.80093     -17.28662
Nuclear contribution   :     42.72594      27.25109      16.34236
                        -----------------------------------------
Total Dipole Moment    :      1.23277       2.45016      -0.94426
                        -----------------------------------------
Magnitude (a.u.)       :      2.90080
Magnitude (Debye)      :      7.37325



--------------------
Rotational spectrum 
--------------------
 
Rotational constants in cm-1:     0.001211     0.000452     0.000378 
Rotational constants in MHz :    36.316482    13.535762    11.335027 

 Dipole components along the rotational axes: 
x,y,z [a.u.] :    -0.638094    -2.567907    -1.188836 
x,y,z [Debye]:    -1.621905    -6.527101    -3.021782 

 

                        *** CIS RELAXED DENSITY ***

------------------------------------------------------------------------------
                       ORCA ELECTRIC PROPERTIES CALCULATION
------------------------------------------------------------------------------

Dipole Moment Calculation                       ... on
Quadrupole Moment Calculation                   ... off
Polarizability Calculation                      ... off
GBWName                                         ... BT6IC-HD-4Cl.gbw
Electron density file                           ... BT6IC-HD-4Cl.cisp
The origin for moment calculation is the CENTER OF MASS  = (18.669573, -2.282546  1.032806)

-------------
DIPOLE MOMENT
-------------
                                X             Y             Z
Electronic contribution:    -40.86525     -26.08759     -16.16456
Nuclear contribution   :     42.72594      27.25109      16.34236
                        -----------------------------------------
Total Dipole Moment    :      1.86069       1.16351       0.17780
                        -----------------------------------------
Magnitude (a.u.)       :      2.20171
Magnitude (Debye)      :      5.59631



--------------------
Rotational spectrum 
--------------------
 
Rotational constants in cm-1:     0.001211     0.000452     0.000378 
Rotational constants in MHz :    36.316482    13.535762    11.335027 

 Dipole components along the rotational axes: 
x,y,z [a.u.] :     0.944122    -1.678845    -1.066605 
x,y,z [Debye]:     2.399766    -4.267286    -2.711094 

 

Timings for individual modules:

Sum of individual times         ...    91368.338 sec (=1522.806 min)
GTO integral calculation        ...        1.996 sec (=   0.033 min)   0.0 %
SCF iterations                  ...    11791.256 sec (= 196.521 min)  12.9 %
CIS module                      ...    40942.673 sec (= 682.378 min)  44.8 %
SCF Gradient evaluation         ...    38632.414 sec (= 643.874 min)  42.3 %
                             ****ORCA TERMINATED NORMALLY****
TOTAL RUN TIME: 1 days 1 hours 22 minutes 49 seconds 327 msec
