
                                 *****************
                                 * O   R   C   A *
                                 *****************

           --- An Ab Initio, DFT and Semiempirical electronic structure package ---

                  #######################################################
                  #                        -***-                        #
                  #          Department of theory and spectroscopy      #
                  #               Directorship: Frank Neese             #
                  #        Max Planck Institute fuer Kohlenforschung    #
                  #                Kaiser Wilhelm Platz 1               #
                  #                 D-45470 Muelheim/Ruhr               #
                  #                      Germany                        #
                  #                                                     #
                  #                  All rights reserved                #
                  #                        -***-                        #
                  #######################################################


                         Program Version 4.2.0 -  RELEASE  -


 With contributions from (in alphabetic order):
   Daniel Aravena         : Magnetic Suceptibility
   Michael Atanasov       : Ab Initio Ligand Field Theory (pilot matlab implementation)
   Alexander A. Auer      : GIAO ZORA, VPT2
   Ute Becker             : Parallelization
   Giovanni Bistoni       : ED, misc. LED, open-shell LED, HFLED
   Martin Brehm           : Molecular dynamics
   Dmytro Bykov           : SCF Hessian
   Vijay G. Chilkuri      : MRCI spin determinant printing, contributions to CSF-ICE
   Dipayan Datta          : RHF DLPNO-CCSD density
   Achintya Kumar Dutta   : EOM-CC, STEOM-CC
   Dmitry Ganyushin       : Spin-Orbit,Spin-Spin,Magnetic field MRCI
   Miquel Garcia          : C-PCM Hessian, Gaussian charge scheme
   Yang Guo               : DLPNO-NEVPT2, CIM, IAO-localization
   Andreas Hansen         : Spin unrestricted coupled pair/coupled cluster methods
   Benjamin Helmich-Paris : CASSCF linear response (MC-RPA)
   Lee Huntington         : MR-EOM, pCC
   Robert Izsak           : Overlap fitted RIJCOSX, COSX-SCS-MP3, EOM
   Christian Kollmar      : KDIIS, OOCD, Brueckner-CCSD(T), CCSD density
   Simone Kossmann        : Meta GGA functionals, TD-DFT gradient, OOMP2, MP2 Hessian
   Martin Krupicka        : AUTO-CI
   Lucas Lang             : DCDCAS
   Dagmar Lenk            : GEPOL surface, SMD
   Dimitrios Liakos       : Extrapolation schemes; Compound Job, initial MDCI parallelization
   Dimitrios Manganas     : Further ROCIS development; embedding schemes
   Dimitrios Pantazis     : SARC Basis sets
   Taras Petrenko         : DFT Hessian,TD-DFT gradient, ASA, ECA, R-Raman, ABS, FL, XAS/XES, NRVS
   Peter Pinski           : DLPNO-MP2, DLPNO-MP2 Gradient
   Christoph Reimann      : Effective Core Potentials
   Marius Retegan         : Local ZFS, SOC
   Christoph Riplinger    : Optimizer, TS searches, QM/MM, DLPNO-CCSD(T), (RO)-DLPNO pert. Triples
   Tobias Risthaus        : Range-separated hybrids, TD-DFT gradient, RPA, STAB
   Michael Roemelt        : Original ROCIS implementation
   Masaaki Saitow         : Open-shell DLPNO-CCSD energy and density
   Barbara Sandhoefer     : DKH picture change effects
   Avijit Sen             : IP-ROCIS
   Kantharuban Sivalingam : CASSCF convergence, NEVPT2, FIC-MRCI
   Bernardo de Souza      : ESD, SOC TD-DFT
   Georgi Stoychev        : AutoAux, RI-MP2 NMR
   Willem Van den Heuvel  : Paramagnetic NMR
   Boris Wezisla          : Elementary symmetry handling
   Frank Wennmohs         : Technical directorship


 We gratefully acknowledge several colleagues who have allowed us to
 interface, adapt or use parts of their codes:
   Stefan Grimme, W. Hujo, H. Kruse,             : VdW corrections, initial TS optimization,
                  C. Bannwarth                     DFT functionals, gCP, sTDA/sTD-DF
   Ed Valeev, F. Pavosevic, A. Kumar             : LibInt (2-el integral package), F12 methods
   Garnet Chan, S. Sharma, J. Yang, R. Olivares  : DMRG
   Ulf Ekstrom                                   : XCFun DFT Library
   Mihaly Kallay                                 : mrcc  (arbitrary order and MRCC methods)
   Andreas Klamt, Michael Diedenhofen            : otool_cosmo (COSMO solvation model)
   Jiri Pittner, Ondrej Demel                    : Mk-CCSD
   Frank Weinhold                                : gennbo (NPA and NBO analysis)
   Christopher J. Cramer and Donald G. Truhlar   : smd solvation model
   Lars Goerigk                                  : TD-DFT with DH, B97 family of functionals
   V. Asgeirsson, H. Jonsson                     : NEB implementation
   FAccTs GmbH                                   : IRC, NEB, NEB-TS, Multilevel, MM, QM/MM, CI optimization
   S Lehtola, MJT Oliveira, MAL Marques          : LibXC Library


 Your calculation uses the libint2 library for the computation of 2-el integrals
 For citations please refer to: http://libint.valeyev.net

 Your ORCA version has been built with support for libXC version: 4.2.3
 For citations please refer to: https://tddft.org/programs/libxc/

 This ORCA versions uses:
   CBLAS   interface :  Fast vector & matrix operations
   LAPACKE interface :  Fast linear algebra routines
   SCALAPACK package :  Parallel linear algebra routines


----- Orbital basis set information -----
Your calculation utilizes the basis: def2-SVP
   F. Weigend and R. Ahlrichs, Phys. Chem. Chem. Phys. 7, 3297 (2005).

================================================================================
                                        WARNINGS
                       Please study these warnings very carefully!
================================================================================

INFO   : Checking CIS options ...

WARNING: CIS/ROCIS methods need fully converged wavefunctions
  ===> : Setting SCFConvForced true
         You can overwrite this default with %scf ConvForced false 


INFO   : the flag for use of LIBINT has been found!

================================================================================
                                       INPUT FILE
================================================================================
NAME = BTA3.inp
|  1> # ORCA input file
|  2> # BTA3.out
|  3> ! Engrad Keepdens
|  4> %maxcore 1000
|  5> %tddft
|  6>   nroots 3 
|  7>   # nroots is the number of states to be computed
|  8>   Iroot 1
|  9>   # first excited state
| 10>   end
| 11> * xyz 0 1
| 12>    C        2.34256        -2.72292        -0.19898
| 13>    C        2.40831        -2.11529         1.07774
| 14>    C        1.43698        -1.21851         1.51602
| 15>    C        0.35885        -1.00929         0.68900
| 16>    C        0.23140        -1.71904        -0.52895
| 17>    C        1.24232        -2.55028        -1.00497
| 18>    C        3.55864        -3.60240        -0.44260
| 19>    C        4.20244        -3.57838         0.92119
| 20>    C        3.54445        -2.67255         1.74004
| 21>    C        5.24191        -4.24255         1.56196
| 22>    C        5.35322        -3.87461         2.89182
| 23>    S        4.18874        -2.63387         3.32733
| 24>    C       -0.85881        -0.13194         0.93345
| 25>    C       -1.76560        -0.58962        -0.18177
| 26>    C       -1.08208        -1.45456        -1.02346
| 27>    C       -3.09172        -0.39766        -0.55220
| 28>    C       -3.43778        -1.15480        -1.65817
| 29>    S       -2.07090        -2.06351        -2.28326
| 30>    C        6.18560        -4.47414         3.88238
| 31>    C       -4.74399        -1.33888        -2.20012
| 32>    C       -1.39976        -0.37910         2.32556
| 33>    C       -0.57541         1.34355         0.69871
| 34>    C        3.11791        -4.97383        -0.90789
| 35>    C        4.54941        -2.97840        -1.41311
| 36>    C        6.06420        -4.18896         5.24161
| 37>    C        6.75842        -4.87205         6.23003
| 38>    C        7.66179        -5.89619         5.94916
| 39>    C        7.87110        -6.15052         4.57085
| 40>    C        7.13965        -5.46842         3.55500
| 41>    C       -5.02983        -2.30662        -3.16197
| 42>    C       -6.31682        -2.60279        -3.58786
| 43>    C       -7.44411        -1.93860        -3.10662
| 44>    C       -7.17778        -0.88913        -2.19244
| 45>    C       -5.85935        -0.60230        -1.73197
| 46>    N        8.67909        -7.02777         3.96159
| 47>    N        8.43724        -6.86161         2.69023
| 48>    N        7.54191        -5.96650         2.37563
| 49>    N       -8.01085        -0.04315        -1.57284
| 50>    N       -7.23277         0.68126        -0.81629
| 51>    N       -5.95784         0.40744        -0.85365
| 52>    C        8.33223        -6.70920         6.90624
| 53>    C        8.09473        -6.84335         8.23369
| 54>    C       -8.79752        -2.25252        -3.41767
| 55>    C       -9.30324        -3.35907        -4.01445
| 56>    C       -7.75728         1.72363         0.01134
| 57>    C        9.12291        -7.62618         1.69431
| 58>    C      -10.74200        -3.55011        -4.17712
| 59>    N      -11.01202        -4.80887        -4.70621
| 60>    C       -9.93469        -5.59027        -4.97157
| 61>    S       -8.43577        -4.76829        -4.59555
| 62>    C        8.83651        -7.80162         9.04880
| 63>    N        8.33436        -7.83266        10.34658
| 64>    C        7.29963        -6.99438        10.60820
| 65>    S        6.87221        -6.04227         9.20296
| 66>    C        8.91000        -8.73567        11.31332
| 67>    O        9.75440        -8.49943         8.68239
| 68>    C        6.61648        -6.84310        11.78777
| 69>    C        5.55713        -5.91499        11.86109
| 70>    C        6.85875        -7.54706        12.97987
| 71>    C        2.85447        -5.99135        -0.00281
| 72>    C        2.41458        -7.22695        -0.44340
| 73>    C        2.21582        -7.47536        -1.79415
| 74>    C        2.46690        -6.44753        -2.69579
| 75>    C        2.91028        -5.21383        -2.26132
| 76>    C        4.42262        -1.67550        -1.86847
| 77>    C        5.36940        -1.13579        -2.72265
| 78>    C        6.46576        -1.87725        -3.13621
| 79>    C        6.59278        -3.18095        -2.66794
| 80>    C        5.65161        -3.72399        -1.81725
| 81>    C       -2.34825        -1.36251         2.56501
| 82>    C       -2.80306        -1.60213         3.84950
| 83>    C       -2.31635        -0.87631         4.92749
| 84>    C       -1.35468         0.09756         4.68417
| 85>    C       -0.90062         0.34339         3.40320
| 86>    C        0.60984         1.79043         0.13599
| 87>    C        0.81050         3.14041        -0.09711
| 88>    C       -0.16543         4.07391         0.21771
| 89>    C       -1.35673         3.61840         0.77292
| 90>    C       -1.56172         2.27399         1.00762
| 91>    O      -11.60996        -2.75712        -3.89173
| 92>    C      -12.37956        -5.21337        -4.92421
| 93>    C       -9.92373        -6.86781        -5.47031
| 94>    C       -8.69103        -7.52223        -5.67254
| 95>    C      -11.05280        -7.63408        -5.80681
| 96>    N        4.69305        -5.16322        11.92442
| 97>    N        7.00365        -8.08979        13.98140
| 98>    N      -11.93348        -8.31134        -6.09736
| 99>    N       -7.69096        -8.05947        -5.83856
|100>    C       -2.79320        -1.14127         6.32256
|101>    C        0.04058         5.53499        -0.04183
|102>    C        7.49952        -1.29661        -4.05205
|103>    C        1.72471        -8.80572        -2.27664
|104>    H        1.51979        -0.73773         2.47864
|105>    H        1.14332        -3.05767        -1.95228
|106>    H        5.87783        -4.99051         1.12670
|107>    H       -3.80723         0.22033        -0.04283
|108>    H        5.36738        -3.41965         5.54118
|109>    H        6.58202        -4.58869         7.25603
|110>    H       -4.20913        -2.87853        -3.57001
|111>    H       -6.43612        -3.38206        -4.32447
|112>    H        9.10573        -7.35718         6.50967
|113>    H       -9.53523        -1.53404        -3.07863
|114>    H       -8.83351         1.75993        -0.13874
|115>    H       -7.30579         2.67736        -0.26348
|116>    H       -7.53021         1.51677         1.05771
|117>    H        9.81732        -8.29076         2.20251
|118>    H        9.66299        -6.95905         1.02184
|119>    H        8.40568        -8.20562         1.11198
|120>    H        9.71608        -9.26468        10.80376
|121>    H        8.16680        -9.45158        11.66592
|122>    H        9.31138        -8.18693        12.16573
|123>    H        2.99634        -5.82245         1.05479
|124>    H        2.22219        -8.00899         0.27743
|125>    H        2.31372        -6.61767        -3.75201
|126>    H        3.10879        -4.43198        -2.98054
|127>    H        3.57917        -1.07398        -1.56303
|128>    H        5.24857        -0.11995        -3.07142
|129>    H        7.44118        -3.77529        -2.97620
|130>    H        5.76293        -4.74027        -1.46872
|131>    H       -2.73987        -1.94539         1.74401
|132>    H       -3.54798        -2.36783         4.01380
|133>    H       -0.95807         0.67099         5.50993
|134>    H       -0.15961         1.11204         3.23562
|135>    H        1.38793         1.08634        -0.11972
|136>    H        1.74435         3.46878        -0.53100
|137>    H       -2.13142         4.32913         1.02348
|138>    H       -2.49084         1.93887         1.44487
|139>    H      -13.00471        -4.37254        -4.62192
|140>    H      -12.62595        -6.08874        -4.32229
|141>    H      -12.55325        -5.44146        -5.97615
|142>    H       -3.71540        -1.71695         6.31702
|143>    H       -2.96255        -0.20775         6.85573
|144>    H       -2.04098        -1.70693         6.87278
|145>    H        1.07504         5.74257        -0.30341
|146>    H       -0.22443         6.12163         0.83609
|147>    H       -0.59443         5.86315        -0.86490
|148>    H        7.17003        -0.34351        -4.45780
|149>    H        7.70651        -1.97669        -4.87658
|150>    H        8.43245        -1.13615        -3.51152
|151>    H        1.83681        -9.56564        -1.50734
|152>    H        2.27021        -9.11880        -3.16478
|153>    H        0.66895        -8.74027        -2.54055
|154> *
|155> 
|156>                          ****END OF INPUT****
================================================================================

                     *******************************
                     * Energy+Gradient Calculation *
                     *******************************

---------------------------------
CARTESIAN COORDINATES (ANGSTROEM)
---------------------------------
  C      2.342560   -2.722920   -0.198980
  C      2.408310   -2.115290    1.077740
  C      1.436980   -1.218510    1.516020
  C      0.358850   -1.009290    0.689000
  C      0.231400   -1.719040   -0.528950
  C      1.242320   -2.550280   -1.004970
  C      3.558640   -3.602400   -0.442600
  C      4.202440   -3.578380    0.921190
  C      3.544450   -2.672550    1.740040
  C      5.241910   -4.242550    1.561960
  C      5.353220   -3.874610    2.891820
  S      4.188740   -2.633870    3.327330
  C     -0.858810   -0.131940    0.933450
  C     -1.765600   -0.589620   -0.181770
  C     -1.082080   -1.454560   -1.023460
  C     -3.091720   -0.397660   -0.552200
  C     -3.437780   -1.154800   -1.658170
  S     -2.070900   -2.063510   -2.283260
  C      6.185600   -4.474140    3.882380
  C     -4.743990   -1.338880   -2.200120
  C     -1.399760   -0.379100    2.325560
  C     -0.575410    1.343550    0.698710
  C      3.117910   -4.973830   -0.907890
  C      4.549410   -2.978400   -1.413110
  C      6.064200   -4.188960    5.241610
  C      6.758420   -4.872050    6.230030
  C      7.661790   -5.896190    5.949160
  C      7.871100   -6.150520    4.570850
  C      7.139650   -5.468420    3.555000
  C     -5.029830   -2.306620   -3.161970
  C     -6.316820   -2.602790   -3.587860
  C     -7.444110   -1.938600   -3.106620
  C     -7.177780   -0.889130   -2.192440
  C     -5.859350   -0.602300   -1.731970
  N      8.679090   -7.027770    3.961590
  N      8.437240   -6.861610    2.690230
  N      7.541910   -5.966500    2.375630
  N     -8.010850   -0.043150   -1.572840
  N     -7.232770    0.681260   -0.816290
  N     -5.957840    0.407440   -0.853650
  C      8.332230   -6.709200    6.906240
  C      8.094730   -6.843350    8.233690
  C     -8.797520   -2.252520   -3.417670
  C     -9.303240   -3.359070   -4.014450
  C     -7.757280    1.723630    0.011340
  C      9.122910   -7.626180    1.694310
  C    -10.742000   -3.550110   -4.177120
  N    -11.012020   -4.808870   -4.706210
  C     -9.934690   -5.590270   -4.971570
  S     -8.435770   -4.768290   -4.595550
  C      8.836510   -7.801620    9.048800
  N      8.334360   -7.832660   10.346580
  C      7.299630   -6.994380   10.608200
  S      6.872210   -6.042270    9.202960
  C      8.910000   -8.735670   11.313320
  O      9.754400   -8.499430    8.682390
  C      6.616480   -6.843100   11.787770
  C      5.557130   -5.914990   11.861090
  C      6.858750   -7.547060   12.979870
  C      2.854470   -5.991350   -0.002810
  C      2.414580   -7.226950   -0.443400
  C      2.215820   -7.475360   -1.794150
  C      2.466900   -6.447530   -2.695790
  C      2.910280   -5.213830   -2.261320
  C      4.422620   -1.675500   -1.868470
  C      5.369400   -1.135790   -2.722650
  C      6.465760   -1.877250   -3.136210
  C      6.592780   -3.180950   -2.667940
  C      5.651610   -3.723990   -1.817250
  C     -2.348250   -1.362510    2.565010
  C     -2.803060   -1.602130    3.849500
  C     -2.316350   -0.876310    4.927490
  C     -1.354680    0.097560    4.684170
  C     -0.900620    0.343390    3.403200
  C      0.609840    1.790430    0.135990
  C      0.810500    3.140410   -0.097110
  C     -0.165430    4.073910    0.217710
  C     -1.356730    3.618400    0.772920
  C     -1.561720    2.273990    1.007620
  O    -11.609960   -2.757120   -3.891730
  C    -12.379560   -5.213370   -4.924210
  C     -9.923730   -6.867810   -5.470310
  C     -8.691030   -7.522230   -5.672540
  C    -11.052800   -7.634080   -5.806810
  N      4.693050   -5.163220   11.924420
  N      7.003650   -8.089790   13.981400
  N    -11.933480   -8.311340   -6.097360
  N     -7.690960   -8.059470   -5.838560
  C     -2.793200   -1.141270    6.322560
  C      0.040580    5.534990   -0.041830
  C      7.499520   -1.296610   -4.052050
  C      1.724710   -8.805720   -2.276640
  H      1.519790   -0.737730    2.478640
  H      1.143320   -3.057670   -1.952280
  H      5.877830   -4.990510    1.126700
  H     -3.807230    0.220330   -0.042830
  H      5.367380   -3.419650    5.541180
  H      6.582020   -4.588690    7.256030
  H     -4.209130   -2.878530   -3.570010
  H     -6.436120   -3.382060   -4.324470
  H      9.105730   -7.357180    6.509670
  H     -9.535230   -1.534040   -3.078630
  H     -8.833510    1.759930   -0.138740
  H     -7.305790    2.677360   -0.263480
  H     -7.530210    1.516770    1.057710
  H      9.817320   -8.290760    2.202510
  H      9.662990   -6.959050    1.021840
  H      8.405680   -8.205620    1.111980
  H      9.716080   -9.264680   10.803760
  H      8.166800   -9.451580   11.665920
  H      9.311380   -8.186930   12.165730
  H      2.996340   -5.822450    1.054790
  H      2.222190   -8.008990    0.277430
  H      2.313720   -6.617670   -3.752010
  H      3.108790   -4.431980   -2.980540
  H      3.579170   -1.073980   -1.563030
  H      5.248570   -0.119950   -3.071420
  H      7.441180   -3.775290   -2.976200
  H      5.762930   -4.740270   -1.468720
  H     -2.739870   -1.945390    1.744010
  H     -3.547980   -2.367830    4.013800
  H     -0.958070    0.670990    5.509930
  H     -0.159610    1.112040    3.235620
  H      1.387930    1.086340   -0.119720
  H      1.744350    3.468780   -0.531000
  H     -2.131420    4.329130    1.023480
  H     -2.490840    1.938870    1.444870
  H    -13.004710   -4.372540   -4.621920
  H    -12.625950   -6.088740   -4.322290
  H    -12.553250   -5.441460   -5.976150
  H     -3.715400   -1.716950    6.317020
  H     -2.962550   -0.207750    6.855730
  H     -2.040980   -1.706930    6.872780
  H      1.075040    5.742570   -0.303410
  H     -0.224430    6.121630    0.836090
  H     -0.594430    5.863150   -0.864900
  H      7.170030   -0.343510   -4.457800
  H      7.706510   -1.976690   -4.876580
  H      8.432450   -1.136150   -3.511520
  H      1.836810   -9.565640   -1.507340
  H      2.270210   -9.118800   -3.164780
  H      0.668950   -8.740270   -2.540550

----------------------------
CARTESIAN COORDINATES (A.U.)
----------------------------
  NO LB      ZA    FRAG     MASS         X           Y           Z
   0 C     6.0000    0    12.011    4.426797   -5.145573   -0.376018
   1 C     6.0000    0    12.011    4.551046   -3.997319    2.036633
   2 C     6.0000    0    12.011    2.715499   -2.302650    2.864863
   3 C     6.0000    0    12.011    0.678128   -1.907282    1.302021
   4 C     6.0000    0    12.011    0.437283   -3.248515   -0.999571
   5 C     6.0000    0    12.011    2.347645   -4.819331   -1.899118
   6 C     6.0000    0    12.011    6.724855   -6.807549   -0.836393
   7 C     6.0000    0    12.011    7.941461   -6.762158    1.740797
   8 C     6.0000    0    12.011    6.698040   -5.050388    3.288199
   9 C     6.0000    0    12.011    9.905774   -8.017258    2.951677
  10 C     6.0000    0    12.011   10.116120   -7.321952    5.464748
  11 S    16.0000    0    32.060    7.915571   -4.977293    6.287742
  12 C     6.0000    0    12.011   -1.622916   -0.249330    1.763965
  13 C     6.0000    0    12.011   -3.336500   -1.114220   -0.343496
  14 C     6.0000    0    12.011   -2.044835   -2.748720   -1.934059
  15 C     6.0000    0    12.011   -5.842504   -0.751468   -1.043507
  16 C     6.0000    0    12.011   -6.496463   -2.182256   -3.133487
  17 S    16.0000    0    32.060   -3.913434   -3.899469   -4.314736
  18 C     6.0000    0    12.011   11.689090   -8.454899    7.336635
  19 C     6.0000    0    12.011   -8.964842   -2.530117   -4.157624
  20 C     6.0000    0    12.011   -2.645163   -0.716395    4.394672
  21 C     6.0000    0    12.011   -1.087367    2.538942    1.320371
  22 C     6.0000    0    12.011    5.891996   -9.399177   -1.715663
  23 C     6.0000    0    12.011    8.597139   -5.628360   -2.670391
  24 C     6.0000    0    12.011   11.459677   -7.915987    9.905207
  25 C     6.0000    0    12.011   12.771563   -9.206840   11.773051
  26 C     6.0000    0    12.011   14.478685  -11.142184   11.242283
  27 C     6.0000    0    12.011   14.874223  -11.622798    8.637655
  28 C     6.0000    0    12.011   13.491983  -10.333816    6.717976
  29 C     6.0000    0    12.011   -9.505001   -4.358880   -5.975257
  30 C     6.0000    0    12.011  -11.937060   -4.918560   -6.780073
  31 C     6.0000    0    12.011  -14.067329   -3.663423   -5.870661
  32 C     6.0000    0    12.011  -13.564038   -1.680212   -4.143111
  33 C     6.0000    0    12.011  -11.072567   -1.138182   -3.272949
  34 N     7.0000    0    14.007   16.401103  -13.280561    7.486320
  35 N     7.0000    0    14.007   15.944073  -12.966564    5.083798
  36 N     7.0000    0    14.007   14.252144  -11.275051    4.489290
  37 N     7.0000    0    14.007  -15.138313   -0.081542   -2.972237
  38 N     7.0000    0    14.007  -13.667954    1.287395   -1.542565
  39 N     7.0000    0    14.007  -11.258686    0.769950   -1.613165
  40 C     6.0000    0    12.011   15.745633  -12.678551   13.050902
  41 C     6.0000    0    12.011   15.296823  -12.932057   15.559419
  42 C     6.0000    0    12.011  -16.624903   -4.256646   -6.458460
  43 C     6.0000    0    12.011  -17.580576   -6.347722   -7.586211
  44 C     6.0000    0    12.011  -14.659135    3.257189    0.021429
  45 C     6.0000    0    12.011   17.239801  -14.411392    3.201782
  46 C     6.0000    0    12.011  -20.299438   -6.708736   -7.893613
  47 N     7.0000    0    14.007  -20.809702   -9.087447   -8.893448
  48 C     6.0000    0    12.011  -18.773843  -10.564079   -9.394906
  49 S    16.0000    0    32.060  -15.941295   -9.010762   -8.684331
  50 C     6.0000    0    12.011   16.698584  -14.742925   17.099754
  51 N     7.0000    0    14.007   15.749658  -14.801582   19.552203
  52 C     6.0000    0    12.011   13.794302  -13.217463   20.046593
  53 S    16.0000    0    32.060   12.986595  -11.418236   17.391074
  54 C     6.0000    0    12.011   16.837460  -16.508024   21.379076
  55 O     8.0000    0    15.999   18.433145  -16.061595   16.407339
  56 C     6.0000    0    12.011   12.503335  -12.931585   22.275657
  57 C     6.0000    0    12.011   10.501454  -11.177711   22.414212
  58 C     6.0000    0    12.011   12.961159  -14.261877   24.528400
  59 C     6.0000    0    12.011    5.394167  -11.322011   -0.005310
  60 C     6.0000    0    12.011    4.562895  -13.656956   -0.837905
  61 C     6.0000    0    12.011    4.187293  -14.126383   -3.390452
  62 C     6.0000    0    12.011    4.661765  -12.184066   -5.094305
  63 C     6.0000    0    12.011    5.499632   -9.852711   -4.273276
  64 C     6.0000    0    12.011    8.357541   -3.166236   -3.530897
  65 C     6.0000    0    12.011   10.146696   -2.146332   -5.145063
  66 C     6.0000    0    12.011   12.218516   -3.547488   -5.926578
  67 C     6.0000    0    12.011   12.458549   -6.011124   -5.041676
  68 C     6.0000    0    12.011   10.679995   -7.037321   -3.434105
  69 C     6.0000    0    12.011   -4.437549   -2.574771    4.847166
  70 C     6.0000    0    12.011   -5.297016   -3.027587    7.274501
  71 C     6.0000    0    12.011   -4.377267   -1.655986    9.311607
  72 C     6.0000    0    12.011   -2.559974    0.184362    8.851798
  73 C     6.0000    0    12.011   -1.701925    0.648913    6.431116
  74 C     6.0000    0    12.011    1.152431    3.383422    0.256984
  75 C     6.0000    0    12.011    1.531623    5.934515   -0.183511
  76 C     6.0000    0    12.011   -0.312617    7.698574    0.411412
  77 C     6.0000    0    12.011   -2.563848    6.837785    1.460607
  78 C     6.0000    0    12.011   -2.951223    4.297218    1.904126
  79 O     8.0000    0    15.999  -21.939645   -5.210202   -7.354304
  80 C     6.0000    0    12.011  -23.393978   -9.851842   -9.305408
  81 C     6.0000    0    12.011  -18.753132  -12.978280  -10.337388
  82 C     6.0000    0    12.011  -16.423667  -14.214955  -10.719547
  83 C     6.0000    0    12.011  -20.886765  -14.426320  -10.973281
  84 N     7.0000    0    14.007    8.868579   -9.757072   22.533888
  85 N     7.0000    0    14.007   13.234980  -15.287488   26.421017
  86 N     7.0000    0    14.007  -22.551009  -15.706156  -11.522341
  87 N     7.0000    0    14.007  -14.533808  -15.230191  -11.033279
  88 C     6.0000    0    12.011   -5.278383   -2.156688   11.947907
  89 C     6.0000    0    12.011    0.076685   10.459615   -0.079047
  90 C     6.0000    0    12.011   14.172039   -2.450238   -7.657265
  91 C     6.0000    0    12.011    3.259230  -16.640399   -4.302226
  92 H     1.0000    0     1.008    2.871987   -1.394108    4.683951
  93 H     1.0000    0     1.008    2.160562   -5.778159   -3.689275
  94 H     1.0000    0     1.008   11.107489   -9.430697    2.129154
  95 H     1.0000    0     1.008   -7.194622    0.416363   -0.080937
  96 H     1.0000    0     1.008   10.142878   -6.462202   10.471313
  97 H     1.0000    0     1.008   12.438215   -8.671367   13.711910
  98 H     1.0000    0     1.008   -7.954103   -5.439633   -6.746341
  99 H     1.0000    0     1.008  -12.162504   -6.391167   -8.172064
 100 H     1.0000    0     1.008   17.207336  -13.903055   12.301494
 101 H     1.0000    0     1.008  -18.018973   -2.898915   -5.817768
 102 H     1.0000    0     1.008  -16.692915    3.325786   -0.262181
 103 H     1.0000    0     1.008  -13.805942    5.059477   -0.497905
 104 H     1.0000    0     1.008  -14.230035    2.866280    1.998782
 105 H     1.0000    0     1.008   18.552046  -15.667266    4.162141
 106 H     1.0000    0     1.008   18.260405  -13.150699    1.930998
 107 H     1.0000    0     1.008   15.884433  -15.506375    2.101338
 108 H     1.0000    0     1.008   18.360730  -17.507708   20.416148
 109 H     1.0000    0     1.008   15.433015  -17.860898   22.045394
 110 H     1.0000    0     1.008   17.595958  -15.471056   22.989898
 111 H     1.0000    0     1.008    5.662262  -11.002836    1.993264
 112 H     1.0000    0     1.008    4.199331  -15.134798    0.524267
 113 H     1.0000    0     1.008    4.372297  -12.505584   -7.090271
 114 H     1.0000    0     1.008    5.874762   -8.375228   -5.632404
 115 H     1.0000    0     1.008    6.763651   -2.029528   -2.953699
 116 H     1.0000    0     1.008    9.918360   -0.226673   -5.804143
 117 H     1.0000    0     1.008   14.061792   -7.134264   -5.624203
 118 H     1.0000    0     1.008   10.890359   -8.957812   -2.775479
 119 H     1.0000    0     1.008   -5.177604   -3.676254    3.295701
 120 H     1.0000    0     1.008   -6.704711   -4.474550    7.584983
 121 H     1.0000    0     1.008   -1.810490    1.267987   10.412259
 122 H     1.0000    0     1.008   -0.301619    2.101451    6.114436
 123 H     1.0000    0     1.008    2.622808    2.052885   -0.226238
 124 H     1.0000    0     1.008    3.296344    6.555044   -1.003445
 125 H     1.0000    0     1.008   -4.027800    8.180870    1.934097
 126 H     1.0000    0     1.008   -4.707005    3.663933    2.730409
 127 H     1.0000    0     1.008  -24.575340   -8.262903   -8.734163
 128 H     1.0000    0     1.008  -23.859588  -11.506051   -8.167944
 129 H     1.0000    0     1.008  -23.722205  -10.282869  -11.293287
 130 H     1.0000    0     1.008   -7.021088   -3.244565   11.937438
 131 H     1.0000    0     1.008   -5.598408   -0.392591   12.955452
 132 H     1.0000    0     1.008   -3.856893   -3.225630   12.987672
 133 H     1.0000    0     1.008    2.031531   10.851885   -0.573362
 134 H     1.0000    0     1.008   -0.424111   11.568204    1.579981
 135 H     1.0000    0     1.008   -1.123310   11.079748   -1.634424
 136 H     1.0000    0     1.008   13.549393   -0.649140   -8.424021
 137 H     1.0000    0     1.008   14.563193   -3.735403   -9.215401
 138 H     1.0000    0     1.008   15.935021   -2.147012   -6.635811
 139 H     1.0000    0     1.008    3.471068  -18.076440   -2.848460
 140 H     1.0000    0     1.008    4.290075  -17.232035   -5.980567
 141 H     1.0000    0     1.008    1.264132  -16.516717   -4.800944

--------------------------------
INTERNAL COORDINATES (ANGSTROEM)
--------------------------------
 C      0   0   0     0.000000000000     0.00000000     0.00000000
 C      1   0   0     1.415468557687     0.00000000     0.00000000
 C      2   1   0     1.392761894833   121.86020705     0.00000000
 C      3   2   1     1.374808854241   117.10366694     4.05503499
 C      4   3   2     1.415411872036   120.79273094     2.25864316
 C      1   2   3     1.374755435450   120.80229855   353.48308131
 C      1   2   3     1.520423079672   110.83549139   177.33502074
 C      7   1   2     1.508303207084   100.79559437     8.12798565
 C      8   7   1     1.387081162550   109.98047040   352.73306473
 C      8   7   1     1.390038079586   136.75125124   170.70518416
 C     10   8   7     1.384303933138   112.08454696   184.02973283
 S      9   8   7     1.713503805248   112.53401566   177.93019338
 C      4   3   2     1.520590247437   128.24864037   177.68960856
 C     13   4   3     1.508461048519   100.80495185   192.22424331
 C     14  13   4     1.386997783019   109.97495771   352.86644008
 C     14  13   4     1.390201884943   136.76298067   170.75282038
 C     16  14  13     1.384264477656   112.07597604   184.18274658
 S     15  14  13     1.713382950452   112.54585310   177.79604754
 C     11  10   8     1.426009045869   127.04967535   171.30923584
 C     17  16  14     1.426106522319   127.09940791   171.21227676
 C     13   4   3     1.513831305067   109.86355685   313.47120127
 C     13   4   3     1.520687070932   112.69214113    78.49945765
 C      7   1   2     1.513789272620   109.90314112   129.46712140
 C      7   1   2     1.520819138820   112.70455535   254.39623235
 C     19  11  10     1.394120434288   122.71236105   191.35285605
 C     25  19  11     1.387633760363   123.38181943   172.41451388
 C     26  25  19     1.394212341575   122.83808376     1.10334589
 C     27  26  25     1.417121336054   115.05390040     2.87783637
 C     19  11  10     1.416326863863   121.85520365     7.25942948
 C     20  17  16     1.394051876976   122.65718633   192.04519790
 C     30  20  17     1.387603048822   123.37468183   172.37402301
 C     31  30  20     1.394102950933   122.84330968     1.18798509
 C     32  31  30     1.417054699791   115.05971040     2.87266885
 C     20  17  16     1.416242369265   121.90993636     7.96120716
 N     28  27  26     1.339258432940   130.47612266   178.38179890
 N     35  28  27     1.304782287472   104.36079365   178.01279347
 N     36  35  28     1.304534737368   116.71642277   359.61373347
 N     33  32  31     1.339250516259   130.49476767   178.34833607
 N     38  33  32     1.304816553007   104.36005833   177.96249025
 N     39  38  33     1.304538104810   116.72079088   359.60193862
 C     27  26  25     1.423543880637   126.10304230   185.12565654
 C     41  27  26     1.355184849015   129.23920847    12.51726676
 C     32  31  30     1.423733295600   126.02994472   185.06917099
 C     43  32  31     1.355120654886   129.12530289    13.33344619
 C     39  38  33     1.430600354362   121.42094590   179.58496632
 C     36  35  28     1.430582846325   121.42828719   179.62096183
 C     44  43  32     1.460475315813   121.56778639   175.93182224
 N     47  44  43     1.391877784182   110.59427139   185.32349371
 C     48  47  44     1.357071044014   116.17104732   359.55277294
 S     49  48  47     1.750372339589   111.55642544   358.81248382
 C     42  41  27     1.460453105512   121.50937751   175.84963346
 N     51  42  41     1.391887578973   110.59621699   185.11283994
 C     52  51  42     1.357138370138   116.16948352   359.47151084
 S     53  52  51     1.750400173132   111.55506025   358.99642952
 C     52  51  42     1.442697022004   119.65635231   178.79565725
 O     51  42  41     1.209841781515   126.49579566     4.37467129
 C     53  52  51     1.371482754467   127.85810856   179.03056353
 C     57  53  52     1.410314297240   119.43634658   180.25848161
 C     57  53  52     1.405473886097   126.04257979   359.74798477
 C     23   7   1     1.387053492263   121.28725649   270.63624955
 C     60  23   7     1.383593191729   120.51168620   178.08313161
 C     61  60  23     1.387709850149   121.02118408   359.45404844
 C     62  61  60     1.390118831216   118.23617893   359.82279079
 C     63  62  61     1.381074109271   120.95901808     0.39035629
 C     24   7   1     1.385993089341   122.39618746     8.13860499
 C     65  24   7     1.384667008670   120.43310491   178.17025692
 C     66  65  24     1.386650660693   121.07642718   359.64160219
 C     67  66  65     1.391058792180   118.22474808   359.88145648
 C     68  67  66     1.379988002339   120.93304475     0.16352849
 C     21  13   4     1.387106632779   121.25454366   270.71502840
 C     70  21  13     1.383540545340   120.51983653   178.07608733
 C     71  70  21     1.387718896823   121.01847274   359.45270849
 C     72  71  70     1.390121069619   118.23423927   359.80873318
 C     73  72  71     1.381118030220   120.96224670     0.39941536
 C     22  13   4     1.386063885721   122.33435815     8.80741527
 C     75  22  13     1.384574319421   120.43973440   178.05210913
 C     76  75  22     1.386713109226   121.07365245   359.65856284
 C     77  76  75     1.391022355751   118.22264250   359.86082557
 C     78  77  76     1.380051896923   120.93716086     0.15522381
 O     47  44  43     1.209807899544   126.49515027     4.60181632
 C     48  47  44     1.442674565382   119.66318232   178.83788524
 C     49  48  47     1.371484655693   127.86544391   178.83556759
 C     82  49  48     1.410216933418   119.43284683   180.33688460
 C     82  49  48     1.405418452917   126.05256364   359.77719068
 N     58  57  53     1.147084595050   179.72937012   149.43643773
 N     59  57  53     1.148309280551   176.60665968   183.08275994
 N     84  82  49     1.148345624148   176.61084299   182.36248904
 N     83  82  49     1.147314021051   179.71125267   175.24148087
 C     72  71  70     1.497935255276   121.28514366   180.69723833
 C     77  76  75     1.498184200324   121.35910489   180.49275565
 C     67  66  65     1.498187389081   121.37507741   180.46403654
 C     62  61  60     1.497946381484   121.29609606   180.71173470
 H      3   2   1     1.079186809084   120.93273937   182.14191901
 H      6   1   2     1.079185733875   121.93869799   184.19900303
 H     10   8   7     1.073913253294   126.06913296     1.42500145
 H     16  14  13     1.073929232818   126.05907289     1.56534557
 H     25  19  11     1.080341692892   118.17622319   354.63588201
 H     26  25  19     1.078928102146   117.79325456   181.12111747
 H     30  20  17     1.080336141995   118.18541156   354.61777268
 H     31  30  20     1.078929337353   117.79176887   181.11127810
 H     41  27  26     1.084180840681   115.55794837   188.56441777
 H     43  32  31     1.084148364432   115.61974344   189.32215206
 H     45  39  38     1.087250067510   107.90201237   359.54620373
 H     45  39  38     1.090399085381   109.85752800   239.34020425
 H     45  39  38     1.090523737202   109.90994765   119.71030233
 H     46  36  35     1.087262187561   107.90229476   359.49836040
 H     46  36  35     1.090396599499   109.86158329   239.28805771
 H     46  36  35     1.090540148459   109.90642790   119.65864235
 H     55  52  51     1.090535620739   106.58571591     0.88889464
 H     55  52  51     1.090504529152   110.83321377   241.62290793
 H     55  52  51     1.090332197131   110.83902760   120.22817924
 H     60  23   7     1.080357379250   119.94361471   357.85046635
 H     61  60  23     1.080831329394   119.36552497   179.53206944
 H     63  62  61     1.080746233119   119.46471130   180.31823296
 H     64  63  62     1.080728018976   119.72650548   179.38480122
 H     65  24   7     1.080059168055   120.13705847   357.82770345
 H     66  65  24     1.080819738624   119.27252976   179.59965453
 H     68  67  66     1.080762149226   119.41003551   180.14563024
 H     69  68  67     1.080134409090   119.92521100   179.59591629
 H     70  21  13     1.080350090850   119.94654312   357.84778112
 H     71  70  21     1.080831525447   119.36618467   179.53644791
 H     73  72  71     1.080740965542   119.46199257   180.32325099
 H     74  73  72     1.080741272923   119.72422348   179.39348141
 H     75  22  13     1.080071469996   120.13074524   357.72643222
 H     76  75  22     1.080815993359   119.27685828   179.61680396
 H     78  77  76     1.080769190253   119.41071819   180.14422747
 H     79  78  77     1.080165242590   119.92367094   179.63874610
 H     81  48  47     1.090498443603   106.57902038     1.06160764
 H     81  48  47     1.090544980916   110.84388960   241.79219131
 H     81  48  47     1.090307767468   110.82122003   120.39421738
 H     89  72  71     1.087148101226   111.03619968   343.51201400
 H     89  72  71     1.088305683988   110.73681804   222.34001705
 H     89  72  71     1.090205582631   110.00888875   103.31818981
 H     90  77  76     1.087023939203   111.02510424   349.03857417
 H     90  77  76     1.088632314466   110.63130736   228.09073407
 H     90  77  76     1.090124263834   110.13742834   109.07681525
 H     91  67  66     1.087012572420   111.02927990   349.67211118
 H     91  67  66     1.088670467773   110.61383988   228.74557916
 H     91  67  66     1.090081867293   110.14892656   109.74104898
 H     92  62  61     1.087137206796   111.04302825   343.57289152
 H     92  62  61     1.088293157196   110.73347596   222.39854655
 H     92  62  61     1.090211616247   110.00785607   103.38331944

---------------------------
INTERNAL COORDINATES (A.U.)
---------------------------
 C      0   0   0     0.000000000000     0.00000000     0.00000000
 C      1   0   0     2.674847925205     0.00000000     0.00000000
 C      2   1   0     2.631938550996   121.86020705     0.00000000
 C      3   2   1     2.598012221006   117.10366694     4.05503499
 C      4   3   2     2.674740804849   120.79273094     2.25864316
 C      1   2   3     2.597911274121   120.80229855   353.48308131
 C      1   2   3     2.873183228274   110.83549139   177.33502074
 C      7   1   2     2.850279988304   100.79559437     8.12798565
 C      8   7   1     2.621203522740   109.98047040   352.73306473
 C      8   7   1     2.626791286140   136.75125124   170.70518416
 C     10   8   7     2.615955319740   112.08454696   184.02973283
 S      9   8   7     3.238052921351   112.53401566   177.93019338
 C      4   3   2     2.873499129567   128.24864037   177.68960856
 C     13   4   3     2.850578265389   100.80495185   192.22424331
 C     14  13   4     2.621045958262   109.97495771   352.86644008
 C     14  13   4     2.627100833404   136.76298067   170.75282038
 C     16  14  13     2.615880759685   112.07597604   184.18274658
 S     15  14  13     3.237824538884   112.54585310   177.79604754
 C     11  10   8     2.694766561187   127.04967535   171.30923584
 C     17  16  14     2.694950764981   127.09940791   171.21227676
 C     13   4   3     2.860726579533   109.86355685   313.47120127
 C     13   4   3     2.873682099457   112.69214113    78.49945765
 C      7   1   2     2.860647149720   109.90314112   129.46712140
 C      7   1   2     2.873931671595   112.70455535   254.39623235
 C     19  11  10     2.634505818508   122.71236105   191.35285605
 C     25  19  11     2.622247781270   123.38181943   172.41451388
 C     26  25  19     2.634679498110   122.83808376     1.10334589
 C     27  26  25     2.677971223679   115.05390040     2.87783637
 C     19  11  10     2.676469888817   121.85520365     7.25942948
 C     20  17  16     2.634376263963   122.65718633   192.04519790
 C     30  20  17     2.622189744868   123.37468183   172.37402301
 C     31  30  20     2.634472779755   122.84330968     1.18798509
 C     32  31  30     2.677845299391   115.05971040     2.87266885
 C     20  17  16     2.676310217166   121.90993636     7.96120716
 N     28  27  26     2.530831660801   130.47612266   178.38179890
 N     35  28  27     2.465681187713   104.36079365   178.01279347
 N     36  35  28     2.465213385813   116.71642277   359.61373347
 N     33  32  31     2.530816700442   130.49476767   178.34833607
 N     38  33  32     2.465745940190   104.36005833   177.96249025
 N     39  38  33     2.465219749355   116.72079088   359.60193862
 C     27  26  25     2.690108074024   126.10304230   185.12565654
 C     41  27  26     2.560928225478   129.23920847    12.51726676
 C     32  31  30     2.690466016429   126.02994472   185.06917099
 C     43  32  31     2.560806916155   129.12530289    13.33344619
 C     39  38  33     2.703442876834   121.42094590   179.58496632
 C     36  35  28     2.703409791440   121.42828719   179.62096183
 C     44  43  32     2.759898372239   121.56778639   175.93182224
 N     47  44  43     2.630267823994   110.59427139   185.32349371
 C     48  47  44     2.564492617460   116.17104732   359.55277294
 S     49  48  47     3.307724354215   111.55642544   358.81248382
 C     42  41  27     2.759856400853   121.50937751   175.84963346
 N     51  42  41     2.630286333466   110.59621699   185.11283994
 C     52  51  42     2.564619845396   116.16948352   359.47151084
 S     53  52  51     3.307776951988   111.55506025   358.99642952
 C     52  51  42     2.726302265812   119.65635231   178.79565725
 O     51  42  41     2.286269632439   126.49579566     4.37467129
 C     53  52  51     2.591726803338   127.85810856   179.03056353
 C     57  53  52     2.665107784538   119.43634658   180.25848161
 C     57  53  52     2.655960733101   126.04257979   359.74798477
 C     23   7   1     2.621151233477   121.28725649   270.63624955
 C     60  23   7     2.614612213127   120.51168620   178.08313161
 C     61  60  23     2.622391570126   121.02118408   359.45404844
 C     62  61  60     2.626943884604   118.23617893   359.82279079
 C     63  62  61     2.609851837172   120.95901808     0.39035629
 C     24   7   1     2.619147362361   122.39618746     8.13860499
 C     65  24   7     2.616641433063   120.43310491   178.17025692
 C     66  65  24     2.620389992131   121.07642718   359.64160219
 C     67  66  65     2.628720153403   118.22474808   359.88145648
 C     68  67  66     2.607799392518   120.93304475     0.16352849
 C     21  13   4     2.621251654498   121.25454366   270.71502840
 C     70  21  13     2.614512725869   120.51983653   178.07608733
 C     71  70  21     2.622408665863   121.01847274   359.45270849
 C     72  71  70     2.626948114574   118.23423927   359.80873318
 C     73  72  71     2.609934835737   120.96224670     0.39941536
 C     22  13   4     2.619281148131   122.33435815     8.80741527
 C     75  22  13     2.616466275766   120.43973440   178.05210913
 C     76  75  22     2.620508002756   121.07365245   359.65856284
 C     77  76  75     2.628651298532   118.22264250   359.86082557
 C     78  77  76     2.607920135782   120.93716086     0.15522381
 O     47  44  43     2.286205604793   126.49515027     4.60181632
 C     48  47  44     2.726259828946   119.66318232   178.83788524
 C     49  48  47     2.591730396134   127.86544391   178.83556759
 C     82  49  48     2.664923793579   119.43284683   180.33688460
 C     82  49  48     2.655855979573   126.05256364   359.77719068
 N     58  57  53     2.167675737084   179.72937012   149.43643773
 N     59  57  53     2.169990057282   176.60665968   183.08275994
 N     84  82  49     2.170058736727   176.61084299   182.36248904
 N     83  82  49     2.168109289394   179.71125267   175.24148087
 C     72  71  70     2.830687398818   121.28514366   180.69723833
 C     77  76  75     2.831157836780   121.35910489   180.49275565
 C     67  66  65     2.831163862657   121.37507741   180.46403654
 C     62  61  60     2.830708424302   121.29609606   180.71173470
 H      3   2   1     2.039367516508   120.93273937   182.14191901
 H      6   1   2     2.039365484659   121.93869799   184.19900303
 H     10   8   7     2.029401940314   126.06913296     1.42500145
 H     16  14  13     2.029432137237   126.05907289     1.56534557
 H     25  19  11     2.041549930622   118.17622319   354.63588201
 H     26  25  19     2.038878631247   117.79325456   181.12111747
 H     30  20  17     2.041539440947   118.18541156   354.61777268
 H     31  30  20     2.038880965449   117.79176887   181.11127810
 H     41  27  26     2.048804868532   115.55794837   188.56441777
 H     43  32  31     2.048743497315   115.61974344   189.32215206
 H     45  39  38     2.054604866681   107.90201237   359.54620373
 H     45  39  38     2.060555648049   109.85752800   239.34020425
 H     45  39  38     2.060791205851   109.90994765   119.71030233
 H     46  36  35     2.054627770258   107.90229476   359.49836040
 H     46  36  35     2.060550950413   109.86158329   239.28805771
 H     46  36  35     2.060822218632   109.90642790   119.65864235
 H     55  52  51     2.060813662482   106.58571591     0.88889464
 H     55  52  51     2.060754907897   110.83321377   241.62290793
 H     55  52  51     2.060429247574   110.83902760   120.22817924
 H     60  23   7     2.041579573543   119.94361471   357.85046635
 H     61  60  23     2.042475209517   119.36552497   179.53206944
 H     63  62  61     2.042314400861   119.46471130   180.31823296
 H     64  63  62     2.042279981120   119.72650548   179.38480122
 H     65  24   7     2.041016036055   120.13705847   357.82770345
 H     66  65  24     2.042453306136   119.27252976   179.59965453
 H     68  67  66     2.042344477946   119.41003551   180.14563024
 H     69  68  67     2.041158221005   119.92521100   179.59591629
 H     70  21  13     2.041565800464   119.94654312   357.84778112
 H     71  70  21     2.042475580003   119.36618467   179.53644791
 H     73  72  71     2.042304446583   119.46199257   180.32325099
 H     74  73  72     2.042305027451   119.72422348   179.39348141
 H     75  22  13     2.041039283355   120.13074524   357.72643222
 H     76  75  22     2.042446228610   119.27685828   179.61680396
 H     78  77  76     2.042357783558   119.41071819   180.14422747
 H     79  78  77     2.041216487876   119.92367094   179.63874610
 H     81  48  47     2.060743407877   106.57902038     1.06160764
 H     81  48  47     2.060831350653   110.84388960   241.79219131
 H     81  48  47     2.060383082201   110.82122003   120.39421738
 H     89  72  71     2.054412178330   111.03619968   343.51201400
 H     89  72  71     2.056599692727   110.73681804   222.34001705
 H     89  72  71     2.060189980845   110.00888875   103.31818981
 H     90  77  76     2.054177546110   111.02510424   349.03857417
 H     90  77  76     2.057216934878   110.63130736   228.09073407
 H     90  77  76     2.060036310589   110.13742834   109.07681525
 H     91  67  66     2.054156066004   111.02927990   349.67211118
 H     91  67  66     2.057289034178   110.61383988   228.74557916
 H     91  67  66     2.059956192736   110.14892656   109.74104898
 H     92  62  61     2.054391590840   111.04302825   343.57289152
 H     92  62  61     2.056576020521   110.73347596   222.39854655
 H     92  62  61     2.060201382727   110.00785607   103.38331944

---------------------
BASIS SET INFORMATION
---------------------
There are 5 groups of distinct atoms

 Group   1 Type C   : 7s4p1d contracted to 3s2p1d pattern {511/31/1}
 Group   2 Type S   : 10s7p1d contracted to 4s3p1d pattern {5311/511/1}
 Group   3 Type N   : 7s4p1d contracted to 3s2p1d pattern {511/31/1}
 Group   4 Type O   : 7s4p1d contracted to 3s2p1d pattern {511/31/1}
 Group   5 Type H   : 4s1p contracted to 2s1p pattern {31/1}

Atom   0C    basis set group =>   1
Atom   1C    basis set group =>   1
Atom   2C    basis set group =>   1
Atom   3C    basis set group =>   1
Atom   4C    basis set group =>   1
Atom   5C    basis set group =>   1
Atom   6C    basis set group =>   1
Atom   7C    basis set group =>   1
Atom   8C    basis set group =>   1
Atom   9C    basis set group =>   1
Atom  10C    basis set group =>   1
Atom  11S    basis set group =>   2
Atom  12C    basis set group =>   1
Atom  13C    basis set group =>   1
Atom  14C    basis set group =>   1
Atom  15C    basis set group =>   1
Atom  16C    basis set group =>   1
Atom  17S    basis set group =>   2
Atom  18C    basis set group =>   1
Atom  19C    basis set group =>   1
Atom  20C    basis set group =>   1
Atom  21C    basis set group =>   1
Atom  22C    basis set group =>   1
Atom  23C    basis set group =>   1
Atom  24C    basis set group =>   1
Atom  25C    basis set group =>   1
Atom  26C    basis set group =>   1
Atom  27C    basis set group =>   1
Atom  28C    basis set group =>   1
Atom  29C    basis set group =>   1
Atom  30C    basis set group =>   1
Atom  31C    basis set group =>   1
Atom  32C    basis set group =>   1
Atom  33C    basis set group =>   1
Atom  34N    basis set group =>   3
Atom  35N    basis set group =>   3
Atom  36N    basis set group =>   3
Atom  37N    basis set group =>   3
Atom  38N    basis set group =>   3
Atom  39N    basis set group =>   3
Atom  40C    basis set group =>   1
Atom  41C    basis set group =>   1
Atom  42C    basis set group =>   1
Atom  43C    basis set group =>   1
Atom  44C    basis set group =>   1
Atom  45C    basis set group =>   1
Atom  46C    basis set group =>   1
Atom  47N    basis set group =>   3
Atom  48C    basis set group =>   1
Atom  49S    basis set group =>   2
Atom  50C    basis set group =>   1
Atom  51N    basis set group =>   3
Atom  52C    basis set group =>   1
Atom  53S    basis set group =>   2
Atom  54C    basis set group =>   1
Atom  55O    basis set group =>   4
Atom  56C    basis set group =>   1
Atom  57C    basis set group =>   1
Atom  58C    basis set group =>   1
Atom  59C    basis set group =>   1
Atom  60C    basis set group =>   1
Atom  61C    basis set group =>   1
Atom  62C    basis set group =>   1
Atom  63C    basis set group =>   1
Atom  64C    basis set group =>   1
Atom  65C    basis set group =>   1
Atom  66C    basis set group =>   1
Atom  67C    basis set group =>   1
Atom  68C    basis set group =>   1
Atom  69C    basis set group =>   1
Atom  70C    basis set group =>   1
Atom  71C    basis set group =>   1
Atom  72C    basis set group =>   1
Atom  73C    basis set group =>   1
Atom  74C    basis set group =>   1
Atom  75C    basis set group =>   1
Atom  76C    basis set group =>   1
Atom  77C    basis set group =>   1
Atom  78C    basis set group =>   1
Atom  79O    basis set group =>   4
Atom  80C    basis set group =>   1
Atom  81C    basis set group =>   1
Atom  82C    basis set group =>   1
Atom  83C    basis set group =>   1
Atom  84N    basis set group =>   3
Atom  85N    basis set group =>   3
Atom  86N    basis set group =>   3
Atom  87N    basis set group =>   3
Atom  88C    basis set group =>   1
Atom  89C    basis set group =>   1
Atom  90C    basis set group =>   1
Atom  91C    basis set group =>   1
Atom  92H    basis set group =>   5
Atom  93H    basis set group =>   5
Atom  94H    basis set group =>   5
Atom  95H    basis set group =>   5
Atom  96H    basis set group =>   5
Atom  97H    basis set group =>   5
Atom  98H    basis set group =>   5
Atom  99H    basis set group =>   5
Atom 100H    basis set group =>   5
Atom 101H    basis set group =>   5
Atom 102H    basis set group =>   5
Atom 103H    basis set group =>   5
Atom 104H    basis set group =>   5
Atom 105H    basis set group =>   5
Atom 106H    basis set group =>   5
Atom 107H    basis set group =>   5
Atom 108H    basis set group =>   5
Atom 109H    basis set group =>   5
Atom 110H    basis set group =>   5
Atom 111H    basis set group =>   5
Atom 112H    basis set group =>   5
Atom 113H    basis set group =>   5
Atom 114H    basis set group =>   5
Atom 115H    basis set group =>   5
Atom 116H    basis set group =>   5
Atom 117H    basis set group =>   5
Atom 118H    basis set group =>   5
Atom 119H    basis set group =>   5
Atom 120H    basis set group =>   5
Atom 121H    basis set group =>   5
Atom 122H    basis set group =>   5
Atom 123H    basis set group =>   5
Atom 124H    basis set group =>   5
Atom 125H    basis set group =>   5
Atom 126H    basis set group =>   5
Atom 127H    basis set group =>   5
Atom 128H    basis set group =>   5
Atom 129H    basis set group =>   5
Atom 130H    basis set group =>   5
Atom 131H    basis set group =>   5
Atom 132H    basis set group =>   5
Atom 133H    basis set group =>   5
Atom 134H    basis set group =>   5
Atom 135H    basis set group =>   5
Atom 136H    basis set group =>   5
Atom 137H    basis set group =>   5
Atom 138H    basis set group =>   5
Atom 139H    basis set group =>   5
Atom 140H    basis set group =>   5
Atom 141H    basis set group =>   5
------------------------------------------------------------------------------
                           ORCA GTO INTEGRAL CALCULATION
------------------------------------------------------------------------------

                         BASIS SET STATISTICS AND STARTUP INFO

 # of primitive gaussian shells          ... 1378
 # of primitive gaussian functions       ... 2606
 # of contracted shells                  ...  710
 # of contracted basis functions         ... 1554
 Highest angular momentum                ...    2
 Maximum contraction depth               ...    5
 Integral package used                   ... LIBINT
 Integral threshhold            Thresh   ...  2.500e-11
 Primitive cut-off              TCut     ...  2.500e-12


------------------------------ INTEGRAL EVALUATION ----------------------------


 * One electron integrals 
 Pre-screening matrix                    ... done
 Shell pair data                         ... done (   0.027 sec)

-------------------------------------------------------------------------------
                                 ORCA SCF
-------------------------------------------------------------------------------

------------
SCF SETTINGS
------------
Hamiltonian:
 Ab initio Hamiltonian  Method          .... Hartree-Fock(GTOs)


General Settings:
 Integral files         IntName         .... BTA3
 Hartree-Fock type      HFTyp           .... RHF
 Total Charge           Charge          ....    0
 Multiplicity           Mult            ....    1
 Number of Electrons    NEL             ....  658
 Basis Dimension        Dim             .... 1554
 Nuclear Repulsion      ENuc            ....  15509.3461313250 Eh

Convergence Acceleration:
 DIIS                   CNVDIIS         .... on
   Start iteration      DIISMaxIt       ....    12
   Startup error        DIISStart       ....  0.200000
   # of expansion vecs  DIISMaxEq       ....     5
   Bias factor          DIISBfac        ....   1.050
   Max. coefficient     DIISMaxC        ....  10.000
 Newton-Raphson         CNVNR           .... off
 SOSCF                  CNVSOSCF        .... on
   Start iteration      SOSCFMaxIt      ....   150
   Startup grad/error   SOSCFStart      ....  0.003300
 Level Shifting         CNVShift        .... on
   Level shift para.    LevelShift      ....    0.2500
   Turn off err/grad.   ShiftErr        ....    0.0010
 Zerner damping         CNVZerner       .... off
 Static damping         CNVDamp         .... on
   Fraction old density DampFac         ....    0.7000
   Max. Damping (<1)    DampMax         ....    0.9800
   Min. Damping (>=0)   DampMin         ....    0.0000
   Turn off err/grad.   DampErr         ....    0.1000
 Fernandez-Rico         CNVRico         .... off

SCF Procedure:
 Maximum # iterations   MaxIter         ....   125
 SCF integral mode      SCFMode         .... Direct
   Integral package                     .... LIBINT
 Reset frequency        DirectResetFreq ....    20
 Integral Threshold     Thresh          ....  2.500e-11 Eh
 Primitive CutOff       TCut            ....  2.500e-12 Eh

Convergence Tolerance:
 Convergence Check Mode ConvCheckMode   .... Total+1el-Energy
 Convergence forced     ConvForced      .... 1
 Energy Change          TolE            ....  1.000e-08 Eh
 1-El. energy change                    ....  1.000e-05 Eh
 Orbital Gradient       TolG            ....  1.000e-05
 Orbital Rotation angle TolX            ....  1.000e-05
 DIIS Error             TolErr          ....  5.000e-07


Diagonalization of the overlap matrix:
Smallest eigenvalue                        ... 1.633e-04
Time for diagonalization                   ...    0.709 sec
Threshold for overlap eigenvalues          ... 1.000e-08
Number of eigenvalues below threshold      ... 0
Time for construction of square roots      ...    0.279 sec
Total time needed                          ...    0.994 sec

-------------------
DFT GRID GENERATION
-------------------

General Integration Accuracy     IntAcc      ...  4.340
Radial Grid Type                 RadialGrid  ... Gauss-Chebyshev
Angular Grid (max. acc.)         AngularGrid ... Lebedev-110
Angular grid pruning method      GridPruning ... 3 (G Style)
Weight generation scheme         WeightScheme... Becke
Basis function cutoff            BFCut       ...    1.0000e-11
Integration weight cutoff        WCut        ...    1.0000e-14
Grids for H and He will be reduced by one unit

# of grid points (after initial pruning)     ... 193324 (   0.4 sec)
# of grid points (after weights+screening)   ... 168088 (   8.8 sec)
nearest neighbour list constructed           ...    0.0 sec
Grid point re-assignment to atoms done       ...    0.0 sec
Grid point division into batches done        ...    0.1 sec
Reduced shell lists constructed in    3.1 sec

Total number of grid points                  ...   168088
Total number of batches                      ...     2694
Average number of points per batch           ...       62
Average number of grid points per atom       ...     1184
Average number of shells per batch           ...   117.03 (16.48%)
Average number of basis functions per batch  ...   238.10 (15.32%)
Average number of large shells per batch     ...    67.13 (57.36%)
Average number of large basis fcns per batch ...   140.08 (58.83%)
Maximum spatial batch extension              ...  25.60, 21.93, 23.93 au
Average spatial batch extension              ...   3.26,  3.39,  3.28 au

Time for grid setup =   12.325 sec

------------------------------
INITIAL GUESS: MODEL POTENTIAL
------------------------------
Loading Hartree-Fock densities                     ... done
Calculating cut-offs                               ... done
Setting up the integral package                    ... done
Initializing the effective Hamiltonian             ... done
Starting the Coulomb interaction                   ... done (  16.3 sec)
Reading the grid                                   ... done
Mapping shells                                     ... done
Starting the XC term evaluation                    ... done (   2.8 sec)
Transforming the Hamiltonian                       ... done (   0.3 sec)
Diagonalizing the Hamiltonian                      ... done (   0.7 sec)
Back transforming the eigenvectors                 ... done (   0.1 sec)
Now organizing SCF variables                       ... done
                      ------------------
                      INITIAL GUESS DONE (  32.8 sec)
                      ------------------
--------------
SCF ITERATIONS
--------------
ITER       Energy         Delta-E        Max-DP      RMS-DP      [F,P]     Damp
               ***  Starting incremental Fock matrix formation  ***
  0  -5218.2074888788   0.000000000000 0.35556146  0.00130468  0.2471930 0.7000
  1  -5219.2355290340  -1.028040155179 0.27127165  0.00100747  0.1470286 0.7000
                               ***Turning on DIIS***
  2  -5219.8628708391  -0.627341805168 0.63068983  0.00234272  0.0808888 0.0000
  3  -5216.2380058282   3.624865010905 0.06206121  0.00046708  0.0522738 0.0000
  4  -5221.4554940595  -5.217488231250 0.02775179  0.00017626  0.0194077 0.0000
  5  -5221.4023538912   0.053140168246 0.01448853  0.00008639  0.0095686 0.0000
  6  -5221.1413437199   0.261010171369 0.00544648  0.00004916  0.0028040 0.0000
                      *** Initiating the SOSCF procedure ***
                           *** Shutting down DIIS ***
                      *** Re-Reading the Fockian *** 
                      *** Removing any level shift *** 
ITER      Energy       Delta-E        Grad      Rot      Max-DP    RMS-DP
  7  -5221.23745390  -0.0961101829  0.003224  0.003224  0.003151  0.000030
               *** Restarting incremental Fock matrix formation ***
  8  -5221.21459201   0.0228618909  0.001723  0.005667  0.002201  0.000020
  9  -5221.21484333  -0.0002513151  0.000844  0.006606  0.003166  0.000029
 10  -5221.21495955  -0.0001162206  0.000319  0.000835  0.000673  0.000007
 11  -5221.21497051  -0.0000109626  0.000203  0.000690  0.000328  0.000003
 12  -5221.21497370  -0.0000031884  0.000046  0.000265  0.000132  0.000001
 13  -5221.21497422  -0.0000005240  0.000023  0.000158  0.000096  0.000001
 14  -5221.21497438  -0.0000001622  0.000014  0.000084  0.000043  0.000000
 15  -5221.21497442  -0.0000000374  0.000007  0.000040  0.000019  0.000000
 16  -5221.21497440   0.0000000197  0.000003  0.000022  0.000010  0.000000
                  ***Gradient check signals convergence***
              ***Rediagonalizing the Fockian in SOSCF/NRSCF***

               *****************************************************
               *                     SUCCESS                       *
               *           SCF CONVERGED AFTER  17 CYCLES          *
               *****************************************************


----------------
TOTAL SCF ENERGY
----------------

Total Energy       :        -5221.21497440 Eh         -142076.48248 eV

Components:
Nuclear Repulsion  :        15509.34613133 Eh          422030.76386 eV
Electronic Energy  :       -20730.56110573 Eh         -564107.24635 eV
One Electron Energy:       -38046.20323981 Eh        -1035289.82327 eV
Two Electron Energy:        17315.64213408 Eh          471182.57693 eV

Virial components:
Potential Energy   :       -10428.00812520 Eh         -283760.52719 eV
Kinetic Energy     :         5206.79315079 Eh          141684.04471 eV
Virial Ratio       :            2.00276981


---------------
SCF CONVERGENCE
---------------

  Last Energy change         ...    1.8917e-10  Tolerance :   1.0000e-08
  Last MAX-Density change    ...    5.5939e-06  Tolerance :   1.0000e-07
  Last RMS-Density change    ...    4.3891e-08  Tolerance :   5.0000e-09
  Last Orbital Gradient      ...    1.5188e-06  Tolerance :   1.0000e-05
  Last Orbital Rotation      ...    1.1256e-05  Tolerance :   1.0000e-05

             **** THE GBW FILE WAS UPDATED (BTA3.gbw) ****
             **** DENSITY FILE WAS UPDATED (BTA3.scfp) ****
             **** ENERGY FILE WAS UPDATED (BTA3.en.tmp) ****
             **** THE GBW FILE WAS UPDATED (BTA3.gbw) ****
             **** DENSITY FILE WAS UPDATED (BTA3.scfp) ****
----------------
ORBITAL ENERGIES
----------------

  NO   OCC          E(Eh)            E(eV) 
   0   2.0000     -91.992398     -2503.2404 
   1   2.0000     -91.992370     -2503.2397 
   2   2.0000     -91.968085     -2502.5788 
   3   2.0000     -91.968063     -2502.5782 
   4   2.0000     -20.561893      -559.5176 
   5   2.0000     -20.561733      -559.5132 
   6   2.0000     -15.730450      -428.0473 
   7   2.0000     -15.730444      -428.0472 
   8   2.0000     -15.662320      -426.1934 
   9   2.0000     -15.662229      -426.1909 
  10   2.0000     -15.631937      -425.3666 
  11   2.0000     -15.631927      -425.3664 
  12   2.0000     -15.629497      -425.3002 
  13   2.0000     -15.629490      -425.3001 
  14   2.0000     -15.577908      -423.8964 
  15   2.0000     -15.577799      -423.8935 
  16   2.0000     -15.577750      -423.8921 
  17   2.0000     -15.577678      -423.8902 
  18   2.0000     -11.403325      -310.3002 
  19   2.0000     -11.403190      -310.2966 
  20   2.0000     -11.398807      -310.1773 
  21   2.0000     -11.398771      -310.1763 
  22   2.0000     -11.310184      -307.7658 
  23   2.0000     -11.310129      -307.7643 
  24   2.0000     -11.309682      -307.7521 
  25   2.0000     -11.309678      -307.7520 
  26   2.0000     -11.303162      -307.5747 
  27   2.0000     -11.303004      -307.5704 
  28   2.0000     -11.301707      -307.5351 
  29   2.0000     -11.301550      -307.5308 
  30   2.0000     -11.296957      -307.4058 
  31   2.0000     -11.296918      -307.4048 
  32   2.0000     -11.294923      -307.3505 
  33   2.0000     -11.294876      -307.3492 
  34   2.0000     -11.293885      -307.3222 
  35   2.0000     -11.293798      -307.3199 
  36   2.0000     -11.292946      -307.2967 
  37   2.0000     -11.292920      -307.2960 
  38   2.0000     -11.292201      -307.2764 
  39   2.0000     -11.292135      -307.2746 
  40   2.0000     -11.289280      -307.1969 
  41   2.0000     -11.289181      -307.1942 
  42   2.0000     -11.286533      -307.1222 
  43   2.0000     -11.286469      -307.1204 
  44   2.0000     -11.283354      -307.0357 
  45   2.0000     -11.283305      -307.0343 
  46   2.0000     -11.281238      -306.9781 
  47   2.0000     -11.281146      -306.9756 
  48   2.0000     -11.277799      -306.8845 
  49   2.0000     -11.277704      -306.8819 
  50   2.0000     -11.273428      -306.7656 
  51   2.0000     -11.273382      -306.7643 
  52   2.0000     -11.266513      -306.5774 
  53   2.0000     -11.266507      -306.5772 
  54   2.0000     -11.265067      -306.5381 
  55   2.0000     -11.265029      -306.5370 
  56   2.0000     -11.260963      -306.4264 
  57   2.0000     -11.260858      -306.4235 
  58   2.0000     -11.259562      -306.3882 
  59   2.0000     -11.259480      -306.3860 
  60   2.0000     -11.256367      -306.3013 
  61   2.0000     -11.256314      -306.2999 
  62   2.0000     -11.251890      -306.1795 
  63   2.0000     -11.251852      -306.1785 
  64   2.0000     -11.249705      -306.1200 
  65   2.0000     -11.249693      -306.1197 
  66   2.0000     -11.247891      -306.0707 
  67   2.0000     -11.247857      -306.0698 
  68   2.0000     -11.244351      -305.9743 
  69   2.0000     -11.244345      -305.9742 
  70   2.0000     -11.244207      -305.9704 
  71   2.0000     -11.244201      -305.9703 
  72   2.0000     -11.240597      -305.8722 
  73   2.0000     -11.240575      -305.8716 
  74   2.0000     -11.239945      -305.8545 
  75   2.0000     -11.239916      -305.8537 
  76   2.0000     -11.239411      -305.8399 
  77   2.0000     -11.239399      -305.8396 
  78   2.0000     -11.239089      -305.8312 
  79   2.0000     -11.239074      -305.8307 
  80   2.0000     -11.238051      -305.8029 
  81   2.0000     -11.238033      -305.8024 
  82   2.0000     -11.237140      -305.7781 
  83   2.0000     -11.237125      -305.7777 
  84   2.0000     -11.236688      -305.7658 
  85   2.0000     -11.236666      -305.7652 
  86   2.0000     -11.236500      -305.7607 
  87   2.0000     -11.236489      -305.7604 
  88   2.0000     -11.234562      -305.7080 
  89   2.0000     -11.234562      -305.7080 
  90   2.0000     -11.233010      -305.6657 
  91   2.0000     -11.232995      -305.6653 
  92   2.0000      -9.028841      -245.6872 
  93   2.0000      -9.028804      -245.6862 
  94   2.0000      -9.003431      -244.9958 
  95   2.0000      -9.003422      -244.9956 
  96   2.0000      -6.716334      -182.7607 
  97   2.0000      -6.716298      -182.7598 
  98   2.0000      -6.715108      -182.7274 
  99   2.0000      -6.715074      -182.7265 
 100   2.0000      -6.712678      -182.6613 
 101   2.0000      -6.712645      -182.6604 
 102   2.0000      -6.691013      -182.0717 
 103   2.0000      -6.691005      -182.0715 
 104   2.0000      -6.690059      -182.0458 
 105   2.0000      -6.690050      -182.0455 
 106   2.0000      -6.688156      -181.9940 
 107   2.0000      -6.688147      -181.9937 
 108   2.0000      -1.491227       -40.5783 
 109   2.0000      -1.491211       -40.5779 
 110   2.0000      -1.426274       -38.8109 
 111   2.0000      -1.426129       -38.8069 
 112   2.0000      -1.336331       -36.3634 
 113   2.0000      -1.336199       -36.3598 
 114   2.0000      -1.236974       -33.6598 
 115   2.0000      -1.231951       -33.5231 
 116   2.0000      -1.231940       -33.5228 
 117   2.0000      -1.227544       -33.4032 
 118   2.0000      -1.223725       -33.2992 
 119   2.0000      -1.221776       -33.2462 
 120   2.0000      -1.215082       -33.0641 
 121   2.0000      -1.215053       -33.0633 
 122   2.0000      -1.211937       -32.9785 
 123   2.0000      -1.208678       -32.8898 
 124   2.0000      -1.173541       -31.9337 
 125   2.0000      -1.173004       -31.9191 
 126   2.0000      -1.164138       -31.6778 
 127   2.0000      -1.162154       -31.6238 
 128   2.0000      -1.160468       -31.5779 
 129   2.0000      -1.156298       -31.4645 
 130   2.0000      -1.156295       -31.4644 
 131   2.0000      -1.137376       -30.9496 
 132   2.0000      -1.133239       -30.8370 
 133   2.0000      -1.131188       -30.7812 
 134   2.0000      -1.123236       -30.5648 
 135   2.0000      -1.117764       -30.4159 
 136   2.0000      -1.098620       -29.8950 
 137   2.0000      -1.089775       -29.6543 
 138   2.0000      -1.085323       -29.5331 
 139   2.0000      -1.069543       -29.1038 
 140   2.0000      -1.045442       -28.4479 
 141   2.0000      -1.045399       -28.4468 
 142   2.0000      -1.040466       -28.3125 
 143   2.0000      -1.039100       -28.2754 
 144   2.0000      -1.024522       -27.8787 
 145   2.0000      -1.022081       -27.8122 
 146   2.0000      -1.016945       -27.6725 
 147   2.0000      -1.014950       -27.6182 
 148   2.0000      -1.014734       -27.6123 
 149   2.0000      -1.012503       -27.5516 
 150   2.0000      -1.007864       -27.4254 
 151   2.0000      -1.005209       -27.3531 
 152   2.0000      -0.999633       -27.2014 
 153   2.0000      -0.997469       -27.1425 
 154   2.0000      -0.986591       -26.8465 
 155   2.0000      -0.986123       -26.8338 
 156   2.0000      -0.973638       -26.4940 
 157   2.0000      -0.964381       -26.2422 
 158   2.0000      -0.959791       -26.1172 
 159   2.0000      -0.947155       -25.7734 
 160   2.0000      -0.932207       -25.3666 
 161   2.0000      -0.932118       -25.3642 
 162   2.0000      -0.930953       -25.3325 
 163   2.0000      -0.909679       -24.7536 
 164   2.0000      -0.899398       -24.4739 
 165   2.0000      -0.894420       -24.3384 
 166   2.0000      -0.885212       -24.0878 
 167   2.0000      -0.883881       -24.0516 
 168   2.0000      -0.877696       -23.8833 
 169   2.0000      -0.865366       -23.5478 
 170   2.0000      -0.855185       -23.2708 
 171   2.0000      -0.849796       -23.1241 
 172   2.0000      -0.841266       -22.8920 
 173   2.0000      -0.838388       -22.8137 
 174   2.0000      -0.835630       -22.7387 
 175   2.0000      -0.833222       -22.6731 
 176   2.0000      -0.826017       -22.4771 
 177   2.0000      -0.824689       -22.4409 
 178   2.0000      -0.817711       -22.2511 
 179   2.0000      -0.814378       -22.1604 
 180   2.0000      -0.801208       -21.8020 
 181   2.0000      -0.800505       -21.7829 
 182   2.0000      -0.795238       -21.6395 
 183   2.0000      -0.788358       -21.4523 
 184   2.0000      -0.783132       -21.3101 
 185   2.0000      -0.781016       -21.2525 
 186   2.0000      -0.769327       -20.9345 
 187   2.0000      -0.764361       -20.7993 
 188   2.0000      -0.764039       -20.7906 
 189   2.0000      -0.760968       -20.7070 
 190   2.0000      -0.758511       -20.6401 
 191   2.0000      -0.748427       -20.3657 
 192   2.0000      -0.739750       -20.1296 
 193   2.0000      -0.727987       -19.8095 
 194   2.0000      -0.727318       -19.7913 
 195   2.0000      -0.723954       -19.6998 
 196   2.0000      -0.723032       -19.6747 
 197   2.0000      -0.722336       -19.6558 
 198   2.0000      -0.721771       -19.6404 
 199   2.0000      -0.707821       -19.2608 
 200   2.0000      -0.705276       -19.1915 
 201   2.0000      -0.703869       -19.1533 
 202   2.0000      -0.701647       -19.0928 
 203   2.0000      -0.699006       -19.0209 
 204   2.0000      -0.698880       -19.0175 
 205   2.0000      -0.692866       -18.8538 
 206   2.0000      -0.692621       -18.8472 
 207   2.0000      -0.691713       -18.8225 
 208   2.0000      -0.685304       -18.6481 
 209   2.0000      -0.676061       -18.3966 
 210   2.0000      -0.664234       -18.0747 
 211   2.0000      -0.664077       -18.0705 
 212   2.0000      -0.660796       -17.9812 
 213   2.0000      -0.658931       -17.9304 
 214   2.0000      -0.655856       -17.8468 
 215   2.0000      -0.655603       -17.8399 
 216   2.0000      -0.653358       -17.7788 
 217   2.0000      -0.653313       -17.7776 
 218   2.0000      -0.639422       -17.3996 
 219   2.0000      -0.638910       -17.3856 
 220   2.0000      -0.638125       -17.3643 
 221   2.0000      -0.635086       -17.2816 
 222   2.0000      -0.632958       -17.2237 
 223   2.0000      -0.631770       -17.1913 
 224   2.0000      -0.625143       -17.0110 
 225   2.0000      -0.614250       -16.7146 
 226   2.0000      -0.612649       -16.6710 
 227   2.0000      -0.611748       -16.6465 
 228   2.0000      -0.608958       -16.5706 
 229   2.0000      -0.608684       -16.5631 
 230   2.0000      -0.606764       -16.5109 
 231   2.0000      -0.603425       -16.4200 
 232   2.0000      -0.600729       -16.3467 
 233   2.0000      -0.598443       -16.2845 
 234   2.0000      -0.597912       -16.2700 
 235   2.0000      -0.596596       -16.2342 
 236   2.0000      -0.595889       -16.2150 
 237   2.0000      -0.595696       -16.2097 
 238   2.0000      -0.594736       -16.1836 
 239   2.0000      -0.594635       -16.1808 
 240   2.0000      -0.592768       -16.1300 
 241   2.0000      -0.590721       -16.0743 
 242   2.0000      -0.590069       -16.0566 
 243   2.0000      -0.588689       -16.0190 
 244   2.0000      -0.587483       -15.9862 
 245   2.0000      -0.586605       -15.9623 
 246   2.0000      -0.585554       -15.9337 
 247   2.0000      -0.585065       -15.9204 
 248   2.0000      -0.584417       -15.9028 
 249   2.0000      -0.583051       -15.8656 
 250   2.0000      -0.580430       -15.7943 
 251   2.0000      -0.580369       -15.7926 
 252   2.0000      -0.572590       -15.5810 
 253   2.0000      -0.565527       -15.3888 
 254   2.0000      -0.565449       -15.3866 
 255   2.0000      -0.561877       -15.2894 
 256   2.0000      -0.561601       -15.2819 
 257   2.0000      -0.557949       -15.1826 
 258   2.0000      -0.557164       -15.1612 
 259   2.0000      -0.555783       -15.1236 
 260   2.0000      -0.555460       -15.1148 
 261   2.0000      -0.553830       -15.0705 
 262   2.0000      -0.553642       -15.0654 
 263   2.0000      -0.551452       -15.0058 
 264   2.0000      -0.551241       -15.0000 
 265   2.0000      -0.544899       -14.8275 
 266   2.0000      -0.544069       -14.8049 
 267   2.0000      -0.539397       -14.6778 
 268   2.0000      -0.539288       -14.6748 
 269   2.0000      -0.536074       -14.5873 
 270   2.0000      -0.534878       -14.5548 
 271   2.0000      -0.529784       -14.4162 
 272   2.0000      -0.529263       -14.4020 
 273   2.0000      -0.525297       -14.2941 
 274   2.0000      -0.517408       -14.0794 
 275   2.0000      -0.511730       -13.9249 
 276   2.0000      -0.510949       -13.9036 
 277   2.0000      -0.510238       -13.8843 
 278   2.0000      -0.507340       -13.8054 
 279   2.0000      -0.507278       -13.8037 
 280   2.0000      -0.504166       -13.7191 
 281   2.0000      -0.503547       -13.7022 
 282   2.0000      -0.502012       -13.6604 
 283   2.0000      -0.501508       -13.6467 
 284   2.0000      -0.499285       -13.5862 
 285   2.0000      -0.497101       -13.5268 
 286   2.0000      -0.496477       -13.5098 
 287   2.0000      -0.495790       -13.4911 
 288   2.0000      -0.491664       -13.3788 
 289   2.0000      -0.491379       -13.3711 
 290   2.0000      -0.491030       -13.3616 
 291   2.0000      -0.490889       -13.3578 
 292   2.0000      -0.489556       -13.3215 
 293   2.0000      -0.489516       -13.3204 
 294   2.0000      -0.488594       -13.2953 
 295   2.0000      -0.486117       -13.2279 
 296   2.0000      -0.485253       -13.2044 
 297   2.0000      -0.482109       -13.1189 
 298   2.0000      -0.475697       -12.9444 
 299   2.0000      -0.475149       -12.9295 
 300   2.0000      -0.474792       -12.9198 
 301   2.0000      -0.473163       -12.8754 
 302   2.0000      -0.473058       -12.8726 
 303   2.0000      -0.467056       -12.7092 
 304   2.0000      -0.467003       -12.7078 
 305   2.0000      -0.458626       -12.4799 
 306   2.0000      -0.456233       -12.4147 
[...]
   Maximum Energy change  :     0.000012333819 (vector 2)
   Maximum residual norm  :     0.000001226742
   Rebuilding the expansion space

                       ****Iteration    8****
   Time for densities:     5.210
   Using LibInt in JK Direct
   Time for J+K (Direct):  5077.835
   Time for Sigma-Completion:    65.230
   Size of expansion space: 6
   Lowest Energy          :     0.101534642118
   Maximum Energy change  :     0.000002242253 (vector 2)
   Maximum residual norm  :     0.000000382267

                       ****Iteration    9****
   Time for densities:     2.652
   Using LibInt in JK Direct
   Time for J+K (Direct):  2771.567
   Time for Sigma-Completion:    34.908
   Size of expansion space: 9
   Lowest Energy          :     0.101534637318
   Maximum Energy change  :     0.000000855047 (vector 2)
   Maximum residual norm  :     0.000000095109

      *** CONVERGENCE OF RESIDUAL NORM REACHED ***

Storing the converged CI vectors               ... BTA3.cis1

                 *** DAVIDSON DONE ***

Total time for solving the CIS problem: 34325.928sec

-----------------------------
CIS-EXCITED STATES (SINGLETS)
-----------------------------

the weight of the individual excitations are printed if larger than 1.0e-02

STATE  1:  E=   0.101535 au      2.763 eV    22284.3 cm**-1
   326a -> 331a  :     0.019471 (c=  0.13953915)
   327a -> 330a  :     0.177329 (c= -0.42110507)
   328a -> 329a  :     0.642328 (c=  0.80145345)
   328a -> 331a  :     0.057366 (c= -0.23951301)

STATE  2:  E=   0.122187 au      3.325 eV    26816.9 cm**-1
   326a -> 330a  :     0.048071 (c=  0.21925179)
   327a -> 329a  :     0.374689 (c= -0.61211875)
   328a -> 330a  :     0.420146 (c=  0.64818665)
   328a -> 332a  :     0.018262 (c= -0.13513770)

STATE  3:  E=   0.155373 au      4.228 eV    34100.3 cm**-1
   312a -> 330a  :     0.021481 (c= -0.14656471)
   316a -> 329a  :     0.012092 (c=  0.10996443)
   322a -> 329a  :     0.021716 (c=  0.14736466)
   323a -> 330a  :     0.017358 (c=  0.13175104)
   325a -> 329a  :     0.031685 (c=  0.17800303)
   326a -> 329a  :     0.179025 (c= -0.42311383)
   327a -> 330a  :     0.185887 (c=  0.43114572)
   327a -> 335a  :     0.010156 (c=  0.10077539)
   328a -> 331a  :     0.249806 (c= -0.49980612)
   328a -> 333a  :     0.082591 (c=  0.28738585)


----------------------
CIS-EXCITATION SPECTRA
----------------------

Center of mass = (  0.7556, -6.5028,  2.1847)
Calculating the Dipole integrals                  ... done
Transforming integrals                            ... done
Calculating the Linear Momentum integrals         ... done
Transforming integrals                            ... done
Calculating angular momentum integrals            ... done
Transforming integrals                            ... done

-----------------------------------------------------------------------------
         ABSORPTION SPECTRUM VIA TRANSITION ELECTRIC DIPOLE MOMENTS
-----------------------------------------------------------------------------
State   Energy    Wavelength  fosc         T2        TX        TY        TZ  
        (cm-1)      (nm)                 (au**2)    (au)      (au)      (au) 
-----------------------------------------------------------------------------
   1   22284.3    448.7   2.765820872  40.86026   5.09037  -0.93165   3.75238
   2   26816.9    372.9   0.769801646   9.45030   1.43469   2.35423  -1.35999
   3   34100.3    293.3   0.629746579   6.07971  -0.10853  -1.19601  -2.15348

-----------------------------------------------------------------------------
         ABSORPTION SPECTRUM VIA TRANSITION VELOCITY DIPOLE MOMENTS
-----------------------------------------------------------------------------
State   Energy    Wavelength   fosc        P2         PX        PY        PZ  
        (cm-1)      (nm)                 (au**2)     (au)      (au)      (au) 
-----------------------------------------------------------------------------
   1   22284.3    448.7   1.611206839   0.24539  -0.38590   0.05775  -0.30518
   2   26816.9    372.9   0.358401428   0.06569  -0.11923  -0.19600   0.11425
   3   34100.3    293.3   0.630022222   0.14683   0.08224   0.15000   0.34288

-------------------------------------------------------------------
                             CD SPECTRUM
-------------------------------------------------------------------
State  Energy     Wavelength     R         MX        MY        MZ   
       (cm-1)       (nm)     (1e40*cgs)   (au)      (au)      (au)  
-------------------------------------------------------------------
   1   22284.3    448.7    -1448.65818   0.51364  -1.40472  -1.86445
   2   26816.9    372.9    2943.39114   0.95679   1.53809  -0.91880
   3   34100.3    293.3    -2276.62945  -0.32141   1.14940   1.62025

Total run time:    34500.256 sec

           *** ORCA-CIS/TD-DFT FINISHED WITHOUT ERROR ***

-----------------------
CIS/TD-DFT TOTAL ENERGY
-----------------------

    E(SCF)  =  -5221.214974402 Eh
    DE(CIS) =      0.101534637 Eh (Root  1)
    ----------------------------- ---------
    E(tot)  =  -5221.113439765 Eh


-------------------------   --------------------
FINAL SINGLE POINT ENERGY     -5221.113439764808
-------------------------   --------------------

------------------------------------------------------------------------------
                         ORCA SCF GRADIENT CALCULATION
------------------------------------------------------------------------------


------------
CIS GRADIENT
------------

Reference wavefunction             ... RHF
State of interest                  ... 1
Basis dimension                    ... 1554
DFT-XC contribution needed         ... NO
RI-approximation                   ... OFF
CIS-vectors being read from        ... BTA3.cis

 => Number of Vectors found: 3
 => Orbital Window: 108...328 -> 329...1553

Reading the CIS file                     ... done
Norm of the CI vector                    ... 1.000000000
Making the CIS (pseudo)densities         ... done
Making operators G(D) and Q(T)           ... done
Transforming the Fock operators          ... done
Making the frozen-core relaxed density   ... done
Constructing the G(H) operator           ... done
Transforming the G(H) operator           ... done
Calculating the CIS Lagrangian           ... done
Solving the Z-vector equations           ... done
Finalizing the relaxed density           ... done
Storing the relaxed density              ... done
Constructing the G(Z) operator           ... done
Transforming the G(Z) operator           ... done
Making the W-matrix                      ... done
Finalizing the W-matrix                  ... done
Transforming the W-matrix                ... done
Nuclear repulsion gradient               ... done
One-Electron gradient                    ... done
Prescreening matrices                    ... done
Two-Electron gradient (4-center)         ... done
                 ---------------------------
                 EXCITED STATE GRADIENT DONE
                 ---------------------------


------------------
CARTESIAN GRADIENT
------------------

   1   C   :    0.011242003   -0.001394938    0.006059176
   2   C   :   -0.013117499    0.006127662   -0.003739628
   3   C   :    0.012834617   -0.006771286    0.002788002
   4   C   :   -0.009886705    0.003694952   -0.007322562
   5   C   :    0.013254162   -0.005723391    0.003487503
   6   C   :   -0.013215584    0.006067477   -0.002431420
   7   C   :   -0.002396704    0.001612222    0.003633535
   8   C   :    0.002774240   -0.005445064   -0.011736291
   9   C   :    0.004397446    0.000692283    0.003873579
  10   C   :    0.001562662   -0.001394157    0.006232375
  11   C   :   -0.000766233   -0.001393093   -0.008581247
  12   S   :    0.001156931   -0.002847892    0.000453564
  13   C   :    0.001067218   -0.003793109   -0.002270735
  14   C   :   -0.000882662    0.009093354    0.009788689
  15   C   :   -0.003424493    0.000550845   -0.004717301
  16   C   :   -0.004260115   -0.003305136   -0.003263694
  17   C   :    0.002681829    0.004950915    0.006256860
  18   S   :   -0.002887533   -0.000084143    0.001110049
  19   C   :    0.009312912   -0.008026799    0.005036638
  20   C   :   -0.012761030    0.002036180   -0.001334840
  21   C   :    0.004291208    0.002674775   -0.003817636
  22   C   :   -0.005628351   -0.004075911    0.002752105
  23   C   :    0.001052507    0.006131573   -0.001264098
  24   C   :   -0.000809005   -0.006714881    0.003358077
  25   C   :    0.003727568   -0.005726329    0.001164622
  26   C   :   -0.004444634    0.004397194   -0.004184657
  27   C   :    0.003313636   -0.006486477   -0.002342876
  28   C   :   -0.002775900    0.005829598    0.031824460
  29   C   :   -0.027130585    0.027035375    0.006233986
  30   C   :   -0.006867893    0.000669708    0.001466415
  31   C   :    0.007658966    0.000324910    0.001421701
  32   C   :   -0.005829345    0.002932234    0.004457872
  33   C   :   -0.007371412   -0.022683187   -0.021990219
  34   C   :    0.032031471   -0.019015957   -0.010529843
  35   N   :    0.014354012   -0.014455808    0.006194760
  36   N   :    0.014958948   -0.016583239   -0.021900649
  37   N   :   -0.008319062    0.006051722   -0.021372920
  38   N   :   -0.020947654    0.003551766   -0.000036003
  39   N   :   -0.011358462    0.022926861    0.018116726
  40   N   :    0.017780738    0.009621985    0.012258746
  41   C   :   -0.003233171    0.007892245   -0.015717477
  42   C   :   -0.002042705   -0.003168353    0.012242866
  43   C   :    0.014104233    0.009942097    0.005517028
  44   C   :   -0.006272147   -0.010517090   -0.004358759
  45   C   :    0.004107381   -0.011015773   -0.009011819
  46   C   :   -0.006320459    0.007242282    0.011261688
  47   C   :    0.031795483   -0.029608693   -0.009869018
  48   N   :   -0.010205856    0.002766547    0.000465830
  49   C   :    0.002238972   -0.000295601   -0.000032446
  50   S   :    0.001059776    0.004670502    0.001130227
  51   C   :   -0.034133026    0.025048982    0.013495304
  52   N   :    0.007467489   -0.007329424    0.001940653
  53   C   :   -0.001540951    0.001610198   -0.000653105
  54   S   :    0.002112310    0.000739824   -0.004353258
  55   C   :   -0.009311783    0.011183447   -0.006717466
  56   O   :    0.030701966   -0.023246184   -0.012074802
  57   C   :   -0.010789631    0.001083059    0.020713384
  58   C   :    0.041320553   -0.036734088   -0.000783173
  59   C   :   -0.009280618    0.030129792   -0.053231447
  60   C   :   -0.000396393   -0.001067491   -0.000292766
  61   C   :    0.001357728    0.002228931    0.000701346
  62   C   :   -0.001016288   -0.000049964   -0.001939635
  63   C   :    0.000727010   -0.000959229    0.000691289
  64   C   :    0.000857008    0.001841363    0.001702826
  65   C   :    0.001422369    0.001989313   -0.001470941
  66   C   :   -0.003680248   -0.001050365    0.002354399
  67   C   :    0.002965171   -0.002837263   -0.000006980
  68   C   :    0.000338133    0.002457916   -0.001991939
  69   C   :   -0.003684351   -0.001276931    0.002126926
  70   C   :   -0.000398986   -0.000278346    0.001062569
  71   C   :    0.000510260    0.000894355   -0.002501598
  72   C   :    0.001330846    0.000564262    0.001658366
  73   C   :   -0.001362269   -0.000119296   -0.000086785
  74   C   :    0.000101990   -0.000194643   -0.002614568
  75   C   :    0.001143226    0.002283450   -0.001029988
  76   C   :    0.000359039   -0.004339968    0.000765549
  77   C   :   -0.003614461    0.001628509    0.000697368
  78   C   :    0.002334138    0.001924911   -0.000555688
  79   C   :    0.000336368   -0.004196531    0.001069971
  80   O   :   -0.029080583    0.026443563    0.009344262
  81   C   :    0.016008070   -0.000177704    0.000525011
  82   C   :   -0.001603892   -0.021912031   -0.008382114
  83   C   :   -0.049908137    0.024315972    0.007465326
  84   C   :    0.048765422    0.035135467    0.015371466
  85   N   :   -0.023802027    0.020239634    0.002305168
  86   N   :    0.004305969   -0.016602996    0.030506423
  87   N   :   -0.026897857   -0.020764983   -0.008826829
  88   N   :    0.027507746   -0.015542324   -0.004801180
  89   C   :   -0.000442527    0.000896479   -0.002819596
  90   C   :    0.000829353   -0.002466556    0.000917168
  91   C   :   -0.002588640   -0.000447648    0.000789818
  92   C   :    0.002052605    0.001742943    0.001292542
  93   H   :    0.000443452    0.000083172   -0.000513499
  94   H   :    0.000019447    0.000673798    0.000065284
  95   H   :    0.000345925    0.000886694    0.001336779
  96   H   :   -0.000033298   -0.000535832   -0.001579270
  97   H   :   -0.000619193    0.000838839   -0.002639059
  98   H   :    0.001242630   -0.002476472    0.002900376
  99   H   :    0.002062627    0.001525164    0.001243034
 100   H   :   -0.003612534   -0.001512737   -0.000527728
 101   H   :    0.000491569   -0.000088152   -0.002735586
 102   H   :    0.000802854    0.002169716    0.001476053
 103   H   :   -0.002722430    0.000126692   -0.000332534
 104   H   :    0.001055610    0.001619567    0.000226808
 105   H   :    0.000747128    0.000288392    0.001755305
 106   H   :    0.001761886   -0.001713910    0.001238938
 107   H   :    0.000455933    0.000867890   -0.001680313
 108   H   :   -0.000967669   -0.000602610   -0.001559100
 109   H   :    0.003719639   -0.002011338   -0.003699597
 110   H   :   -0.002645621   -0.001307589    0.001314112
 111   H   :    0.000251245    0.001804693    0.002540412
 112   H   :    0.000552031    0.001154475    0.000186870
 113   H   :    0.000075107    0.000977527   -0.001067910
 114   H   :   -0.000145740   -0.000038497    0.001928072
 115   H   :    0.000017925    0.001393754    0.000875653
 116   H   :   -0.001356726   -0.000398478    0.001206568
 117   H   :    0.000230800   -0.001303607    0.000523343
 118   H   :   -0.001232050    0.001519756    0.000334978
 119   H   :   -0.001283131    0.000684244    0.001019697
 120   H   :    0.000435776    0.000463987   -0.001123680
 121   H   :    0.001098552    0.000943623   -0.000032804
 122   H   :   -0.000742042   -0.001414475   -0.001098122
 123   H   :    0.000627647   -0.000320014   -0.001480095
 124   H   :   -0.000026542   -0.001860672    0.000074552
 125   H   :   -0.001286160   -0.000415774    0.000465903
 126   H   :    0.001634000   -0.000835987   -0.000733696
 127   H   :    0.000769060   -0.001489288   -0.000551656
 128   H   :   -0.001987283    0.004874580    0.001896330
 129   H   :   -0.000006104   -0.002989706    0.001285561
 130   H   :    0.000149966   -0.001305720   -0.002826167
 131   H   :    0.001402658    0.000435417   -0.001776585
 132   H   :    0.001390168   -0.000397462   -0.002060487
 133   H   :    0.000176382    0.001192679   -0.002569880
 134   H   :   -0.001017025   -0.002037381    0.000275556
 135   H   :   -0.000642977   -0.002450972   -0.000639767
 136   H   :   -0.000000563   -0.002359983    0.001354605
 137   H   :   -0.000997055   -0.001281127    0.001615704
 138   H   :   -0.001130980   -0.000459330    0.002321588
 139   H   :   -0.002238895   -0.001344559    0.000763701
 140   H   :    0.000244187    0.002282303    0.000213151
 141   H   :   -0.000236712    0.002319957    0.000971949
 142   H   :    0.001800703    0.002075392    0.000692437

Difference to translation invariance:
           :   -0.0000000001    0.0000000000    0.0000000001

Norm of the cartesian gradient     ...    0.2032718770
RMS gradient                       ...    0.0098485546
MAX gradient                       ...    0.0532314473

-------
TIMINGS
-------

Total CIS gradient time            ...    36314.611 sec

Fock matrix formation       ....    2804.508 sec  (  7.7%)
  Coulomb formation         ....    2804.508 sec  (100.0% of F)
Z-vector equation           ....   30295.769 sec  ( 83.4%)
One electron gradient       ....      27.090 sec  (  0.1%)
Prescreening matrices       ....       1.557 sec  (  0.0%)
Two electron gradient       ....    3179.527 sec  (  8.8%)

                            ***************************************
                            *     ORCA property calculations      *
                            ***************************************

                                    ---------------------
                                    Active property flags
                                    ---------------------
   (+) Dipole Moment


------------------------------------------------------------------------------
                       ORCA ELECTRIC PROPERTIES CALCULATION
------------------------------------------------------------------------------

Dipole Moment Calculation                       ... on
Quadrupole Moment Calculation                   ... off
Polarizability Calculation                      ... off
GBWName                                         ... BTA3.gbw
Electron density file                           ... BTA3.scfp
The origin for moment calculation is the CENTER OF MASS  = ( 0.755625, -6.502760  2.184717)

-------------
DIPOLE MOMENT
-------------
                                X             Y             Z
Electronic contribution:    -18.77253     -31.14925      18.23400
Nuclear contribution   :     20.79193      34.53270     -20.24886
                        -----------------------------------------
Total Dipole Moment    :      2.01940       3.38345      -2.01486
                        -----------------------------------------
Magnitude (a.u.)       :      4.42554
Magnitude (Debye)      :     11.24883



--------------------
Rotational spectrum 
--------------------
 
Rotational constants in cm-1:     0.000715     0.000204     0.000203 
Rotational constants in MHz :    21.432918     6.105581     6.099601 

 Dipole components along the rotational axes: 
x,y,z [a.u.] :    -0.060232     4.222961    -1.322259 
x,y,z [Debye]:    -0.153099    10.733915    -3.360914 

 

                        *** CIS RELAXED DENSITY ***

------------------------------------------------------------------------------
                       ORCA ELECTRIC PROPERTIES CALCULATION
------------------------------------------------------------------------------

Dipole Moment Calculation                       ... on
Quadrupole Moment Calculation                   ... off
Polarizability Calculation                      ... off
GBWName                                         ... BTA3.gbw
Electron density file                           ... BTA3.cisp
The origin for moment calculation is the CENTER OF MASS  = ( 0.755625, -6.502760  2.184717)

-------------
DIPOLE MOMENT
-------------
                                X             Y             Z
Electronic contribution:    -18.46523     -30.61606      17.92098
Nuclear contribution   :     20.79193      34.53270     -20.24886
                        -----------------------------------------
Total Dipole Moment    :      2.32670       3.91665      -2.32788
                        -----------------------------------------
Magnitude (a.u.)       :      5.11592
Magnitude (Debye)      :     13.00364



--------------------
Rotational spectrum 
--------------------
 
Rotational constants in cm-1:     0.000715     0.000204     0.000203 
Rotational constants in MHz :    21.432918     6.105581     6.099601 

 Dipole components along the rotational axes: 
x,y,z [a.u.] :    -0.076027     4.883749    -1.521798 
x,y,z [Debye]:    -0.193245    12.413504    -3.868104 

 

Timings for individual modules:

Sum of individual times         ...    81116.390 sec (=1351.940 min)
GTO integral calculation        ...        2.363 sec (=   0.039 min)   0.0 %
SCF iterations                  ...    10297.646 sec (= 171.627 min)  12.7 %
CIS module                      ...    34500.332 sec (= 575.006 min)  42.5 %
SCF Gradient evaluation         ...    36316.048 sec (= 605.267 min)  44.8 %
                             ****ORCA TERMINATED NORMALLY****
TOTAL RUN TIME: 0 days 22 hours 31 minutes 57 seconds 583 msec
