
                                 *****************
                                 * O   R   C   A *
                                 *****************

           --- An Ab Initio, DFT and Semiempirical electronic structure package ---

                  #######################################################
                  #                        -***-                        #
                  #          Department of theory and spectroscopy      #
                  #               Directorship: Frank Neese             #
                  #        Max Planck Institute fuer Kohlenforschung    #
                  #                Kaiser Wilhelm Platz 1               #
                  #                 D-45470 Muelheim/Ruhr               #
                  #                      Germany                        #
                  #                                                     #
                  #                  All rights reserved                #
                  #                        -***-                        #
                  #######################################################


                         Program Version 4.2.0 -  RELEASE  -


 With contributions from (in alphabetic order):
   Daniel Aravena         : Magnetic Suceptibility
   Michael Atanasov       : Ab Initio Ligand Field Theory (pilot matlab implementation)
   Alexander A. Auer      : GIAO ZORA, VPT2
   Ute Becker             : Parallelization
   Giovanni Bistoni       : ED, misc. LED, open-shell LED, HFLED
   Martin Brehm           : Molecular dynamics
   Dmytro Bykov           : SCF Hessian
   Vijay G. Chilkuri      : MRCI spin determinant printing, contributions to CSF-ICE
   Dipayan Datta          : RHF DLPNO-CCSD density
   Achintya Kumar Dutta   : EOM-CC, STEOM-CC
   Dmitry Ganyushin       : Spin-Orbit,Spin-Spin,Magnetic field MRCI
   Miquel Garcia          : C-PCM Hessian, Gaussian charge scheme
   Yang Guo               : DLPNO-NEVPT2, CIM, IAO-localization
   Andreas Hansen         : Spin unrestricted coupled pair/coupled cluster methods
   Benjamin Helmich-Paris : CASSCF linear response (MC-RPA)
   Lee Huntington         : MR-EOM, pCC
   Robert Izsak           : Overlap fitted RIJCOSX, COSX-SCS-MP3, EOM
   Christian Kollmar      : KDIIS, OOCD, Brueckner-CCSD(T), CCSD density
   Simone Kossmann        : Meta GGA functionals, TD-DFT gradient, OOMP2, MP2 Hessian
   Martin Krupicka        : AUTO-CI
   Lucas Lang             : DCDCAS
   Dagmar Lenk            : GEPOL surface, SMD
   Dimitrios Liakos       : Extrapolation schemes; Compound Job, initial MDCI parallelization
   Dimitrios Manganas     : Further ROCIS development; embedding schemes
   Dimitrios Pantazis     : SARC Basis sets
   Taras Petrenko         : DFT Hessian,TD-DFT gradient, ASA, ECA, R-Raman, ABS, FL, XAS/XES, NRVS
   Peter Pinski           : DLPNO-MP2, DLPNO-MP2 Gradient
   Christoph Reimann      : Effective Core Potentials
   Marius Retegan         : Local ZFS, SOC
   Christoph Riplinger    : Optimizer, TS searches, QM/MM, DLPNO-CCSD(T), (RO)-DLPNO pert. Triples
   Tobias Risthaus        : Range-separated hybrids, TD-DFT gradient, RPA, STAB
   Michael Roemelt        : Original ROCIS implementation
   Masaaki Saitow         : Open-shell DLPNO-CCSD energy and density
   Barbara Sandhoefer     : DKH picture change effects
   Avijit Sen             : IP-ROCIS
   Kantharuban Sivalingam : CASSCF convergence, NEVPT2, FIC-MRCI
   Bernardo de Souza      : ESD, SOC TD-DFT
   Georgi Stoychev        : AutoAux, RI-MP2 NMR
   Willem Van den Heuvel  : Paramagnetic NMR
   Boris Wezisla          : Elementary symmetry handling
   Frank Wennmohs         : Technical directorship


 We gratefully acknowledge several colleagues who have allowed us to
 interface, adapt or use parts of their codes:
   Stefan Grimme, W. Hujo, H. Kruse,             : VdW corrections, initial TS optimization,
                  C. Bannwarth                     DFT functionals, gCP, sTDA/sTD-DF
   Ed Valeev, F. Pavosevic, A. Kumar             : LibInt (2-el integral package), F12 methods
   Garnet Chan, S. Sharma, J. Yang, R. Olivares  : DMRG
   Ulf Ekstrom                                   : XCFun DFT Library
   Mihaly Kallay                                 : mrcc  (arbitrary order and MRCC methods)
   Andreas Klamt, Michael Diedenhofen            : otool_cosmo (COSMO solvation model)
   Jiri Pittner, Ondrej Demel                    : Mk-CCSD
   Frank Weinhold                                : gennbo (NPA and NBO analysis)
   Christopher J. Cramer and Donald G. Truhlar   : smd solvation model
   Lars Goerigk                                  : TD-DFT with DH, B97 family of functionals
   V. Asgeirsson, H. Jonsson                     : NEB implementation
   FAccTs GmbH                                   : IRC, NEB, NEB-TS, Multilevel, MM, QM/MM, CI optimization
   S Lehtola, MJT Oliveira, MAL Marques          : LibXC Library


 Your calculation uses the libint2 library for the computation of 2-el integrals
 For citations please refer to: http://libint.valeyev.net

 Your ORCA version has been built with support for libXC version: 4.2.3
 For citations please refer to: https://tddft.org/programs/libxc/

 This ORCA versions uses:
   CBLAS   interface :  Fast vector & matrix operations
   LAPACKE interface :  Fast linear algebra routines
   SCALAPACK package :  Parallel linear algebra routines


----- Orbital basis set information -----
Your calculation utilizes the basis: def2-SVP
   F. Weigend and R. Ahlrichs, Phys. Chem. Chem. Phys. 7, 3297 (2005).

================================================================================
                                        WARNINGS
                       Please study these warnings very carefully!
================================================================================

INFO   : Checking CIS options ...

WARNING: CIS/ROCIS methods need fully converged wavefunctions
  ===> : Setting SCFConvForced true
         You can overwrite this default with %scf ConvForced false 


INFO   : the flag for use of LIBINT has been found!

================================================================================
                                       INPUT FILE
================================================================================
NAME = BTA43.inp
|  1> # ORCA input file
|  2> # BTA43.out: Geometry 438
|  3> ! Engrad Keepdens
|  4> %maxcore 1000
|  5> %tddft
|  6>   nroots 3 
|  7>   # nroots is the number of states to be computed
|  8>   Iroot 1
|  9>   end
| 10> * xyz 0 1
| 11>    C        2.48897        -2.61765        -0.43746
| 12>    C        2.53644        -2.05384         0.86642
| 13>    C        1.52815        -1.20077         1.33355
| 14>    C        0.43159        -0.99596         0.51152
| 15>    C        0.29913        -1.69907        -0.71629
| 16>    C        1.35014        -2.48737        -1.21971
| 17>    C        3.78386        -3.40320        -0.73421
| 18>    C        4.36095        -3.51382         0.68590
| 19>    C        3.67571        -2.64540         1.52679
| 20>    C        5.34410        -4.26613         1.36306
| 21>    C        5.39482        -3.96768         2.72738
| 22>    S        4.23372        -2.70248         3.14829
| 23>    C       -0.79516        -0.10654         0.78344
| 24>    C       -1.71434        -0.55769        -0.35206
| 25>    C       -1.05347        -1.45678        -1.17812
| 26>    C       -3.06627        -0.36677        -0.70321
| 27>    C       -3.45672        -1.19091        -1.75587
| 28>    S       -2.09390        -2.12256        -2.38381
| 29>    C        6.17204        -4.58363         3.77786
| 30>    C       -4.80203        -1.43097        -2.23753
| 31>    C       -1.34836        -0.44171         2.17254
| 32>    C       -0.44925         1.38014         0.59495
| 33>    C        3.46942        -4.73734        -1.40788
| 34>    C        4.74314        -2.53563        -1.57965
| 35>    C        5.92975        -4.32792         5.13642
| 36>    C        6.62120        -4.95831         6.18534
| 37>    C        7.64307        -5.89397         5.97605
| 38>    C        7.94415        -6.14138         4.59926
| 39>    C        7.22415        -5.52264         3.53081
| 40>    C       -5.20491        -2.65567        -2.78384
| 41>    C       -6.53724        -2.94487        -3.13738
| 42>    C       -7.58887        -2.03153        -2.98639
| 43>    C       -7.18767        -0.74403        -2.50413
| 44>    C       -5.83983        -0.45504        -2.12886
| 45>    N        8.86342        -6.96325         4.06004
| 46>    N        8.67911        -6.82309         2.75778
| 47>    N        7.72834        -5.99229         2.37044
| 48>    N       -7.91996         0.36912        -2.31037
| 49>    N       -7.03526         1.24371        -1.85496
| 50>    N       -5.79043         0.82782        -1.71629
| 51>    C        8.36566        -6.59138         7.00868
| 52>    C        8.02637        -6.77932         8.31226
| 53>    C       -8.98513        -2.30474        -3.21482
| 54>    C       -9.61059        -3.49023        -3.45084
| 55>    C       -7.40144         2.61787        -1.56584
| 56>    C        9.49490        -7.54175         1.79731
| 57>    C      -11.08484        -3.57853        -3.53503
| 58>    N      -11.48040        -4.93618        -3.67255
| 59>    C      -10.47009        -5.84717        -3.75141
| 60>    S       -8.88620        -5.08915        -3.60250
| 61>    C        8.89198        -7.54320         9.23273
| 62>    N        8.23061        -7.72640        10.47702
| 63>    C        6.99401        -7.16593        10.58550
| 64>    S        6.52534        -6.31561         9.11438
| 65>    C        8.89792        -8.48051        11.53233
| 66>    O       10.00239        -7.96888         9.00824
| 67>    C        6.12643        -7.18636        11.66881
| 68>    C        4.86787        -6.52145        11.53396
| 69>    C        6.38561        -7.81634        12.92180
| 70>    C        2.72108        -5.70313        -0.71003
| 71>    C        2.31997        -6.88250        -1.32185
| 72>    C        2.65732        -7.13364        -2.66526
| 73>    C        3.41786        -6.19087        -3.36620
| 74>    C        3.81456        -5.00596        -2.73276
| 75>    C        4.29686        -1.48029        -2.39192
| 76>    C        5.18306        -0.72486        -3.15491
| 77>    C        6.55791        -1.00354        -3.13075
| 78>    C        7.02005        -2.06322        -2.33473
| 79>    C        6.11628        -2.81013        -1.57480
| 80>    C       -2.22859        -1.52359         2.35108
| 81>    C       -2.60000        -1.94896         3.61969
| 82>    C       -2.08156        -1.31460         4.76148
| 83>    C       -1.21824        -0.22074         4.60108
| 84>    C       -0.86790         0.20647         3.31379
| 85>    C        0.81462         1.80715         0.15643
| 86>    C        1.07157         3.14652        -0.11416
| 87>    C        0.06104         4.10682         0.02851
| 88>    C       -1.20286         3.70277         0.48784
| 89>    C       -1.44064         2.35410         0.76889
| 90>    O      -11.87626        -2.66486        -3.48340
| 91>    C      -12.90223        -5.26545        -3.68767
| 92>    C      -10.55077        -7.22152        -3.92596
| 93>    C       -9.33126        -7.96548        -3.96866
| 94>    C      -11.76052        -7.96027        -4.08414
| 95>    N        3.85043        -5.97537        11.39865
| 96>    N        6.55038        -8.31569        13.95887
| 97>    N      -12.72343        -8.59809        -4.21627
| 98>    N       -8.32507        -8.54642        -4.00091
| 99>    O       -2.47352        -1.82794         5.95387
|100>    O        0.39954         5.37819        -0.29909
|101>    O        7.35033        -0.20965        -3.89455
|102>    O        2.20483        -8.29800        -3.19111
|103>    C       -1.95473        -1.27827         7.14330
|104>    C       -0.58360         6.38448        -0.26611
|105>    C        8.74383        -0.40694        -3.85918
|106>    C        2.45788        -8.58083        -4.54782
|107>    H        1.58537        -0.73898         2.32032
|108>    H        1.26520        -3.00509        -2.17684
|109>    H        5.97456        -5.03804         0.92503
|110>    H       -3.76970         0.28340        -0.18578
|111>    H        5.14597        -3.61897         5.40955
|112>    H        6.34821        -4.66475         7.20003
|113>    H       -4.46319        -3.44865        -2.89672
|114>    H       -6.73188        -3.93716        -3.54244
|115>    H        9.29904        -7.07801         6.70915
|116>    H       -9.66283        -1.44933        -3.13009
|117>    H       -8.48110         2.71530        -1.72246
|118>    H       -6.85747         3.29255        -2.24086
|119>    H       -7.13388         2.86004        -0.52786
|120>    H       10.07857        -6.82864         1.19771
|121>    H        8.84674        -8.12859         1.13168
|122>    H       10.16356        -8.20120         2.36099
|123>    H        9.86114        -8.80448        11.12194
|124>    H        8.30293        -9.35568        11.82331
|125>    H        9.06171        -7.84923        12.41571
|126>    H        2.43299        -5.50924         0.32606
|127>    H        1.73142        -7.63042        -0.78705
|128>    H        3.70803        -6.35954        -4.40266
|129>    H        4.39422        -4.27569        -3.29969
|130>    H        3.23616        -1.23080        -2.43107
|131>    H        4.82993         0.09977        -3.77685
|132>    H        8.07931        -2.31825        -2.29380
|133>    H        6.50401        -3.62651        -0.96406
|134>    H       -2.61863        -2.05252         1.48080
|135>    H       -3.27921        -2.79139         3.76272
|136>    H       -0.80898         0.30540         5.46272
|137>    H       -0.19698         1.06100         3.20042
|138>    H        1.61723         1.08393         0.01644
|139>    H        2.05245         3.47608        -0.46172
|140>    H       -2.00784         4.42466         0.62731
|141>    H       -2.42601         2.05677         1.13552
|142>    H      -13.44074        -4.32693        -3.51462
|143>    H      -13.13829        -5.98599        -2.89418
|144>    H      -13.19764        -5.69084        -4.65595
|145>    H       -2.40789        -1.83954         7.97037
|146>    H       -2.21837        -0.21055         7.25001
|147>    H       -0.85577        -1.38232         7.19694
|148>    H       -0.09336         7.30958        -0.59819
|149>    H       -0.98954         6.53876         0.75061
|150>    H       -1.42339         6.15879        -0.94735
|151>    H        9.18752         0.35052        -4.51753
|152>    H        9.02678        -1.40946        -4.22797
|153>    H        9.15021        -0.27771        -2.84005
|154>    H        1.96316        -9.53575        -4.76744
|155>    H        3.53903        -8.68038        -4.75415
|156>    H        2.04283        -7.80234        -5.21227
|157> *
|158> 
|159>                          ****END OF INPUT****
================================================================================

                     *******************************
                     * Energy+Gradient Calculation *
                     *******************************

---------------------------------
CARTESIAN COORDINATES (ANGSTROEM)
---------------------------------
  C      2.488970   -2.617650   -0.437460
  C      2.536440   -2.053840    0.866420
  C      1.528150   -1.200770    1.333550
  C      0.431590   -0.995960    0.511520
  C      0.299130   -1.699070   -0.716290
  C      1.350140   -2.487370   -1.219710
  C      3.783860   -3.403200   -0.734210
  C      4.360950   -3.513820    0.685900
  C      3.675710   -2.645400    1.526790
  C      5.344100   -4.266130    1.363060
  C      5.394820   -3.967680    2.727380
  S      4.233720   -2.702480    3.148290
  C     -0.795160   -0.106540    0.783440
  C     -1.714340   -0.557690   -0.352060
  C     -1.053470   -1.456780   -1.178120
  C     -3.066270   -0.366770   -0.703210
  C     -3.456720   -1.190910   -1.755870
  S     -2.093900   -2.122560   -2.383810
  C      6.172040   -4.583630    3.777860
  C     -4.802030   -1.430970   -2.237530
  C     -1.348360   -0.441710    2.172540
  C     -0.449250    1.380140    0.594950
  C      3.469420   -4.737340   -1.407880
  C      4.743140   -2.535630   -1.579650
  C      5.929750   -4.327920    5.136420
  C      6.621200   -4.958310    6.185340
  C      7.643070   -5.893970    5.976050
  C      7.944150   -6.141380    4.599260
  C      7.224150   -5.522640    3.530810
  C     -5.204910   -2.655670   -2.783840
  C     -6.537240   -2.944870   -3.137380
  C     -7.588870   -2.031530   -2.986390
  C     -7.187670   -0.744030   -2.504130
  C     -5.839830   -0.455040   -2.128860
  N      8.863420   -6.963250    4.060040
  N      8.679110   -6.823090    2.757780
  N      7.728340   -5.992290    2.370440
  N     -7.919960    0.369120   -2.310370
  N     -7.035260    1.243710   -1.854960
  N     -5.790430    0.827820   -1.716290
  C      8.365660   -6.591380    7.008680
  C      8.026370   -6.779320    8.312260
  C     -8.985130   -2.304740   -3.214820
  C     -9.610590   -3.490230   -3.450840
  C     -7.401440    2.617870   -1.565840
  C      9.494900   -7.541750    1.797310
  C    -11.084840   -3.578530   -3.535030
  N    -11.480400   -4.936180   -3.672550
  C    -10.470090   -5.847170   -3.751410
  S     -8.886200   -5.089150   -3.602500
  C      8.891980   -7.543200    9.232730
  N      8.230610   -7.726400   10.477020
  C      6.994010   -7.165930   10.585500
  S      6.525340   -6.315610    9.114380
  C      8.897920   -8.480510   11.532330
  O     10.002390   -7.968880    9.008240
  C      6.126430   -7.186360   11.668810
  C      4.867870   -6.521450   11.533960
  C      6.385610   -7.816340   12.921800
  C      2.721080   -5.703130   -0.710030
  C      2.319970   -6.882500   -1.321850
  C      2.657320   -7.133640   -2.665260
  C      3.417860   -6.190870   -3.366200
  C      3.814560   -5.005960   -2.732760
  C      4.296860   -1.480290   -2.391920
  C      5.183060   -0.724860   -3.154910
  C      6.557910   -1.003540   -3.130750
  C      7.020050   -2.063220   -2.334730
  C      6.116280   -2.810130   -1.574800
  C     -2.228590   -1.523590    2.351080
  C     -2.600000   -1.948960    3.619690
  C     -2.081560   -1.314600    4.761480
  C     -1.218240   -0.220740    4.601080
  C     -0.867900    0.206470    3.313790
  C      0.814620    1.807150    0.156430
  C      1.071570    3.146520   -0.114160
  C      0.061040    4.106820    0.028510
  C     -1.202860    3.702770    0.487840
  C     -1.440640    2.354100    0.768890
  O    -11.876260   -2.664860   -3.483400
  C    -12.902230   -5.265450   -3.687670
  C    -10.550770   -7.221520   -3.925960
  C     -9.331260   -7.965480   -3.968660
  C    -11.760520   -7.960270   -4.084140
  N      3.850430   -5.975370   11.398650
  N      6.550380   -8.315690   13.958870
  N    -12.723430   -8.598090   -4.216270
  N     -8.325070   -8.546420   -4.000910
  O     -2.473520   -1.827940    5.953870
  O      0.399540    5.378190   -0.299090
  O      7.350330   -0.209650   -3.894550
  O      2.204830   -8.298000   -3.191110
  C     -1.954730   -1.278270    7.143300
  C     -0.583600    6.384480   -0.266110
  C      8.743830   -0.406940   -3.859180
  C      2.457880   -8.580830   -4.547820
  H      1.585370   -0.738980    2.320320
  H      1.265200   -3.005090   -2.176840
  H      5.974560   -5.038040    0.925030
  H     -3.769700    0.283400   -0.185780
  H      5.145970   -3.618970    5.409550
  H      6.348210   -4.664750    7.200030
  H     -4.463190   -3.448650   -2.896720
  H     -6.731880   -3.937160   -3.542440
  H      9.299040   -7.078010    6.709150
  H     -9.662830   -1.449330   -3.130090
  H     -8.481100    2.715300   -1.722460
  H     -6.857470    3.292550   -2.240860
  H     -7.133880    2.860040   -0.527860
  H     10.078570   -6.828640    1.197710
  H      8.846740   -8.128590    1.131680
  H     10.163560   -8.201200    2.360990
  H      9.861140   -8.804480   11.121940
  H      8.302930   -9.355680   11.823310
  H      9.061710   -7.849230   12.415710
  H      2.432990   -5.509240    0.326060
  H      1.731420   -7.630420   -0.787050
  H      3.708030   -6.359540   -4.402660
  H      4.394220   -4.275690   -3.299690
  H      3.236160   -1.230800   -2.431070
  H      4.829930    0.099770   -3.776850
  H      8.079310   -2.318250   -2.293800
  H      6.504010   -3.626510   -0.964060
  H     -2.618630   -2.052520    1.480800
  H     -3.279210   -2.791390    3.762720
  H     -0.808980    0.305400    5.462720
  H     -0.196980    1.061000    3.200420
  H      1.617230    1.083930    0.016440
  H      2.052450    3.476080   -0.461720
  H     -2.007840    4.424660    0.627310
  H     -2.426010    2.056770    1.135520
  H    -13.440740   -4.326930   -3.514620
  H    -13.138290   -5.985990   -2.894180
  H    -13.197640   -5.690840   -4.655950
  H     -2.407890   -1.839540    7.970370
  H     -2.218370   -0.210550    7.250010
  H     -0.855770   -1.382320    7.196940
  H     -0.093360    7.309580   -0.598190
  H     -0.989540    6.538760    0.750610
  H     -1.423390    6.158790   -0.947350
  H      9.187520    0.350520   -4.517530
  H      9.026780   -1.409460   -4.227970
  H      9.150210   -0.277710   -2.840050
  H      1.963160   -9.535750   -4.767440
  H      3.539030   -8.680380   -4.754150
  H      2.042830   -7.802340   -5.212270

----------------------------
CARTESIAN COORDINATES (A.U.)
----------------------------
  NO LB      ZA    FRAG     MASS         X           Y           Z
   0 C     6.0000    0    12.011    4.703472   -4.946642   -0.826680
   1 C     6.0000    0    12.011    4.793177   -3.881195    1.637297
   2 C     6.0000    0    12.011    2.887785   -2.269126    2.520044
   3 C     6.0000    0    12.011    0.815587   -1.882092    0.966633
   4 C     6.0000    0    12.011    0.565274   -3.210777   -1.353592
   5 C     6.0000    0    12.011    2.551395   -4.700448   -2.304918
   6 C     6.0000    0    12.011    7.150459   -6.431116   -1.387456
   7 C     6.0000    0    12.011    8.241001   -6.640157    1.296163
   8 C     6.0000    0    12.011    6.946085   -4.999082    2.885215
   9 C     6.0000    0    12.011   10.098885   -8.061817    2.575810
  10 C     6.0000    0    12.011   10.194732   -7.497829    5.154001
  11 S    16.0000    0    32.060    8.000571   -5.106947    5.949406
  12 C     6.0000    0    12.011   -1.502635   -0.201331    1.480487
  13 C     6.0000    0    12.011   -3.239633   -1.053881   -0.665297
  14 C     6.0000    0    12.011   -1.990770   -2.752915   -2.226324
  15 C     6.0000    0    12.011   -5.794411   -0.693095   -1.328874
  16 C     6.0000    0    12.011   -6.532254   -2.250494   -3.318113
  17 S    16.0000    0    32.060   -3.956898   -4.011057   -4.504748
  18 C     6.0000    0    12.011   11.663465   -8.661805    7.139121
  19 C     6.0000    0    12.011   -9.074522   -2.704141   -4.228319
  20 C     6.0000    0    12.011   -2.548031   -0.834711    4.105506
  21 C     6.0000    0    12.011   -0.848959    2.608087    1.124293
  22 C     6.0000    0    12.011    6.556254   -8.952275   -2.660508
  23 C     6.0000    0    12.011    8.963236   -4.791646   -2.985106
  24 C     6.0000    0    12.011   11.205604   -8.178584    9.706427
  25 C     6.0000    0    12.011   12.512255   -9.369848   11.688599
  26 C     6.0000    0    12.011   14.443309  -11.137989   11.293098
  27 C     6.0000    0    12.011   15.012268  -11.605526    8.691342
  28 C     6.0000    0    12.011   13.651665  -10.436277    6.672264
  29 C     6.0000    0    12.011   -9.835854   -5.018489   -5.260695
  30 C     6.0000    0    12.011  -12.353593   -5.564998   -5.928789
  31 C     6.0000    0    12.011  -14.340886   -3.839035   -5.643459
  32 C     6.0000    0    12.011  -13.582728   -1.406013   -4.732120
  33 C     6.0000    0    12.011  -11.035679   -0.859901   -4.022962
  34 N     7.0000    0    14.007   16.749436  -13.158636    7.672364
  35 N     7.0000    0    14.007   16.401141  -12.893771    5.211449
  36 N     7.0000    0    14.007   14.604446  -11.323787    4.479482
  37 N     7.0000    0    14.007  -14.966555    0.697536   -4.365967
  38 N     7.0000    0    14.007  -13.294715    2.350271   -3.505366
  39 N     7.0000    0    14.007  -10.942327    1.564353   -3.243318
  40 C     6.0000    0    12.011   15.808806  -12.455903   13.244486
  41 C     6.0000    0    12.011   15.167641  -12.811058   15.707895
  42 C     6.0000    0    12.011  -16.979435   -4.355327   -6.075129
  43 C     6.0000    0    12.011  -18.161383   -6.595579   -6.521143
  44 C     6.0000    0    12.011  -13.986695    4.947057   -2.959009
  45 C     6.0000    0    12.011   17.942761  -14.251842    3.396424
  46 C     6.0000    0    12.011  -20.947312   -6.762442   -6.680239
  47 N     7.0000    0    14.007  -21.694812   -9.328028   -6.940114
  48 C     6.0000    0    12.011  -19.785603  -11.049550   -7.089138
  49 S    16.0000    0    32.060  -16.792484   -9.617100   -6.807738
  50 C     6.0000    0    12.011   16.803407  -14.254582   17.447331
  51 N     7.0000    0    14.007   15.553599  -14.600780   19.798698
  52 C     6.0000    0    12.011   13.216763  -13.541645   20.003696
  53 S    16.0000    0    32.060   12.331106  -11.934773   17.223682
  54 C     6.0000    0    12.011   16.814632  -16.025841   21.792945
  55 O     8.0000    0    15.999   18.901778  -15.059001   17.023107
  56 C     6.0000    0    12.011   11.577275  -13.580252   22.050855
  57 C     6.0000    0    12.011    9.198941  -12.323754   21.796026
  58 C     6.0000    0    12.011   12.067054  -14.770742   24.418663
  59 C     6.0000    0    12.011    5.142096  -10.777354   -1.341762
  60 C     6.0000    0    12.011    4.384108  -13.006040   -2.497934
  61 C     6.0000    0    12.011    5.021607  -13.480626   -5.036611
  62 C     6.0000    0    12.011    6.458819  -11.699049   -6.361196
  63 C     6.0000    0    12.011    7.208474   -9.459893   -5.164168
  64 C     6.0000    0    12.011    8.119889   -2.797343   -4.520074
  65 C     6.0000    0    12.011    9.794564   -1.369787   -5.961916
  66 C     6.0000    0    12.011   12.392654   -1.896416   -5.916260
  67 C     6.0000    0    12.011   13.265972   -3.898921   -4.412000
  68 C     6.0000    0    12.011   11.558094   -5.310376   -2.975941
  69 C     6.0000    0    12.011   -4.211425   -2.879168    4.442897
  70 C     6.0000    0    12.011   -4.913288   -3.683001    6.840223
  71 C     6.0000    0    12.011   -3.933578   -2.484234    8.997893
  72 C     6.0000    0    12.011   -2.302140   -0.417138    8.694781
  73 C     6.0000    0    12.011   -1.640093    0.390172    6.262156
  74 C     6.0000    0    12.011    1.539409    3.415019    0.295610
  75 C     6.0000    0    12.011    2.024974    5.946061   -0.215731
  76 C     6.0000    0    12.011    0.115349    7.760765    0.053876
  77 C     6.0000    0    12.011   -2.273076    6.997221    0.921884
  78 C     6.0000    0    12.011   -2.722415    4.448604    1.452992
  79 O     8.0000    0    15.999  -22.442879   -5.035856   -6.582672
  80 C     6.0000    0    12.011  -24.381681   -9.950258   -6.968686
  81 C     6.0000    0    12.011  -19.938066  -13.646695   -7.418989
  82 C     6.0000    0    12.011  -17.633526  -15.052576   -7.499681
  83 C     6.0000    0    12.011  -22.224162  -15.042730   -7.717906
  84 N     7.0000    0    14.007    7.276258  -11.291813   21.540327
  85 N     7.0000    0    14.007   12.378424  -15.714377   26.378441
  86 N     7.0000    0    14.007  -24.043798  -16.248035   -7.967596
  87 N     7.0000    0    14.007  -15.732102  -16.150393   -7.560624
  88 O     8.0000    0    15.999   -4.674275   -3.454306   11.251184
  89 O     8.0000    0    15.999    0.755021   10.163306   -0.565198
  90 O     8.0000    0    15.999   13.890111   -0.396181   -7.359633
  91 O     8.0000    0    15.999    4.166525  -15.680947   -6.030324
  92 C     6.0000    0    12.011   -3.693904   -2.415580   13.498881
  93 C     6.0000    0    12.011   -1.102844   12.064919   -0.502875
  94 C     6.0000    0    12.011   16.523444   -0.769005   -7.292793
  95 C     6.0000    0    12.011    4.644720  -16.215419   -8.594134
  96 H     1.0000    0     1.008    2.995915   -1.396470    4.384769
  97 H     1.0000    0     1.008    2.390882   -5.678797   -4.113631
  98 H     1.0000    0     1.008   11.290282   -9.520516    1.748053
  99 H     1.0000    0     1.008   -7.123701    0.535548   -0.351073
 100 H     1.0000    0     1.008    9.724474   -6.838862   10.222568
 101 H     1.0000    0     1.008   11.996378   -8.815100   13.606085
 102 H     1.0000    0     1.008   -8.434207   -6.517004   -5.474007
 103 H     1.0000    0     1.008  -12.721410   -7.440154   -6.694241
 104 H     1.0000    0     1.008   17.572639  -13.375500   12.678456
 105 H     1.0000    0     1.008  -18.260102   -2.738837   -5.915013
 106 H     1.0000    0     1.008  -16.026956    5.131173   -3.254978
 107 H     1.0000    0     1.008  -12.958740    6.222018   -4.234612
 108 H     1.0000    0     1.008  -13.481079    5.404692   -0.997511
 109 H     1.0000    0     1.008   19.045737  -12.904259    2.263344
 110 H     1.0000    0     1.008   16.717916  -15.360809    2.138565
 111 H     1.0000    0     1.008   19.206345  -15.498022    4.461625
 112 H     1.0000    0     1.008   18.634854  -16.638056   21.017421
 113 H     1.0000    0     1.008   15.690264  -17.679673   22.342818
 114 H     1.0000    0     1.008   17.124150  -14.832895   23.462292
 115 H     1.0000    0     1.008    4.597685  -10.410955    0.616164
 116 H     1.0000    0     1.008    3.271910  -14.419404   -1.487309
 117 H     1.0000    0     1.008    7.007161  -12.017789   -8.319822
 118 H     1.0000    0     1.008    8.303872   -8.079883   -6.235510
 119 H     1.0000    0     1.008    6.115456   -2.325875   -4.594057
 120 H     1.0000    0     1.008    9.127245    0.188538   -7.137212
 121 H     1.0000    0     1.008   15.267683   -4.380858   -4.334654
 122 H     1.0000    0     1.008   12.290798   -6.853111   -1.821809
 123 H     1.0000    0     1.008   -4.948494   -3.878701    2.798306
 124 H     1.0000    0     1.008   -6.196809   -5.274963    7.110510
 125 H     1.0000    0     1.008   -1.528751    0.577122   10.323045
 126 H     1.0000    0     1.008   -0.372238    2.004999    6.047917
 127 H     1.0000    0     1.008    3.056122    2.048331    0.031067
 128 H     1.0000    0     1.008    3.878568    6.568839   -0.872524
 129 H     1.0000    0     1.008   -3.794268    8.361396    1.185444
 130 H     1.0000    0     1.008   -4.584494    3.886732    2.145822
 131 H     1.0000    0     1.008  -25.399318   -8.176713   -6.641669
 132 H     1.0000    0     1.008  -24.827770  -11.311882   -5.469208
 133 H     1.0000    0     1.008  -24.939925  -10.754129   -8.798470
 134 H     1.0000    0     1.008   -4.550253   -3.476227   15.061816
 135 H     1.0000    0     1.008   -4.192112   -0.397882   13.700533
 136 H     1.0000    0     1.008   -1.617171   -2.612206   13.600246
 137 H     1.0000    0     1.008   -0.176425   13.813104   -1.130415
 138 H     1.0000    0     1.008   -1.869960   12.356466    1.418447
 139 H     1.0000    0     1.008   -2.689817   11.638426   -1.790232
 140 H     1.0000    0     1.008   17.361897    0.662387   -8.536895
 141 H     1.0000    0     1.008   17.058142   -2.663493   -7.989705
 142 H     1.0000    0     1.008   17.291391   -0.524796   -5.366917
 143 H     1.0000    0     1.008    3.709835  -18.019956   -9.009156
 144 H     1.0000    0     1.008    6.687797  -16.403541   -8.984041
 145 H     1.0000    0     1.008    3.860389  -14.744286   -9.849763

--------------------------------
INTERNAL COORDINATES (ANGSTROEM)
--------------------------------
 C      0   0   0     0.000000000000     0.00000000     0.00000000
 C      1   0   0     1.421350826292     0.00000000     0.00000000
 C      2   1   0     1.400923833012   121.56029151     0.00000000
 C      3   2   1     1.385685494836   117.50026865     4.30375774
 C      4   3   2     1.421065346773   120.87638353     4.19135299
 C      1   2   3     1.387739784614   120.48198296   351.03377714
 C      1   2   3     1.543337123606   110.50378594   174.62361671
 C      7   1   2     1.536874121260   100.02132267    14.59428287
 C      8   7   1     1.389533427486   109.20964023   346.83645578
 C      8   7   1     1.411063401907   138.02466198   164.38909839
 C     10   8   7     1.397502766831   112.32911791   182.85819001
 S      9   8   7     1.715778405418   113.00022394   179.40840768
 C      4   3   2     1.539455743209   127.67726960   180.46284928
 C     13   4   3     1.528982813801   100.21866797   191.13304174
 C     14  13   4     1.388339694959   110.29137518   355.40320703
 C     14  13   4     1.409777107844   136.18049785   169.69665500
 C     16  14  13     1.392749445414   112.14580615   189.53345350
 S     15  14  13     1.726107172049   112.23907728   174.15962981
 C     11  10   8     1.444636134568   129.66989703   174.38262015
 C     17  16  14     1.448959680357   127.55871339   169.07611938
 C     13   4   3     1.532308056136   108.75013201   309.91477745
 C     13   4   3     1.537985575550   110.95308812    75.82691013
 C      7   1   2     1.527296082002   110.89742981   136.34272811
 C      7   1   2     1.545206981896   109.89483978   260.90153702
 C     19  11  10     1.403487556696   122.23009029   191.87410323
 C     25  19  11     1.405605855494   123.76016356   176.74911121
 C     26  25  19     1.401242390381   123.14428012     1.11809525
 C     27  26  25     1.430877904854   114.36948629     1.01444079
 C     28  27  26     1.429274147986   122.57745680   357.66614614
 C     20  17  16     1.400234623376   122.80244562   212.35597295
 C     30  20  17     1.408449644290   123.34638057   173.72453447
 C     31  30  20     1.401040182365   123.30748783     0.49702710
 C     32  31  30     1.432198449098   114.33435351     3.09514558
 C     33  32  31     1.428641123096   122.31552822   356.10656406
 N     28  27  26     1.345840197869   129.40708014   179.50122705
 N     35  28  27     1.322685189038   103.56684848   178.34094158
 N     36  35  28     1.320690920882   117.11202383   359.90014904
 N     33  32  31     1.346437708994   129.74057681   176.41272995
 N     38  33  32     1.324764139838   103.41854276   179.94981003
 N     39  38  33     1.319771036923   117.25661793   359.57052401
 C     27  26  25     1.440431092798   125.59509715   181.38889378
 C     41  27  26     1.360058809059   128.96749865    18.69924393
 C     32  31  30     1.440960081543   125.91860354   185.93466446
 C     43  32  31     1.360989416601   129.63923022     9.08610593
 C     39  38  33     1.451204283483   121.67598244   177.31557878
 C     36  35  28     1.450685403732   121.39939441   179.33754958
 C     44  43  32     1.479289663521   121.32288829   174.11493654
 N     47  44  43     1.420771968509   109.87754996   184.97781444
 C     48  47  44     1.362662091569   115.97733418   357.53957676
 S     44  43  32     1.761898633321   128.05797421   357.91836924
 C     42  41  27     1.476502064814   121.51781133   179.24077341
 N     51  42  41     1.420996172057   109.86034228   187.11004195
 C     52  51  42     1.362011046688   116.05678548   358.81282320
 S     53  52  51     1.762637150891   111.92844235   359.34245700
 C     52  51  42     1.458651337469   119.15949297   178.88148324
 O     51  42  41     1.210210556308   127.17460457     7.15643296
 C     53  52  51     1.388046468026   128.57869470   179.83986832
 C     57  53  52     1.429777291819   118.01703725   180.23860334
 C     57  53  52     1.426195292693   125.35129970     0.47391318
 C     23   7   1     1.407038628539   119.36180534   296.80111233
 C     60  23   7     1.387849610513   121.22231385   174.67992146
 C     61  60  23     1.407702649781   120.20196249   359.91634104
 C     62  61  60     1.399483207509   119.21132051     1.00113843
 C     23   7   1     1.395200823681   122.41903392   112.11662675
 C     24   7   1     1.404525153531   122.75414974   335.91436258
 C     65  24   7     1.392184853028   121.49395046   180.74047799
 C     66  65  24     1.403017737058   120.43467746     0.03786432
 C     67  66  65     1.403617797835   118.83980971     0.58441264
 C     68  67  66     1.397200188198   119.93825911   359.37349822
 C     21  13   4     1.406110137543   120.62438965   276.12900488
 C     70  21  13     1.388616706330   121.27380497   171.45043035
 C     71  70  21     1.405303186967   120.35257529   358.94802518
 C     72  71  70     1.402704274607   119.08872967     1.98957777
 C     21  13   4     1.397651847385   120.97649390    88.07958171
 C     22  13   4     1.404280850614   122.31865510     3.34913732
 C     75  22  13     1.390379174003   121.33375714   174.55398679
 C     76  75  22     1.401321412025   120.46808356   359.12676749
 C     77  76  75     1.404166536206   119.02590099     1.92946990
 C     78  77  76     1.398012589285   119.76549474   358.75041376
 O     47  44  43     1.209877738534   127.18553492     4.14847911
 C     48  47  44     1.459536877300   119.19595809   176.09947039
 C     49  48  47     1.387737326514   128.77488235   182.04005911
 C     82  49  48     1.429162136253   118.01377302   180.36211660
 C     82  49  48     1.426277510655   125.18520672     1.16802888
 N     58  57  53     1.162624752919   178.67484317     3.86860415
 N     59  57  53     1.162761265394   177.48236318   181.72994421
 N     84  82  49     1.162526712553   177.89820521   179.91869385
 N     83  82  49     1.162303601560   178.61066762   357.74858885
 O     72  71  70     1.356076881781   115.90655335   181.88303070
 O     77  76  75     1.355833945179   115.97337105   181.97534743
 O     67  66  65     1.357048720017   116.50738607   180.61347821
 O     62  61  60     1.355359595163   116.32838632   181.16863757
 C     89  72  71     1.409263601283   119.21435934   177.55651044
 C     90  77  76     1.407221199421   119.37056435   175.89372947
 C     91  67  66     1.407841124204   118.80685775   177.12700366
 C     92  62  61     1.408789954358   119.08702864   177.20708541
 H      3   2   1     1.090980827238   121.43924924   182.35893947
 H      6   1   2     1.091488267871   120.90603066   186.52679033
 H     10   8   7     1.088666680210   126.04580977   359.67638569
 H     16  14  13     1.088700417333   125.59844764     5.11978315
 H     25  19  11     1.091568224070   118.97954715   358.28225489
 H     26  25  19     1.091007245530   116.76149279   179.32125368
 H     30  20  17     1.091653669073   118.69786707   356.96728786
 H     31  30  20     1.089310689060   116.70572899   180.73972627
 H     41  27  26     1.094406324086   116.54607389   195.89287273
 H     43  32  31     1.094615334718   116.07044395   184.99599058
 H     45  39  38     1.095302764034   107.72608441     4.06221496
 H     45  39  38     1.098521034710   109.52355909   244.17369862
 H     45  39  38     1.098925449200   109.59769098   124.72110389
 H     46  36  35     1.099416527527   109.77368278   243.73427170
 H     46  36  35     1.098888469363   109.50603505   123.83727735
 H     46  36  35     1.095315315560   107.50755737     3.74449406
 H     55  52  51     1.095978686563   106.49795657   359.02491586
 H     55  52  51     1.097544982859   110.85753083   239.53152727
 H     55  52  51     1.098044546865   110.67460633   118.42311740
 H     60  23   7     1.092735863921   119.25435467   356.02337187
 H     61  60  23     1.091689731059   121.46932125   180.57288595
 H     63  62  61     1.089448268345   121.12743746   179.16277522
 H     64  23   7     1.091196413759   119.73066953     4.60140932
 H     65  24   7     1.090349701976   120.11907170     1.15949437
 H     66  65  24     1.091569877470   121.08158580   180.56563450
 H     68  67  66     1.090296892319   121.18204840   179.50013328
 H     69  68  67     1.090786049095   118.33975184   180.11945422
 H     70  21  13     1.090543637320   119.71873341   352.39370487
 H     71  70  21     1.091545743384   121.50389486   180.30063404
 H     73  72  71     1.089376214537   121.15862252   179.05987124
 H     74  21  13     1.092340571525   119.28752055     8.92801756
 H     75  22  13     1.089415981432   120.08817174   354.87433692
 H     76  75  22     1.091573782023   121.25632485   180.43681002
 H     78  77  76     1.090215507778   121.05915317   178.94256582
 H     79  78  77     1.092600898178   118.90614606   179.36511935
 H     81  48  47     1.095791546326   106.49205134   356.37425125
 H     81  48  47     1.097510180044   110.49655669   236.90747181
 H     81  48  47     1.098084640909   111.01443061   115.86541611
 H     93  89  72     1.097461973555   106.53368780   179.77465840
 H     93  89  72     1.104952067784   111.75093007    61.01909405
 H     93  89  72     1.105177240853   111.73412946   298.73946393
 H     94  90  77     1.098372611640   106.46146240   181.91085083
 H     94  90  77     1.105580915356   112.20135926    62.83747149
 H     94  90  77     1.104658842268   111.75091124   300.77218819
 H     95  91  67     1.097283550501   106.76359708   181.64821089
 H     95  91  67     1.105039871226   111.85115064    62.72293152
 H     95  91  67     1.104749317357   111.77019431   300.63828288
 H     96  92  62     1.097657974599   106.64145110   182.85661029
 H     96  92  62     1.105155008992   111.93785767    63.75926167
 H     96  92  62     1.104448724523   111.73784784   301.71352689

---------------------------
INTERNAL COORDINATES (A.U.)
---------------------------
 C      0   0   0     0.000000000000     0.00000000     0.00000000
 C      1   0   0     2.685963801914     0.00000000     0.00000000
 C      2   1   0     2.647362378875   121.56029151     0.00000000
 C      3   2   1     2.618566092988   117.50026865     4.30375774
 C      4   3   2     2.685424323807   120.87638353     4.19135299
 C      1   2   3     2.622448138067   120.48198296   351.03377714
 C      1   2   3     2.916484495929   110.50378594   174.62361671
 C      7   1   2     2.904271191493   100.02132267    14.59428287
 C      8   7   1     2.625837631877   109.20964023   346.83645578
 C      8   7   1     2.666523387203   138.02466198   164.38909839
 C     10   8   7     2.640897500708   112.32911791   182.85819001
 S      9   8   7     3.242351292737   113.00022394   179.40840768
 C      4   3   2     2.909149749958   127.67726960   180.46284928
 C     13   4   3     2.889358781557   100.21866797   191.13304174
 C     14  13   4     2.623581804325   110.29137518   355.40320703
 C     14  13   4     2.664092643696   136.18049785   169.69665500
 C     16  14  13     2.631915025002   112.14580615   189.53345350
 S     15  14  13     3.261869832970   112.23907728   174.15962981
 C     11  10   8     2.729966657500   129.66989703   174.38262015
 C     17  16  14     2.738136974969   127.55871339   169.07611938
 C     13   4   3     2.895642578899   108.75013201   309.91477745
 C     13   4   3     2.906371535711   110.95308812    75.82691013
 C      7   1   2     2.886171320396   110.89742981   136.34272811
 C      7   1   2     2.920018016006   109.89483978   260.90153702
 C     19  11  10     2.652207114521   122.23009029   191.87410323
 C     25  19  11     2.656210119120   123.76016356   176.74911121
 C     26  25  19     2.647964365061   123.14428012     1.11809525
 C     27  26  25     2.703967371254   114.36948629     1.01444079
 C     28  27  26     2.700936709986   122.57745680   357.66614614
 C     20  17  16     2.646059961414   122.80244562   212.35597295
 C     30  20  17     2.661584101126   123.34638057   173.72453447
 C     31  30  20     2.647582247288   123.30748783     0.49702710
 C     32  31  30     2.706462838223   114.33435351     3.09514558
 C     33  32  31     2.699740466308   122.31552822   356.10656406
 N     28  27  26     2.543269393995   129.40708014   179.50122705
 N     35  28  27     2.499512768675   103.56684848   178.34094158
 N     36  35  28     2.495744148023   117.11202383   359.90014904
 N     33  32  31     2.544398526382   129.74057681   176.41272995
 N     38  33  32     2.503441416333   103.41854276   179.94981003
 N     39  38  33     2.494005819265   117.25661793   359.57052401
 C     27  26  25     2.722020280174   125.59509715   181.38889378
 C     41  27  26     2.570138675149   128.96749865    18.69924393
 C     32  31  30     2.723019924029   125.91860354   185.93466446
 C     43  32  31     2.571897268541   129.63923022     9.08610593
 C     39  38  33     2.742378660157   121.67598244   177.31557878
 C     36  35  28     2.741398119530   121.39939441   179.33754958
 C     44  43  32     2.795452336795   121.32288829   174.11493654
 N     47  44  43     2.684869919234   109.87754996   184.97781444
 C     48  47  44     2.575058166142   115.97733418   357.53957676
 S     44  43  32     3.329505892708   128.05797421   357.91836924
 C     42  41  27     2.790184538668   121.51781133   179.24077341
 N     51  42  41     2.685293602538   109.86034228   187.11004195
 C     52  51  42     2.573827869616   116.05678548   358.81282320
 S     53  52  51     3.330901488659   111.92844235   359.34245700
 C     52  51  42     2.756451552694   119.15949297   178.88148324
 O     51  42  41     2.286966515803   127.17460457     7.15643296
 C     53  52  51     2.623027685726   128.57869470   179.83986832
 C     57  53  52     2.701887514037   118.01703725   180.23860334
 C     57  53  52     2.695118516678   125.35129970     0.47391318
 C     23   7   1     2.658917667786   119.36180534   296.80111233
 C     60  23   7     2.622655678938   121.22231385   174.67992146
 C     61  60  23     2.660172486081   120.20196249   359.91634104
 C     62  61  60     2.644639991214   119.21132051     1.00113843
 C     23   7   1     2.636547458578   122.41903392   112.11662675
 C     24   7   1     2.654167888376   122.75414974   335.91436258
 C     65  24   7     2.630848100016   121.49395046   180.74047799
 C     66  65  24     2.651319284074   120.43467746     0.03786432
 C     67  66  65     2.652453234606   118.83980971     0.58441264
 C     68  67  66     2.640325709957   119.93825911   359.37349822
 C     21  13   4     2.657163074086   120.62438965   276.12900488
 C     70  21  13     2.624105279952   121.27380497   171.45043035
 C     71  70  21     2.655638158495   120.35257529   358.94802518
 C     72  71  70     2.650726925887   119.08872967     1.98957777
 C     21  13   4     2.641179222128   120.97649390    88.07958171
 C     22  13   4     2.653706222770   122.31865510     3.34913732
 C     75  22  13     2.627435861172   121.33375714   174.55398679
 C     76  75  22     2.648113694327   120.46808356   359.12676749
 C     77  76  75     2.653490199846   119.02590099     1.92946990
 C     78  77  76     2.641860925523   119.76549474   358.75041376
 O     47  44  43     2.286337581357   127.18553492     4.14847911
 C     48  47  44     2.758124980457   119.19595809   176.09947039
 C     49  48  47     2.622443492931   128.77488235   182.04005911
 C     82  49  48     2.700725038489   118.01377302   180.36211660
 C     82  49  48     2.695273886109   125.18520672     1.16802888
 N     58  57  53     2.197042379535   178.67484317     3.86860415
 N     59  57  53     2.197300350726   177.48236318   181.72994421
 N     84  82  49     2.196857110094   177.89820521   179.91869385
 N     83  82  49     2.196435491419   178.61066762   357.74858885
 O     72  71  70     2.562613923107   115.90655335   181.88303070
 O     77  76  75     2.562154839463   115.97337105   181.97534743
 O     67  66  65     2.564450431221   116.50738607   180.61347821
 O     62  61  60     2.561258447840   116.32838632   181.16863757
 C     89  72  71     2.663122256928   119.21435934   177.55651044
 C     90  77  76     2.659262676754   119.37056435   175.89372947
 C     91  67  66     2.660434164817   118.80685775   177.12700366
 C     92  62  61     2.662227193956   119.08702864   177.20708541
 H      3   2   1     2.061654980838   121.43924924   182.35893947
 H      6   1   2     2.062613904664   120.90603066   186.52679033
 H     10   8   7     2.057281876723   126.04580977   359.67638569
 H     16  14  13     2.057345630644   125.59844764     5.11978315
 H     25  19  11     2.062764999984   118.97954715   358.28225489
 H     26  25  19     2.061704904176   116.76149279   179.32125368
 H     30  20  17     2.062926467638   118.69786707   356.96728786
 H     31  30  20     2.058498877076   116.70572899   180.73972627
 H     41  27  26     2.068128231754   116.54607389   195.89287273
 H     43  32  31     2.068523204608   116.07044395   184.99599058
 H     45  39  38     2.069822257751   107.72608441     4.06221496
 H     45  39  38     2.075903907953   109.52355909   244.17369862
 H     45  39  38     2.076668140585   109.59769098   124.72110389
 H     46  36  35     2.077596144133   109.77368278   243.73427170
 H     46  36  35     2.076598258821   109.50603505   123.83727735
 H     46  36  35     2.069845976698   107.50755737     3.74449406
 H     55  52  51     2.071099566218   106.49795657   359.02491586
 H     55  52  51     2.074059437264   110.85753083   239.53152727
 H     55  52  51     2.075003476421   110.67460633   118.42311740
 H     60  23   7     2.064971519525   119.25435467   356.02337187
 H     61  60  23     2.062994614916   121.46932125   180.57288595
 H     63  62  61     2.058758864247   121.12743746   179.16277522
 H     64  23   7     2.062062380321   119.73066953     4.60140932
 H     65  24   7     2.060462326938   120.11907170     1.15949437
 H     66  65  24     2.062768124456   121.08158580   180.56563450
 H     68  67  66     2.060362531148   121.18204840   179.50013328
 H     69  68  67     2.061286903491   118.33975184   180.11945422
 H     70  21  13     2.060828811626   119.71873341   352.39370487
 H     71  70  21     2.062722517643   121.50389486   180.30063404
 H     73  72  71     2.058622702284   121.15862252   179.05987124
 H     74  21  13     2.064224525154   119.28752055     8.92801756
 H     75  22  13     2.058697850824   120.08817174   354.87433692
 H     76  75  22     2.062775502992   121.25632485   180.43681002
 H     78  77  76     2.060208736655   121.05915317   178.94256582
 H     79  78  77     2.064716471233   118.90614606   179.36511935
 H     81  48  47     2.070745922423   106.49205134   356.37425125
 H     81  48  47     2.073993669474   110.49655669   236.90747181
 H     81  48  47     2.075079243183   111.01443061   115.86541611
 H     93  89  72     2.073902572412   106.53368780   179.77465840
 H     93  89  72     2.088056799222   111.75093007    61.01909405
 H     93  89  72     2.088482314655   111.73412946   298.73946393
 H     94  90  77     2.075623428999   106.46146240   181.91085083
 H     94  90  77     2.089245148913   112.20135926    62.83747149
 H     94  90  77     2.087502683300   111.75091124   300.77218819
 H     95  91  67     2.073565401704   106.76359708   181.64821089
 H     95  91  67     2.088222723681   111.85115064    62.72293152
 H     95  91  67     2.087673656441   111.77019431   300.63828288
 H     96  92  62     2.074272960706   106.64145110   182.85661029
 H     96  92  62     2.088440302526   111.93785767    63.75926167
 H     96  92  62     2.087105618307   111.73784784   301.71352689

---------------------
BASIS SET INFORMATION
---------------------
There are 5 groups of distinct atoms

 Group   1 Type C   : 7s4p1d contracted to 3s2p1d pattern {511/31/1}
 Group   2 Type S   : 10s7p1d contracted to 4s3p1d pattern {5311/511/1}
 Group   3 Type N   : 7s4p1d contracted to 3s2p1d pattern {511/31/1}
 Group   4 Type O   : 7s4p1d contracted to 3s2p1d pattern {511/31/1}
 Group   5 Type H   : 4s1p contracted to 2s1p pattern {31/1}

Atom   0C    basis set group =>   1
Atom   1C    basis set group =>   1
Atom   2C    basis set group =>   1
Atom   3C    basis set group =>   1
Atom   4C    basis set group =>   1
Atom   5C    basis set group =>   1
Atom   6C    basis set group =>   1
Atom   7C    basis set group =>   1
Atom   8C    basis set group =>   1
Atom   9C    basis set group =>   1
Atom  10C    basis set group =>   1
Atom  11S    basis set group =>   2
Atom  12C    basis set group =>   1
Atom  13C    basis set group =>   1
Atom  14C    basis set group =>   1
Atom  15C    basis set group =>   1
Atom  16C    basis set group =>   1
Atom  17S    basis set group =>   2
Atom  18C    basis set group =>   1
Atom  19C    basis set group =>   1
Atom  20C    basis set group =>   1
Atom  21C    basis set group =>   1
Atom  22C    basis set group =>   1
Atom  23C    basis set group =>   1
Atom  24C    basis set group =>   1
Atom  25C    basis set group =>   1
Atom  26C    basis set group =>   1
Atom  27C    basis set group =>   1
Atom  28C    basis set group =>   1
Atom  29C    basis set group =>   1
Atom  30C    basis set group =>   1
Atom  31C    basis set group =>   1
Atom  32C    basis set group =>   1
Atom  33C    basis set group =>   1
Atom  34N    basis set group =>   3
Atom  35N    basis set group =>   3
Atom  36N    basis set group =>   3
Atom  37N    basis set group =>   3
Atom  38N    basis set group =>   3
Atom  39N    basis set group =>   3
Atom  40C    basis set group =>   1
Atom  41C    basis set group =>   1
Atom  42C    basis set group =>   1
Atom  43C    basis set group =>   1
Atom  44C    basis set group =>   1
Atom  45C    basis set group =>   1
Atom  46C    basis set group =>   1
Atom  47N    basis set group =>   3
Atom  48C    basis set group =>   1
Atom  49S    basis set group =>   2
Atom  50C    basis set group =>   1
Atom  51N    basis set group =>   3
Atom  52C    basis set group =>   1
Atom  53S    basis set group =>   2
Atom  54C    basis set group =>   1
Atom  55O    basis set group =>   4
Atom  56C    basis set group =>   1
Atom  57C    basis set group =>   1
Atom  58C    basis set group =>   1
Atom  59C    basis set group =>   1
Atom  60C    basis set group =>   1
Atom  61C    basis set group =>   1
Atom  62C    basis set group =>   1
Atom  63C    basis set group =>   1
Atom  64C    basis set group =>   1
Atom  65C    basis set group =>   1
Atom  66C    basis set group =>   1
Atom  67C    basis set group =>   1
Atom  68C    basis set group =>   1
Atom  69C    basis set group =>   1
Atom  70C    basis set group =>   1
Atom  71C    basis set group =>   1
Atom  72C    basis set group =>   1
Atom  73C    basis set group =>   1
Atom  74C    basis set group =>   1
Atom  75C    basis set group =>   1
Atom  76C    basis set group =>   1
Atom  77C    basis set group =>   1
Atom  78C    basis set group =>   1
Atom  79O    basis set group =>   4
Atom  80C    basis set group =>   1
Atom  81C    basis set group =>   1
Atom  82C    basis set group =>   1
Atom  83C    basis set group =>   1
Atom  84N    basis set group =>   3
Atom  85N    basis set group =>   3
Atom  86N    basis set group =>   3
Atom  87N    basis set group =>   3
Atom  88O    basis set group =>   4
Atom  89O    basis set group =>   4
Atom  90O    basis set group =>   4
Atom  91O    basis set group =>   4
Atom  92C    basis set group =>   1
Atom  93C    basis set group =>   1
Atom  94C    basis set group =>   1
Atom  95C    basis set group =>   1
Atom  96H    basis set group =>   5
Atom  97H    basis set group =>   5
Atom  98H    basis set group =>   5
Atom  99H    basis set group =>   5
Atom 100H    basis set group =>   5
Atom 101H    basis set group =>   5
Atom 102H    basis set group =>   5
Atom 103H    basis set group =>   5
Atom 104H    basis set group =>   5
Atom 105H    basis set group =>   5
Atom 106H    basis set group =>   5
Atom 107H    basis set group =>   5
Atom 108H    basis set group =>   5
Atom 109H    basis set group =>   5
Atom 110H    basis set group =>   5
Atom 111H    basis set group =>   5
Atom 112H    basis set group =>   5
Atom 113H    basis set group =>   5
Atom 114H    basis set group =>   5
Atom 115H    basis set group =>   5
Atom 116H    basis set group =>   5
Atom 117H    basis set group =>   5
Atom 118H    basis set group =>   5
Atom 119H    basis set group =>   5
Atom 120H    basis set group =>   5
Atom 121H    basis set group =>   5
Atom 122H    basis set group =>   5
Atom 123H    basis set group =>   5
Atom 124H    basis set group =>   5
Atom 125H    basis set group =>   5
Atom 126H    basis set group =>   5
Atom 127H    basis set group =>   5
Atom 128H    basis set group =>   5
Atom 129H    basis set group =>   5
Atom 130H    basis set group =>   5
Atom 131H    basis set group =>   5
Atom 132H    basis set group =>   5
Atom 133H    basis set group =>   5
Atom 134H    basis set group =>   5
Atom 135H    basis set group =>   5
Atom 136H    basis set group =>   5
Atom 137H    basis set group =>   5
Atom 138H    basis set group =>   5
Atom 139H    basis set group =>   5
Atom 140H    basis set group =>   5
Atom 141H    basis set group =>   5
Atom 142H    basis set group =>   5
Atom 143H    basis set group =>   5
Atom 144H    basis set group =>   5
Atom 145H    basis set group =>   5
------------------------------------------------------------------------------
                           ORCA GTO INTEGRAL CALCULATION
------------------------------------------------------------------------------

                         BASIS SET STATISTICS AND STARTUP INFO

 # of primitive gaussian shells          ... 1426
 # of primitive gaussian functions       ... 2702
 # of contracted shells                  ...  734
 # of contracted basis functions         ... 1610
 Highest angular momentum                ...    2
 Maximum contraction depth               ...    5
 Integral package used                   ... LIBINT
 Integral threshhold            Thresh   ...  2.500e-11
 Primitive cut-off              TCut     ...  2.500e-12


------------------------------ INTEGRAL EVALUATION ----------------------------


 * One electron integrals 
 Pre-screening matrix                    ... done
 Shell pair data                         ... done (   0.027 sec)

-------------------------------------------------------------------------------
                                 ORCA SCF
-------------------------------------------------------------------------------

------------
SCF SETTINGS
------------
Hamiltonian:
 Ab initio Hamiltonian  Method          .... Hartree-Fock(GTOs)


General Settings:
 Integral files         IntName         .... BTA43
 Hartree-Fock type      HFTyp           .... RHF
 Total Charge           Charge          ....    0
 Multiplicity           Mult            ....    1
 Number of Electrons    NEL             ....  690
 Basis Dimension        Dim             .... 1610
 Nuclear Repulsion      ENuc            ....  16610.1039251436 Eh

Convergence Acceleration:
 DIIS                   CNVDIIS         .... on
   Start iteration      DIISMaxIt       ....    12
   Startup error        DIISStart       ....  0.200000
   # of expansion vecs  DIISMaxEq       ....     5
   Bias factor          DIISBfac        ....   1.050
   Max. coefficient     DIISMaxC        ....  10.000
 Newton-Raphson         CNVNR           .... off
 SOSCF                  CNVSOSCF        .... on
   Start iteration      SOSCFMaxIt      ....   150
   Startup grad/error   SOSCFStart      ....  0.003300
 Level Shifting         CNVShift        .... on
   Level shift para.    LevelShift      ....    0.2500
   Turn off err/grad.   ShiftErr        ....    0.0010
 Zerner damping         CNVZerner       .... off
 Static damping         CNVDamp         .... on
   Fraction old density DampFac         ....    0.7000
   Max. Damping (<1)    DampMax         ....    0.9800
   Min. Damping (>=0)   DampMin         ....    0.0000
   Turn off err/grad.   DampErr         ....    0.1000
 Fernandez-Rico         CNVRico         .... off

SCF Procedure:
 Maximum # iterations   MaxIter         ....   125
 SCF integral mode      SCFMode         .... Direct
   Integral package                     .... LIBINT
 Reset frequency        DirectResetFreq ....    20
 Integral Threshold     Thresh          ....  2.500e-11 Eh
 Primitive CutOff       TCut            ....  2.500e-12 Eh

Convergence Tolerance:
 Convergence Check Mode ConvCheckMode   .... Total+1el-Energy
 Convergence forced     ConvForced      .... 1
 Energy Change          TolE            ....  1.000e-08 Eh
 1-El. energy change                    ....  1.000e-05 Eh
 Orbital Gradient       TolG            ....  1.000e-05
 Orbital Rotation angle TolX            ....  1.000e-05
 DIIS Error             TolErr          ....  5.000e-07


Diagonalization of the overlap matrix:
Smallest eigenvalue                        ... 1.806e-04
Time for diagonalization                   ...    1.053 sec
Threshold for overlap eigenvalues          ... 1.000e-08
Number of eigenvalues below threshold      ... 0
Time for construction of square roots      ...    0.333 sec
Total time needed                          ...    1.394 sec

-------------------
DFT GRID GENERATION
-------------------

General Integration Accuracy     IntAcc      ...  4.340
Radial Grid Type                 RadialGrid  ... Gauss-Chebyshev
Angular Grid (max. acc.)         AngularGrid ... Lebedev-110
Angular grid pruning method      GridPruning ... 3 (G Style)
Weight generation scheme         WeightScheme... Becke
Basis function cutoff            BFCut       ...    1.0000e-11
Integration weight cutoff        WCut        ...    1.0000e-14
Grids for H and He will be reduced by one unit

# of grid points (after initial pruning)     ... 200188 (   0.5 sec)
# of grid points (after weights+screening)   ... 174329 (   9.7 sec)
nearest neighbour list constructed           ...    0.0 sec
Grid point re-assignment to atoms done       ...    0.0 sec
Grid point division into batches done        ...    0.2 sec
Reduced shell lists constructed in    3.5 sec

Total number of grid points                  ...   174329
Total number of batches                      ...     2798
Average number of points per batch           ...       62
Average number of grid points per atom       ...     1194
Average number of shells per batch           ...   113.13 (15.41%)
Average number of basis functions per batch  ...   230.77 (14.33%)
Average number of large shells per batch     ...    65.29 (57.71%)
Average number of large basis fcns per batch ...   136.57 (59.18%)
Maximum spatial batch extension              ...  20.95, 20.69, 25.87 au
Average spatial batch extension              ...   3.20,  3.31,  3.30 au

Time for grid setup =   13.739 sec

------------------------------
INITIAL GUESS: MODEL POTENTIAL
------------------------------
Loading Hartree-Fock densities                     ... done
Calculating cut-offs                               ... done
Setting up the integral package                    ... done
Initializing the effective Hamiltonian             ... done
Starting the Coulomb interaction                   ... done (  17.2 sec)
Reading the grid                                   ... done
Mapping shells                                     ... done
Starting the XC term evaluation                    ... done (   3.1 sec)
Transforming the Hamiltonian                       ... done (   0.3 sec)
Diagonalizing the Hamiltonian                      ... done (   0.9 sec)
Back transforming the eigenvectors                 ... done (   0.1 sec)
Now organizing SCF variables                       ... done
                      ------------------
                      INITIAL GUESS DONE (  35.8 sec)
                      ------------------
--------------
SCF ITERATIONS
--------------
ITER       Energy         Delta-E        Max-DP      RMS-DP      [F,P]     Damp
               ***  Starting incremental Fock matrix formation  ***
  0  -5517.4404978667   0.000000000000 0.31870121  0.00114736  0.2498238 0.7000
  1  -5518.4262922563  -0.985794389602 0.23923212  0.00088872  0.1495417 0.7000
                               ***Turning on DIIS***
  2  -5519.0268635120  -0.600571255756 0.54828985  0.00206561  0.0831060 0.0000
  3  -5515.5505224491   3.476341062920 0.05920798  0.00043961  0.0566817 0.0000
  4  -5520.7578390244  -5.207316575284 0.02832368  0.00016305  0.0210749 0.0000
  5  -5520.5339605940   0.223878430410 0.01401965  0.00007999  0.0101397 0.0000
  6  -5520.2548445609   0.279116033096 0.00595455  0.00004620  0.0030323 0.0000
                      *** Initiating the SOSCF procedure ***
                           *** Shutting down DIIS ***
                      *** Re-Reading the Fockian *** 
                      *** Removing any level shift *** 
ITER      Energy       Delta-E        Grad      Rot      Max-DP    RMS-DP
  7  -5520.36140207  -0.1065575060  0.003040  0.003040  0.003646  0.000028
               *** Restarting incremental Fock matrix formation ***
  8  -5520.33479633   0.0266057391  0.001599  0.005579  0.002538  0.000019
  9  -5520.33504388  -0.0002475514  0.000778  0.006303  0.003066  0.000028
 10  -5520.33515762  -0.0001137416  0.000253  0.000886  0.000678  0.000007
 11  -5520.33517089  -0.0000132676  0.000166  0.000710  0.000369  0.000003
 12  -5520.33517413  -0.0000032437  0.000044  0.000246  0.000221  0.000001
 13  -5520.33517469  -0.0000005530  0.000018  0.000130  0.000112  0.000001
 14  -5520.33517487  -0.0000001832  0.000012  0.000066  0.000042  0.000000
 15  -5520.33517492  -0.0000000504  0.000006  0.000030  0.000018  0.000000
 16  -5520.33517490   0.0000000166  0.000003  0.000022  0.000011  0.000000
                  ***Gradient check signals convergence***
              ***Rediagonalizing the Fockian in SOSCF/NRSCF***

               *****************************************************
               *                     SUCCESS                       *
               *           SCF CONVERGED AFTER  17 CYCLES          *
               *****************************************************


----------------
TOTAL SCF ENERGY
----------------

Total Energy       :        -5520.33517490 Eh         -150215.95694 eV

Components:
Nuclear Repulsion  :        16610.10392514 Eh          451983.90622 eV
Electronic Energy  :       -22130.43910005 Eh         -602199.86316 eV
One Electron Energy:       -40659.53657664 Eh        -1106402.23865 eV
Two Electron Energy:        18529.09747659 Eh          504202.37549 eV

Virial components:
Potential Energy   :       -11020.97656208 Eh         -299896.01867 eV
Kinetic Energy     :         5500.64138718 Eh          149680.06173 eV
Virial Ratio       :            2.00358027


---------------
SCF CONVERGENCE
---------------

  Last Energy change         ...    3.5288e-10  Tolerance :   1.0000e-08
  Last MAX-Density change    ...    4.9368e-06  Tolerance :   1.0000e-07
  Last RMS-Density change    ...    3.8628e-08  Tolerance :   5.0000e-09
  Last Orbital Gradient      ...    1.5293e-06  Tolerance :   1.0000e-05
  Last Orbital Rotation      ...    1.0039e-05  Tolerance :   1.0000e-05

             **** THE GBW FILE WAS UPDATED (BTA43.gbw) ****
             **** DENSITY FILE WAS UPDATED (BTA43.scfp) ****
             **** ENERGY FILE WAS UPDATED (BTA43.en.tmp) ****
             **** THE GBW FILE WAS UPDATED (BTA43.gbw) ****
             **** DENSITY FILE WAS UPDATED (BTA43.scfp) ****
----------------
ORBITAL ENERGIES
----------------

  NO   OCC          E(Eh)            E(eV) 
   0   2.0000     -91.993987     -2503.2837 
   1   2.0000     -91.993484     -2503.2700 
   2   2.0000     -91.968345     -2502.5859 
   3   2.0000     -91.967098     -2502.5520 
   4   2.0000     -20.585483      -560.1595 
   5   2.0000     -20.584226      -560.1253 
   6   2.0000     -20.582981      -560.0914 
   7   2.0000     -20.581399      -560.0484 
   8   2.0000     -20.570093      -559.7407 
   9   2.0000     -20.570074      -559.7402 
  10   2.0000     -15.728297      -427.9887 
  11   2.0000     -15.727460      -427.9659 
  12   2.0000     -15.665036      -426.2673 
  13   2.0000     -15.664927      -426.2643 
  14   2.0000     -15.636085      -425.4795 
  15   2.0000     -15.635235      -425.4564 
  16   2.0000     -15.633264      -425.4027 
  17   2.0000     -15.632804      -425.3902 
  18   2.0000     -15.582663      -424.0258 
  19   2.0000     -15.582621      -424.0247 
  20   2.0000     -15.582580      -424.0236 
  21   2.0000     -15.582478      -424.0208 
  22   2.0000     -11.411671      -310.5274 
  23   2.0000     -11.411361      -310.5189 
  24   2.0000     -11.403073      -310.2934 
  25   2.0000     -11.402908      -310.2889 
  26   2.0000     -11.316454      -307.9364 
  27   2.0000     -11.316142      -307.9279 
  28   2.0000     -11.313674      -307.8607 
  29   2.0000     -11.313159      -307.8467 
  30   2.0000     -11.312555      -307.8303 
  31   2.0000     -11.310877      -307.7846 
  32   2.0000     -11.310613      -307.7774 
  33   2.0000     -11.309758      -307.7542 
  34   2.0000     -11.309086      -307.7359 
  35   2.0000     -11.308953      -307.7323 
  36   2.0000     -11.307543      -307.6939 
  37   2.0000     -11.307501      -307.6927 
  38   2.0000     -11.302583      -307.5589 
  39   2.0000     -11.302501      -307.5567 
  40   2.0000     -11.302302      -307.5513 
  41   2.0000     -11.301237      -307.5223 
  42   2.0000     -11.299965      -307.4877 
  43   2.0000     -11.298846      -307.4572 
  44   2.0000     -11.298734      -307.4542 
  45   2.0000     -11.298706      -307.4534 
  46   2.0000     -11.298642      -307.4517 
  47   2.0000     -11.298095      -307.4368 
  48   2.0000     -11.298075      -307.4362 
  49   2.0000     -11.298000      -307.4342 
  50   2.0000     -11.297170      -307.4116 
  51   2.0000     -11.296054      -307.3812 
  52   2.0000     -11.295204      -307.3581 
  53   2.0000     -11.295089      -307.3550 
  54   2.0000     -11.292399      -307.2818 
  55   2.0000     -11.291881      -307.2677 
  56   2.0000     -11.288198      -307.1675 
  57   2.0000     -11.287740      -307.1550 
  58   2.0000     -11.285281      -307.0881 
  59   2.0000     -11.284057      -307.0548 
  60   2.0000     -11.283780      -307.0473 
  61   2.0000     -11.283479      -307.0391 
  62   2.0000     -11.283300      -307.0342 
  63   2.0000     -11.281096      -306.9742 
  64   2.0000     -11.271474      -306.7124 
  65   2.0000     -11.270890      -306.6965 
  66   2.0000     -11.269927      -306.6703 
  67   2.0000     -11.269506      -306.6588 
  68   2.0000     -11.267562      -306.6059 
  69   2.0000     -11.267364      -306.6006 
  70   2.0000     -11.263097      -306.4844 
  71   2.0000     -11.261508      -306.4412 
  72   2.0000     -11.260466      -306.4129 
  73   2.0000     -11.258779      -306.3670 
  74   2.0000     -11.257220      -306.3245 
  75   2.0000     -11.255749      -306.2845 
  76   2.0000     -11.253565      -306.2251 
  77   2.0000     -11.253096      -306.2123 
  78   2.0000     -11.252181      -306.1874 
  79   2.0000     -11.250986      -306.1549 
  80   2.0000     -11.250432      -306.1398 
  81   2.0000     -11.249844      -306.1238 
  82   2.0000     -11.249422      -306.1123 
  83   2.0000     -11.249063      -306.1026 
  84   2.0000     -11.248714      -306.0931 
  85   2.0000     -11.247424      -306.0580 
  86   2.0000     -11.247324      -306.0552 
  87   2.0000     -11.246751      -306.0396 
  88   2.0000     -11.246098      -306.0219 
  89   2.0000     -11.245872      -306.0157 
  90   2.0000     -11.243422      -305.9491 
  91   2.0000     -11.241376      -305.8934 
  92   2.0000     -11.239561      -305.8440 
  93   2.0000     -11.238732      -305.8214 
  94   2.0000     -11.237341      -305.7836 
  95   2.0000     -11.237157      -305.7786 
  96   2.0000      -9.029870      -245.7153 
  97   2.0000      -9.029393      -245.7023 
  98   2.0000      -9.003156      -244.9883 
  99   2.0000      -9.002263      -244.9640 
 100   2.0000      -6.717318      -182.7875 
 101   2.0000      -6.716829      -182.7742 
 102   2.0000      -6.716082      -182.7539 
 103   2.0000      -6.715605      -182.7409 
 104   2.0000      -6.713666      -182.6881 
 105   2.0000      -6.713177      -182.6748 
 106   2.0000      -6.690689      -182.0629 
 107   2.0000      -6.689831      -182.0396 
 108   2.0000      -6.689736      -182.0370 
 109   2.0000      -6.688828      -182.0123 
 110   2.0000      -6.687844      -181.9855 
 111   2.0000      -6.686965      -181.9616 
 112   2.0000      -1.475595       -40.1530 
 113   2.0000      -1.474737       -40.1296 
 114   2.0000      -1.425723       -38.7959 
 115   2.0000      -1.425583       -38.7921 
 116   2.0000      -1.406065       -38.2610 
 117   2.0000      -1.405410       -38.2432 
 118   2.0000      -1.403896       -38.2020 
 119   2.0000      -1.401927       -38.1484 
 120   2.0000      -1.330175       -36.1959 
 121   2.0000      -1.330031       -36.1920 
 122   2.0000      -1.226585       -33.3771 
 123   2.0000      -1.223474       -33.2924 
 124   2.0000      -1.223222       -33.2856 
 125   2.0000      -1.218850       -33.1666 
 126   2.0000      -1.216925       -33.1142 
 127   2.0000      -1.213649       -33.0251 
 128   2.0000      -1.208349       -32.8808 
 129   2.0000      -1.208059       -32.8730 
 130   2.0000      -1.202928       -32.7333 
 131   2.0000      -1.199347       -32.6359 
 132   2.0000      -1.164752       -31.6945 
 133   2.0000      -1.162172       -31.6243 
 134   2.0000      -1.155841       -31.4520 
 135   2.0000      -1.155596       -31.4454 
 136   2.0000      -1.151095       -31.3229 
 137   2.0000      -1.142933       -31.1008 
 138   2.0000      -1.142510       -31.0893 
 139   2.0000      -1.126719       -30.6596 
 140   2.0000      -1.124941       -30.6112 
 141   2.0000      -1.122532       -30.5456 
 142   2.0000      -1.114945       -30.3392 
 143   2.0000      -1.107710       -30.1423 
 144   2.0000      -1.084677       -29.5156 
 145   2.0000      -1.077676       -29.3250 
 146   2.0000      -1.071517       -29.1575 
 147   2.0000      -1.059245       -28.8235 
 148   2.0000      -1.032208       -28.0878 
 149   2.0000      -1.025365       -27.9016 
 150   2.0000      -1.019497       -27.7419 
 151   2.0000      -1.018410       -27.7124 
 152   2.0000      -1.016878       -27.6706 
 153   2.0000      -1.016525       -27.6610 
 154   2.0000      -1.013754       -27.5856 
 155   2.0000      -1.013273       -27.5726 
 156   2.0000      -1.009458       -27.4687 
 157   2.0000      -1.003442       -27.3050 
 158   2.0000      -1.000994       -27.2384 
 159   2.0000      -0.998444       -27.1690 
 160   2.0000      -0.992685       -27.0123 
 161   2.0000      -0.991056       -26.9680 
 162   2.0000      -0.981253       -26.7013 
 163   2.0000      -0.980920       -26.6922 
 164   2.0000      -0.961387       -26.1607 
 165   2.0000      -0.955660       -26.0048 
 166   2.0000      -0.954973       -25.9861 
 167   2.0000      -0.941435       -25.6177 
 168   2.0000      -0.936530       -25.4843 
 169   2.0000      -0.935239       -25.4491 
 170   2.0000      -0.926806       -25.2197 
 171   2.0000      -0.912669       -24.8350 
 172   2.0000      -0.895918       -24.3792 
 173   2.0000      -0.893760       -24.3204 
 174   2.0000      -0.879588       -23.9348 
 175   2.0000      -0.877071       -23.8663 
 176   2.0000      -0.875803       -23.8318 
 177   2.0000      -0.860133       -23.4054 
 178   2.0000      -0.850479       -23.1427 
 179   2.0000      -0.845005       -22.9938 
 180   2.0000      -0.839284       -22.8381 
 181   2.0000      -0.839014       -22.8307 
 182   2.0000      -0.835837       -22.7443 
 183   2.0000      -0.835168       -22.7261 
 184   2.0000      -0.820644       -22.3309 
 185   2.0000      -0.819830       -22.3087 
 186   2.0000      -0.819254       -22.2930 
 187   2.0000      -0.812072       -22.0976 
 188   2.0000      -0.804662       -21.8960 
 189   2.0000      -0.803675       -21.8691 
 190   2.0000      -0.795524       -21.6473 
 191   2.0000      -0.789697       -21.4887 
 192   2.0000      -0.778107       -21.1734 
 193   2.0000      -0.775732       -21.1087 
 194   2.0000      -0.765761       -20.8374 
 195   2.0000      -0.759008       -20.6537 
 196   2.0000      -0.758679       -20.6447 
 197   2.0000      -0.754363       -20.5273 
 198   2.0000      -0.751434       -20.4476 
 199   2.0000      -0.743598       -20.2343 
 200   2.0000      -0.735340       -20.0096 
 201   2.0000      -0.729945       -19.8628 
 202   2.0000      -0.729195       -19.8424 
 203   2.0000      -0.727978       -19.8093 
 204   2.0000      -0.724897       -19.7254 
 205   2.0000      -0.723481       -19.6869 
 206   2.0000      -0.719771       -19.5860 
 207   2.0000      -0.717842       -19.5335 
 208   2.0000      -0.715807       -19.4781 
 209   2.0000      -0.712353       -19.3841 
 210   2.0000      -0.711277       -19.3548 
 211   2.0000      -0.702802       -19.1242 
 212   2.0000      -0.693434       -18.8693 
 213   2.0000      -0.692503       -18.8440 
 214   2.0000      -0.691800       -18.8248 
 215   2.0000      -0.691403       -18.8140 
 216   2.0000      -0.691125       -18.8065 
 217   2.0000      -0.684980       -18.6392 
 218   2.0000      -0.683579       -18.6011 
 219   2.0000      -0.681854       -18.5542 
 220   2.0000      -0.679939       -18.5021 
 221   2.0000      -0.676698       -18.4139 
 222   2.0000      -0.672087       -18.2884 
 223   2.0000      -0.665779       -18.1168 
 224   2.0000      -0.663687       -18.0598 
 225   2.0000      -0.662817       -18.0362 
 226   2.0000      -0.662710       -18.0332 
 227   2.0000      -0.661018       -17.9872 
 228   2.0000      -0.660700       -17.9786 
 229   2.0000      -0.659272       -17.9397 
 230   2.0000      -0.658879       -17.9290 
 231   2.0000      -0.656600       -17.8670 
 232   2.0000      -0.643709       -17.5162 
 233   2.0000      -0.636576       -17.3221 
 234   2.0000      -0.635979       -17.3059 
 235   2.0000      -0.632571       -17.2131 
 236   2.0000      -0.629096       -17.1186 
 237   2.0000      -0.626518       -17.0484 
 238   2.0000      -0.626071       -17.0363 
 239   2.0000      -0.624690       -16.9987 
 240   2.0000      -0.617155       -16.7936 
 241   2.0000      -0.610717       -16.6184 
 242   2.0000      -0.609607       -16.5883 
 243   2.0000      -0.605107       -16.4658 
 244   2.0000      -0.604603       -16.4521 
 245   2.0000      -0.603559       -16.4237 
 246   2.0000      -0.601226       -16.3602 
 247   2.0000      -0.599261       -16.3067 
 248   2.0000      -0.597817       -16.2674 
 249   2.0000      -0.596757       -16.2386 
 250   2.0000      -0.595820       -16.2131 
 251   2.0000      -0.594849       -16.1867 
 252   2.0000      -0.594567       -16.1790 
 253   2.0000      -0.593346       -16.1458 
 254   2.0000      -0.593158       -16.1406 
 255   2.0000      -0.591571       -16.0975 
 256   2.0000      -0.588796       -16.0219 
 257   2.0000      -0.587769       -15.9940 
 258   2.0000      -0.586847       -15.9689 
 259   2.0000      -0.586606       -15.9624 
 260   2.0000      -0.585190       -15.9238 
 261   2.0000      -0.583693       -15.8831 
 262   2.0000      -0.581062       -15.8115 
 263   2.0000      -0.577025       -15.7017 
 264   2.0000      -0.574854       -15.6426 
 265   2.0000      -0.574727       -15.6391 
 266   2.0000      -0.566085       -15.4040 
 267   2.0000      -0.566028       -15.4024 
 268   2.0000      -0.565437       -15.3863 
 269   2.0000      -0.562565       -15.3082 
 270   2.0000      -0.561300       -15.2738 
 271   2.0000      -0.560988       -15.2652 
 272   2.0000      -0.556224       -15.1356 
 273   2.0000      -0.552765       -15.0415 
 274   2.0000      -0.550912       -14.9911 
 275   2.0000      -0.548565       -14.9272 
 276   2.0000      -0.544092       -14.8055 
[...]

                       ****Iteration    9****
   Time for densities:     2.844
   Using LibInt in JK Direct
   Time for J+K (Direct):  2441.938
   Time for Sigma-Completion:    32.784
   Size of expansion space: 9
   Lowest Energy          :     0.106212454424
   Maximum Energy change  :     0.000001495867 (vector 2)
   Maximum residual norm  :     0.000000177218

      *** CONVERGENCE OF RESIDUAL NORM REACHED ***

Storing the converged CI vectors               ... BTA43.cis1

                 *** DAVIDSON DONE ***

Total time for solving the CIS problem: 31703.107sec

-----------------------------
CIS-EXCITED STATES (SINGLETS)
-----------------------------

the weight of the individual excitations are printed if larger than 1.0e-02

STATE  1:  E=   0.106212 au      2.890 eV    23310.9 cm**-1
   338a -> 347a  :     0.017245 (c=  0.13131851)
   343a -> 346a  :     0.172870 (c= -0.41577638)
   344a -> 345a  :     0.602019 (c= -0.77589859)
   344a -> 347a  :     0.074963 (c= -0.27379401)
   344a -> 349a  :     0.010956 (c=  0.10467310)

STATE  2:  E=   0.125458 au      3.414 eV    27534.7 cm**-1
   337a -> 347a  :     0.013150 (c=  0.11467279)
   338a -> 346a  :     0.029200 (c= -0.17087976)
   340a -> 346a  :     0.026759 (c= -0.16358129)
   341a -> 346a  :     0.017468 (c=  0.13216724)
   343a -> 345a  :     0.360992 (c= -0.60082587)
   343a -> 346a  :     0.014201 (c= -0.11916823)
   344a -> 346a  :     0.387329 (c= -0.62235766)
   344a -> 348a  :     0.020131 (c= -0.14188260)

STATE  3:  E=   0.155134 au      4.221 eV    34048.0 cm**-1
   327a -> 346a  :     0.020840 (c=  0.14436023)
   337a -> 346a  :     0.020153 (c=  0.14196100)
   338a -> 345a  :     0.105248 (c=  0.32441875)
   339a -> 346a  :     0.014592 (c=  0.12079579)
   340a -> 345a  :     0.069280 (c=  0.26321160)
   341a -> 345a  :     0.039676 (c= -0.19918959)
   342a -> 345a  :     0.016381 (c=  0.12798723)
   343a -> 346a  :     0.174132 (c=  0.41729149)
   344a -> 347a  :     0.245530 (c= -0.49550972)
   344a -> 349a  :     0.089405 (c=  0.29900739)


----------------------
CIS-EXCITATION SPECTRA
----------------------

Center of mass = (  0.8752, -6.2359,  2.0578)
Calculating the Dipole integrals                  ... done
Transforming integrals                            ... done
Calculating the Linear Momentum integrals         ... done
Transforming integrals                            ... done
Calculating angular momentum integrals            ... done
Transforming integrals                            ... done

-----------------------------------------------------------------------------
         ABSORPTION SPECTRUM VIA TRANSITION ELECTRIC DIPOLE MOMENTS
-----------------------------------------------------------------------------
State   Energy    Wavelength  fosc         T2        TX        TY        TZ  
        (cm-1)      (nm)                 (au**2)    (au)      (au)      (au) 
-----------------------------------------------------------------------------
   1   23310.9    429.0   2.553037477  36.05562  -4.67630   1.10835  -3.59992
   2   27534.7    363.2   1.000183720  11.95844  -2.16823  -2.34504   1.32589
   3   34048.0    293.7   0.479229908   4.63370   0.14448   1.16678   1.80317

-----------------------------------------------------------------------------
         ABSORPTION SPECTRUM VIA TRANSITION VELOCITY DIPOLE MOMENTS
-----------------------------------------------------------------------------
State   Energy    Wavelength   fosc        P2         PX        PY        PZ  
        (cm-1)      (nm)                 (au**2)     (au)      (au)      (au) 
-----------------------------------------------------------------------------
   1   23310.9    429.0   1.464589532   0.23334   0.37438  -0.07874   0.29491
   2   27534.7    363.2   0.550111709   0.10352   0.20513   0.21964  -0.11490
   3   34048.0    293.7   0.473858391   0.11027  -0.07519  -0.13244  -0.29508

-------------------------------------------------------------------
                             CD SPECTRUM
-------------------------------------------------------------------
State  Energy     Wavelength     R         MX        MY        MZ   
       (cm-1)       (nm)     (1e40*cgs)   (au)      (au)      (au)  
-------------------------------------------------------------------
   1   23310.9    429.0    -1453.71351  -0.31674   1.79576   1.82086
   2   27534.7    363.2    2814.29012  -0.93275  -1.06096   1.10041
   3   34048.0    293.7    -2369.52335   0.34140  -1.59989  -1.77943

Total run time:    31884.641 sec

           *** ORCA-CIS/TD-DFT FINISHED WITHOUT ERROR ***

-----------------------
CIS/TD-DFT TOTAL ENERGY
-----------------------

    E(SCF)  =  -5520.335174902 Eh
    DE(CIS) =      0.106212454 Eh (Root  1)
    ----------------------------- ---------
    E(tot)  =  -5520.228962447 Eh


-------------------------   --------------------
FINAL SINGLE POINT ENERGY     -5520.228962447325
-------------------------   --------------------

------------------------------------------------------------------------------
                         ORCA SCF GRADIENT CALCULATION
------------------------------------------------------------------------------


------------
CIS GRADIENT
------------

Reference wavefunction             ... RHF
State of interest                  ... 1
Basis dimension                    ... 1610
DFT-XC contribution needed         ... NO
RI-approximation                   ... OFF
CIS-vectors being read from        ... BTA43.cis

 => Number of Vectors found: 3
 => Orbital Window: 112...344 -> 345...1609

Reading the CIS file                     ... done
Norm of the CI vector                    ... 1.000000000
Making the CIS (pseudo)densities         ... done
Making operators G(D) and Q(T)           ... done
Transforming the Fock operators          ... done
Making the frozen-core relaxed density   ... done
Constructing the G(H) operator           ... done
Transforming the G(H) operator           ... done
Calculating the CIS Lagrangian           ... done
Solving the Z-vector equations           ... done
Finalizing the relaxed density           ... done
Storing the relaxed density              ... done
Constructing the G(Z) operator           ... done
Transforming the G(Z) operator           ... done
Making the W-matrix                      ... done
Finalizing the W-matrix                  ... done
Transforming the W-matrix                ... done
Nuclear repulsion gradient               ... done
One-Electron gradient                    ... done
Prescreening matrices                    ... done
Two-Electron gradient (4-center)         ... done
                 ---------------------------
                 EXCITED STATE GRADIENT DONE
                 ---------------------------


------------------
CARTESIAN GRADIENT
------------------

   1   C   :    0.011894743   -0.000409109    0.006099747
   2   C   :   -0.015481223    0.009701794   -0.005169729
   3   C   :    0.014693879   -0.006006977    0.002257222
   4   C   :   -0.010174916    0.003927837   -0.007333024
   5   C   :    0.011562635   -0.003633141    0.000842124
   6   C   :   -0.012018859    0.006502594   -0.003376011
   7   C   :   -0.002266492   -0.001877767    0.002313902
   8   C   :   -0.004046987    0.003948219   -0.008761051
   9   C   :    0.013466071   -0.005181184    0.005394712
  10   C   :    0.005804218   -0.001772106    0.009440383
  11   C   :   -0.003339588    0.002360499   -0.012735132
  12   S   :   -0.000059017   -0.000129844    0.002369618
  13   C   :   -0.000264877   -0.000836263   -0.000867080
  14   C   :   -0.001096876    0.007487467    0.008256911
  15   C   :   -0.004865512   -0.002117524   -0.006742397
  16   C   :   -0.001038076    0.002201176    0.001989415
  17   C   :   -0.002841439   -0.000175039   -0.002727078
  18   S   :    0.000047069   -0.003921141   -0.004098688
  19   C   :    0.009973973   -0.007496565    0.010366335
  20   C   :   -0.003139554    0.007341822    0.000958007
  21   C   :    0.001456116    0.001832739   -0.009656190
  22   C   :   -0.000511892   -0.010123845    0.003096376
  23   C   :    0.000550959    0.007982126    0.006418528
  24   C   :   -0.007791042   -0.004989737    0.004241632
  25   C   :    0.001050237   -0.001762250   -0.007434900
  26   C   :    0.001726602   -0.002455374    0.001160406
  27   C   :    0.003766864   -0.003839460   -0.002478871
  28   C   :   -0.011308112    0.010170310    0.023481397
  29   C   :   -0.022598841    0.021198850    0.013973267
  30   C   :   -0.005789975   -0.002354516    0.000000955
  31   C   :    0.006296511   -0.002873426    0.000889304
  32   C   :   -0.012853868    0.006809945    0.000866315
  33   C   :    0.000048740   -0.024319518   -0.007982643
  34   C   :    0.016670574   -0.023112727   -0.004868770
  35   N   :    0.028192956   -0.024068568    0.024874436
  36   N   :    0.014298276   -0.013051187   -0.017185297
  37   N   :   -0.015740020    0.011921340   -0.041240464
  38   N   :   -0.044509800   -0.000707316   -0.008817427
  39   N   :   -0.008389620    0.026277639    0.005757379
  40   N   :    0.040605083    0.017088503    0.014924279
  41   C   :   -0.002748093    0.004797841   -0.008372927
  42   C   :   -0.005074348    0.001184993    0.007983614
  43   C   :    0.016560292    0.009155474    0.001697003
  44   C   :   -0.003829337   -0.014992454   -0.002536732
  45   C   :    0.001050087   -0.004473566   -0.001435896
  46   C   :   -0.002010407    0.001959321    0.003439271
  47   C   :    0.026668327   -0.019443572    0.000372328
  48   N   :   -0.011201448   -0.007819403   -0.001193776
  49   C   :    0.003627558    0.007384389    0.000783287
  50   S   :    0.009716035    0.000669540    0.000533625
  51   C   :   -0.028671234    0.011721274   -0.000719399
  52   N   :    0.001889381   -0.005282316    0.012011590
  53   C   :    0.001554850    0.001348722   -0.006761474
  54   S   :   -0.005722255    0.005551601   -0.005291615
  55   C   :   -0.005915638    0.004660030   -0.005551444
  56   O   :    0.044805157   -0.015726848   -0.008737273
  57   C   :   -0.013419467   -0.000900182    0.017144474
  58   C   :    0.066306918   -0.034962026    0.007691777
  59   C   :   -0.009521343    0.032908138   -0.069069972
  60   C   :    0.001454778    0.004432337    0.003706963
  61   C   :   -0.001178417   -0.001724617    0.000157759
  62   C   :   -0.000479835    0.000768076    0.001612813
  63   C   :    0.003094647    0.004928348   -0.002693705
  64   C   :    0.001843435   -0.000168942   -0.003491223
  65   C   :   -0.002903729   -0.000391643    0.000105014
  66   C   :   -0.003730710    0.001538454   -0.000918297
  67   C   :    0.001620430   -0.001492315    0.001043515
  68   C   :    0.000785040   -0.002345666    0.002348633
  69   C   :    0.003063227   -0.003819875    0.002497298
  70   C   :   -0.000097895   -0.000004685   -0.004464470
  71   C   :   -0.002590620   -0.001708257   -0.001400678
  72   C   :    0.001309209    0.000949677   -0.000328104
  73   C   :    0.003469038    0.003520397   -0.000354788
  74   C   :    0.003669750    0.002875337    0.001509763
  75   C   :    0.001954987   -0.002611529   -0.000105164
  76   C   :    0.003281271   -0.002349736    0.000551851
  77   C   :   -0.002467201    0.000682357    0.000740947
  78   C   :   -0.003105135   -0.000768225    0.000532465
  79   C   :   -0.004729967   -0.000311120    0.000903134
  80   O   :   -0.032657054    0.037628138    0.001604946
  81   C   :    0.009038580    0.000276252    0.000635251
  82   C   :   -0.000871364   -0.023014535   -0.002921820
  83   C   :   -0.064790780    0.038916963    0.002197578
  84   C   :    0.063327904    0.043201207    0.008707839
  85   N   :   -0.062467875    0.033402054   -0.008606727
  86   N   :    0.010215864   -0.031087442    0.064218409
  87   N   :   -0.059761925   -0.039257664   -0.007960297
  88   N   :    0.061573304   -0.035253061   -0.001957269
  89   O   :   -0.011195639   -0.014482209    0.002455487
  90   O   :    0.016141173    0.004305094   -0.005921850
  91   O   :   -0.004845482    0.013620723   -0.011145044
  92   O   :   -0.009058240   -0.011694381    0.007750971
  93   C   :    0.001515285    0.001172902   -0.000458871
  94   C   :   -0.001044939   -0.001689853    0.000496951
  95   C   :   -0.000654419   -0.001231012    0.001419427
  96   C   :    0.001133077    0.001692677   -0.000314548
  97   H   :   -0.000399941    0.004003199    0.007246866
  98   H   :   -0.000110683   -0.003889552   -0.006609657
  99   H   :    0.005406889   -0.006091536   -0.002576009
 100   H   :   -0.005634418    0.005379732    0.003654179
 101   H   :   -0.006613199    0.005836009    0.001096349
 102   H   :   -0.002017555    0.001754419    0.009235775
 103   H   :    0.006504937   -0.005403495   -0.000356357
 104   H   :   -0.003777786   -0.008317122   -0.003938819
 105   H   :    0.006932645   -0.004205358   -0.002203116
 106   H   :   -0.005381452    0.006794246    0.000749240
 107   H   :   -0.008184552    0.000836393   -0.001846834
 108   H   :    0.004051229    0.005042045   -0.004070438
 109   H   :    0.002932132    0.002483491    0.007511610
 110   H   :    0.004036908    0.005123096   -0.004781956
 111   H   :   -0.004774564   -0.004065462   -0.005304334
 112   H   :    0.005106981   -0.004917532    0.004541640
 113   H   :    0.007908401   -0.002437756   -0.004324358
 114   H   :   -0.004742072   -0.006045681    0.003047347
 115   H   :    0.000302358    0.004640453    0.006869329
 116   H   :   -0.001682206    0.002937685    0.007349400
 117   H   :   -0.004306580   -0.005722029    0.003631944
 118   H   :    0.002134523   -0.001815072   -0.007587104
 119   H   :    0.004986287    0.007432289   -0.003602615
 120   H   :   -0.009559043    0.001252165    0.000513089
 121   H   :   -0.002355826    0.006073110   -0.004555213
 122   H   :    0.008362738   -0.001997341   -0.000050157
 123   H   :    0.001890000   -0.006524496    0.005475887
 124   H   :   -0.002384044   -0.002870795   -0.007434319
 125   H   :   -0.004907789   -0.006064554    0.001726586
 126   H   :    0.002864445    0.003548835    0.006211535
 127   H   :    0.004881908    0.006591999   -0.002688280
 128   H   :    0.005821670   -0.007363530   -0.000233397
 129   H   :    0.006970335    0.002899095   -0.002647901
 130   H   :   -0.005842873    0.005771822    0.000914560
 131   H   :   -0.006798510   -0.003353739    0.003243457
 132   H   :   -0.003621106    0.008321728    0.001644103
 133   H   :   -0.001652136   -0.006308774    0.005227109
 134   H   :   -0.002105937   -0.004077173   -0.006926157
 135   H   :   -0.003505947   -0.003917420    0.006330028
 136   H   :   -0.001329943    0.009150522    0.001374772
 137   H   :    0.009403268   -0.000101968    0.001219336
 138   H   :    0.003912330    0.007275082   -0.002773829
 139   H   :   -0.005224480    0.001832229    0.007992007
 140   H   :   -0.007580163   -0.001095024   -0.004570372
 141   H   :    0.003790603    0.005286418   -0.004619354
 142   H   :    0.003368456   -0.008397822   -0.002244579
 143   H   :    0.004283305    0.000205077    0.008166562
 144   H   :   -0.003807078   -0.007054226   -0.002172863
 145   H   :    0.008881461   -0.000382259   -0.003215544
 146   H   :   -0.002337653    0.006165120   -0.006277669

Difference to translation invariance:
           :    0.0000000000   -0.0000000005    0.0000000001

Norm of the cartesian gradient     ...    0.2743969468
RMS gradient                       ...    0.0131111933
MAX gradient                       ...    0.0690699722

-------
TIMINGS
-------

Total CIS gradient time            ...    38357.722 sec

Fock matrix formation       ....    2761.948 sec  (  7.2%)
  Coulomb formation         ....    2761.948 sec  (100.0% of F)
Z-vector equation           ....   32174.002 sec  ( 83.9%)
One electron gradient       ....      29.045 sec  (  0.1%)
Prescreening matrices       ....       1.632 sec  (  0.0%)
Two electron gradient       ....    3384.599 sec  (  8.8%)

                            ***************************************
                            *     ORCA property calculations      *
                            ***************************************

                                    ---------------------
                                    Active property flags
                                    ---------------------
   (+) Dipole Moment


------------------------------------------------------------------------------
                       ORCA ELECTRIC PROPERTIES CALCULATION
------------------------------------------------------------------------------

Dipole Moment Calculation                       ... on
Quadrupole Moment Calculation                   ... off
Polarizability Calculation                      ... off
GBWName                                         ... BTA43.gbw
Electron density file                           ... BTA43.scfp
The origin for moment calculation is the CENTER OF MASS  = ( 0.875192, -6.235860  2.057773)

-------------
DIPOLE MOMENT
-------------
                                X             Y             Z
Electronic contribution:    -25.17559     -35.15710      22.03332
Nuclear contribution   :     28.22967      39.36495     -24.80078
                        -----------------------------------------
Total Dipole Moment    :      3.05408       4.20785      -2.76747
                        -----------------------------------------
Magnitude (a.u.)       :      5.89001
Magnitude (Debye)      :     14.97123



--------------------
Rotational spectrum 
--------------------
 
Rotational constants in cm-1:     0.000566     0.000203     0.000193 
Rotational constants in MHz :    16.977999     6.095941     5.785925 

 Dipole components along the rotational axes: 
x,y,z [a.u.] :     0.372890    -5.821443    -0.814881 
x,y,z [Debye]:     0.947810   -14.796932    -2.071262 

 

                        *** CIS RELAXED DENSITY ***

------------------------------------------------------------------------------
                       ORCA ELECTRIC PROPERTIES CALCULATION
------------------------------------------------------------------------------

Dipole Moment Calculation                       ... on
Quadrupole Moment Calculation                   ... off
Polarizability Calculation                      ... off
GBWName                                         ... BTA43.gbw
Electron density file                           ... BTA43.cisp
The origin for moment calculation is the CENTER OF MASS  = ( 0.875192, -6.235860  2.057773)

-------------
DIPOLE MOMENT
-------------
                                X             Y             Z
Electronic contribution:    -25.27522     -34.49016      21.34001
Nuclear contribution   :     28.22967      39.36495     -24.80078
                        -----------------------------------------
Total Dipole Moment    :      2.95445       4.87479      -3.46077
                        -----------------------------------------
Magnitude (a.u.)       :      6.66853
Magnitude (Debye)      :     16.95006



--------------------
Rotational spectrum 
--------------------
 
Rotational constants in cm-1:     0.000566     0.000203     0.000193 
Rotational constants in MHz :    16.977999     6.095941     5.785925 

 Dipole components along the rotational axes: 
x,y,z [a.u.] :    -0.188340    -6.601571    -0.923631 
x,y,z [Debye]:    -0.478722   -16.779861    -2.347684 

 

Timings for individual modules:

Sum of individual times         ...    80992.251 sec (=1349.871 min)
GTO integral calculation        ...        3.974 sec (=   0.066 min)   0.0 %
SCF iterations                  ...    10744.438 sec (= 179.074 min)  13.3 %
CIS module                      ...    31885.798 sec (= 531.430 min)  39.4 %
SCF Gradient evaluation         ...    38358.040 sec (= 639.301 min)  47.4 %
                             ****ORCA TERMINATED NORMALLY****
TOTAL RUN TIME: 0 days 22 hours 29 minutes 53 seconds 487 msec
