
                                 *****************
                                 * O   R   C   A *
                                 *****************

           --- An Ab Initio, DFT and Semiempirical electronic structure package ---

                  #######################################################
                  #                        -***-                        #
                  #          Department of theory and spectroscopy      #
                  #               Directorship: Frank Neese             #
                  #        Max Planck Institute fuer Kohlenforschung    #
                  #                Kaiser Wilhelm Platz 1               #
                  #                 D-45470 Muelheim/Ruhr               #
                  #                      Germany                        #
                  #                                                     #
                  #                  All rights reserved                #
                  #                        -***-                        #
                  #######################################################


                         Program Version 4.2.0 -  RELEASE  -


 With contributions from (in alphabetic order):
   Daniel Aravena         : Magnetic Suceptibility
   Michael Atanasov       : Ab Initio Ligand Field Theory (pilot matlab implementation)
   Alexander A. Auer      : GIAO ZORA, VPT2
   Ute Becker             : Parallelization
   Giovanni Bistoni       : ED, misc. LED, open-shell LED, HFLED
   Martin Brehm           : Molecular dynamics
   Dmytro Bykov           : SCF Hessian
   Vijay G. Chilkuri      : MRCI spin determinant printing, contributions to CSF-ICE
   Dipayan Datta          : RHF DLPNO-CCSD density
   Achintya Kumar Dutta   : EOM-CC, STEOM-CC
   Dmitry Ganyushin       : Spin-Orbit,Spin-Spin,Magnetic field MRCI
   Miquel Garcia          : C-PCM Hessian, Gaussian charge scheme
   Yang Guo               : DLPNO-NEVPT2, CIM, IAO-localization
   Andreas Hansen         : Spin unrestricted coupled pair/coupled cluster methods
   Benjamin Helmich-Paris : CASSCF linear response (MC-RPA)
   Lee Huntington         : MR-EOM, pCC
   Robert Izsak           : Overlap fitted RIJCOSX, COSX-SCS-MP3, EOM
   Christian Kollmar      : KDIIS, OOCD, Brueckner-CCSD(T), CCSD density
   Simone Kossmann        : Meta GGA functionals, TD-DFT gradient, OOMP2, MP2 Hessian
   Martin Krupicka        : AUTO-CI
   Lucas Lang             : DCDCAS
   Dagmar Lenk            : GEPOL surface, SMD
   Dimitrios Liakos       : Extrapolation schemes; Compound Job, initial MDCI parallelization
   Dimitrios Manganas     : Further ROCIS development; embedding schemes
   Dimitrios Pantazis     : SARC Basis sets
   Taras Petrenko         : DFT Hessian,TD-DFT gradient, ASA, ECA, R-Raman, ABS, FL, XAS/XES, NRVS
   Peter Pinski           : DLPNO-MP2, DLPNO-MP2 Gradient
   Christoph Reimann      : Effective Core Potentials
   Marius Retegan         : Local ZFS, SOC
   Christoph Riplinger    : Optimizer, TS searches, QM/MM, DLPNO-CCSD(T), (RO)-DLPNO pert. Triples
   Tobias Risthaus        : Range-separated hybrids, TD-DFT gradient, RPA, STAB
   Michael Roemelt        : Original ROCIS implementation
   Masaaki Saitow         : Open-shell DLPNO-CCSD energy and density
   Barbara Sandhoefer     : DKH picture change effects
   Avijit Sen             : IP-ROCIS
   Kantharuban Sivalingam : CASSCF convergence, NEVPT2, FIC-MRCI
   Bernardo de Souza      : ESD, SOC TD-DFT
   Georgi Stoychev        : AutoAux, RI-MP2 NMR
   Willem Van den Heuvel  : Paramagnetic NMR
   Boris Wezisla          : Elementary symmetry handling
   Frank Wennmohs         : Technical directorship


 We gratefully acknowledge several colleagues who have allowed us to
 interface, adapt or use parts of their codes:
   Stefan Grimme, W. Hujo, H. Kruse,             : VdW corrections, initial TS optimization,
                  C. Bannwarth                     DFT functionals, gCP, sTDA/sTD-DF
   Ed Valeev, F. Pavosevic, A. Kumar             : LibInt (2-el integral package), F12 methods
   Garnet Chan, S. Sharma, J. Yang, R. Olivares  : DMRG
   Ulf Ekstrom                                   : XCFun DFT Library
   Mihaly Kallay                                 : mrcc  (arbitrary order and MRCC methods)
   Andreas Klamt, Michael Diedenhofen            : otool_cosmo (COSMO solvation model)
   Jiri Pittner, Ondrej Demel                    : Mk-CCSD
   Frank Weinhold                                : gennbo (NPA and NBO analysis)
   Christopher J. Cramer and Donald G. Truhlar   : smd solvation model
   Lars Goerigk                                  : TD-DFT with DH, B97 family of functionals
   V. Asgeirsson, H. Jonsson                     : NEB implementation
   FAccTs GmbH                                   : IRC, NEB, NEB-TS, Multilevel, MM, QM/MM, CI optimization
   S Lehtola, MJT Oliveira, MAL Marques          : LibXC Library


 Your calculation uses the libint2 library for the computation of 2-el integrals
 For citations please refer to: http://libint.valeyev.net

 Your ORCA version has been built with support for libXC version: 4.2.3
 For citations please refer to: https://tddft.org/programs/libxc/

 This ORCA versions uses:
   CBLAS   interface :  Fast vector & matrix operations
   LAPACKE interface :  Fast linear algebra routines
   SCALAPACK package :  Parallel linear algebra routines


----- Orbital basis set information -----
Your calculation utilizes the basis: def2-SVP
   F. Weigend and R. Ahlrichs, Phys. Chem. Chem. Phys. 7, 3297 (2005).

================================================================================
                                        WARNINGS
                       Please study these warnings very carefully!
================================================================================

INFO   : Checking CIS options ...

WARNING: CIS/ROCIS methods need fully converged wavefunctions
  ===> : Setting SCFConvForced true
         You can overwrite this default with %scf ConvForced false 


INFO   : the flag for use of LIBINT has been found!

================================================================================
                                       INPUT FILE
================================================================================
NAME = BTA43.inp
|  1> # ORCA input file
|  2> # BTA43.out
|  3> ! Engrad Keepdens
|  4> %maxcore 1000
|  5> %tddft
|  6>   nroots 3 
|  7>   # nroots is the number of states to be computed
|  8>   Iroot 1
|  9>   end
| 10> * xyz 0 1
| 11>    C        2.47572        -2.54814        -0.30011
| 12>    C        2.52481        -1.93324         0.97389
| 13>    C        1.55159        -1.02846         1.39092
| 14>    C        0.48211        -0.82808         0.55102
| 15>    C        0.36304        -1.55660        -0.65670
| 16>    C        1.38233        -2.38657        -1.11736
| 17>    C        3.69758        -3.42581        -0.52279
| 18>    C        4.30522        -3.41667         0.85815
| 19>    C        3.64118        -2.50055         1.66066
| 20>    C        5.31485        -4.09985         1.52586
| 21>    C        5.39496        -3.73766         2.85968
| 22>    S        4.24251        -2.47565         3.26473
| 23>    C       -0.73842         0.05145         0.77358
| 24>    C       -1.64814        -0.44895        -0.32097
| 25>    C       -0.95543        -1.31783        -1.15134
| 26>    C       -2.98166        -0.29294        -0.68055
| 27>    C       -3.32445        -1.08198        -1.76522
| 28>    S       -1.94461        -1.97298        -2.38738
| 29>    C        6.17998        -4.36147         3.87364
| 30>    C       -4.63443        -1.31296        -2.27929
| 31>    C       -1.27035        -0.13752         2.17731
| 32>    C       -0.45758         1.51723         0.47724
| 33>    C        3.28024        -4.79080        -1.02430
| 34>    C        4.71299        -2.77815        -1.45290
| 35>    C        6.01901        -4.08104         5.22987
| 36>    C        6.65752        -4.79003         6.23743
| 37>    C        7.54004        -5.83851         5.98129
| 38>    C        7.79224        -6.08895         4.60950
| 39>    C        7.11774        -5.37952         3.57311
| 40>    C       -4.91060        -2.30560        -3.21855
| 41>    C       -6.19673        -2.65235        -3.60751
| 42>    C       -7.33386        -2.01897        -3.10820
| 43>    C       -7.08107        -0.94476        -2.21932
| 44>    C       -5.76247        -0.60492        -1.79721
| 45>    N        8.59561        -6.98586         4.02327
| 46>    N        8.40463        -6.80483         2.74538
| 47>    N        7.54783        -5.88161         2.40531
| 48>    N       -7.92777        -0.11855        -1.59163
| 49>    N       -7.15713         0.64449        -0.86624
| 50>    N       -5.87454         0.41489        -0.93218
| 51>    C        8.14913        -6.67946         6.95507
| 52>    C        7.85479        -6.82038         8.27033
| 53>    C       -8.68339        -2.38618        -3.37418
| 54>    C       -9.16669        -3.52252        -3.93215
| 55>    C       -7.69773         1.67962        -0.03992
| 56>    C        9.10301        -7.58356         1.76947
| 57>    C      -10.60199        -3.76835        -4.04366
| 58>    N      -10.84261        -5.04812        -4.53504
| 59>    C       -9.74646        -5.79592        -4.81961
| 60>    S       -8.26718        -4.91249        -4.51067
| 61>    C        8.53499        -7.80873         9.10305
| 62>    N        7.97858        -7.84054        10.37845
| 63>    C        6.95842        -6.97562        10.60810
| 64>    S        6.61687        -5.99515         9.19882
| 65>    C        8.48581        -8.77312        11.35536
| 66>    O        9.44735        -8.52821         8.76586
| 67>    C        6.23255        -6.81741        11.76104
| 68>    C        5.19767        -5.86039        11.80256
| 69>    C        6.40776        -7.53915        12.95421
| 70>    C        3.00550        -5.83272        -0.14609
| 71>    C        2.58701        -7.05805        -0.61790
| 72>    C        2.41754        -7.27349        -1.98622
| 73>    C        2.67617        -6.22996        -2.86781
| 74>    C        3.10197        -5.00558        -2.38305
| 75>    C        4.59102        -1.46566        -1.89187
| 76>    C        5.55742        -0.90246        -2.69824
| 77>    C        6.67968        -1.63567        -3.08284
| 78>    C        6.80965        -2.94760        -2.63972
| 79>    C        5.83381        -3.50280        -1.83174
| 80>    C       -2.22512        -1.10564         2.46628
| 81>    C       -2.66604        -1.29468         3.75819
| 82>    C       -2.15275        -0.52725         4.80462
| 83>    C       -1.18733         0.43281         4.52303
| 84>    C       -0.75670         0.61825         3.22088
| 85>    C        0.73196         1.94659        -0.09799
| 86>    C        0.92922         3.27953        -0.39070
| 87>    C       -0.06338         4.22179        -0.12262
| 88>    C       -1.25895         3.79541         0.44591
| 89>    C       -1.44590         2.45589         0.73605
| 90>    O      -11.48871        -3.00049        -3.74731
| 91>    C      -12.20078        -5.50786        -4.69436
| 92>    C       -9.70527        -7.08260        -5.29280
| 93>    C       -8.45683        -7.69744        -5.52125
| 94>    C      -10.81621        -7.89422        -5.57969
| 95>    N        4.35342        -5.08449        11.84055
| 96>    N        6.49795        -8.09537        13.95494
| 97>    N      -11.68088        -8.60689        -5.83137
| 98>    N       -7.44362        -8.20322        -5.70540
| 99>    O       -2.65646        -0.79218         6.04063
|100>    O        0.23391         5.50932        -0.45044
|101>    O        7.57222        -0.98461        -3.87850
|102>    O        2.00478        -8.51903        -2.34665
|103>    C       -2.15389        -0.07291         7.14071
|104>    C       -0.73059         6.50479        -0.21218
|105>    C        8.72980        -1.66827        -4.29160
|106>    C        1.78796        -8.78796        -3.71072
|107>    H        1.62354        -0.53822         2.34946
|108>    H        1.29312        -2.90502        -2.05947
|109>    H        5.94767        -4.85977         1.10723
|110>    H       -3.70509         0.31891        -0.17510
|111>    H        5.33350        -3.29444         5.50989
|112>    H        6.45222        -4.50890         7.25870
|113>    H       -4.08094        -2.85710        -3.63636
|114>    H       -6.30781        -3.44809        -4.32771
|115>    H        8.91912        -7.34545         6.58225
|116>    H       -9.43615        -1.68738        -3.02720
|117>    H       -8.77918         1.66537        -0.15134
|118>    H       -7.30018         2.64686        -0.34898
|119>    H       -7.42417         1.50385         1.00095
|120>    H        9.70323        -6.93119         1.13439
|121>    H        8.38935        -8.12184         1.14498
|122>    H        9.74354        -8.28527         2.29811
|123>    H        9.29301        -9.32332        10.87062
|124>    H        7.70596        -9.46727        11.67023
|125>    H        8.87202        -8.24780        12.22927
|126>    H        3.12190        -5.68626         0.91739
|127>    H        2.37844        -7.87198         0.05822
|128>    H        2.55122        -6.35489        -3.93186
|129>    H        3.30781        -4.20752        -3.08193
|130>    H        3.73298        -0.87595        -1.60666
|131>    H        5.46584         0.11436        -3.04567
|132>    H        7.66404        -3.54626        -2.91367
|133>    H        5.94455        -4.52367        -1.49720
|134>    H       -2.62999        -1.71705         1.67367
|135>    H       -3.41087        -2.04018         3.98750
|136>    H       -0.76219         1.04225         5.30484
|137>    H       -0.01228         1.37462         3.01726
|138>    H        1.51543         1.23702        -0.31715
|139>    H        1.85230         3.61924        -0.83290
|140>    H       -2.05148         4.49322         0.66583
|141>    H       -2.37723         2.13795         1.18090
|142>    H      -12.84619        -4.68620        -4.38195
|143>    H      -12.39033        -6.38138        -4.06966
|144>    H      -12.40514        -5.76058        -5.73514
|145>    H       -2.68304        -0.45768         8.01092
|146>    H       -2.35039         0.99998         7.04398
|147>    H       -1.07934        -0.23606         7.27078
|148>    H       -0.28099         7.43733        -0.54950
|149>    H       -0.97197         6.58524         0.85281
|150>    H       -1.64821         6.32038        -0.78039
|151>    H        9.28641        -0.96135        -4.90480
|152>    H        8.48407        -2.55072        -4.89146
|153>    H        9.34604        -1.96868        -3.43784
|154>    H        1.45547        -9.82362        -3.75763
|155>    H        2.70809        -8.67744        -4.29402
|156>    H        1.01119        -8.14048        -4.12973
|157> *
|158> 
|159>                          ****END OF INPUT****
================================================================================

                     *******************************
                     * Energy+Gradient Calculation *
                     *******************************

---------------------------------
CARTESIAN COORDINATES (ANGSTROEM)
---------------------------------
  C      2.475720   -2.548140   -0.300110
  C      2.524810   -1.933240    0.973890
  C      1.551590   -1.028460    1.390920
  C      0.482110   -0.828080    0.551020
  C      0.363040   -1.556600   -0.656700
  C      1.382330   -2.386570   -1.117360
  C      3.697580   -3.425810   -0.522790
  C      4.305220   -3.416670    0.858150
  C      3.641180   -2.500550    1.660660
  C      5.314850   -4.099850    1.525860
  C      5.394960   -3.737660    2.859680
  S      4.242510   -2.475650    3.264730
  C     -0.738420    0.051450    0.773580
  C     -1.648140   -0.448950   -0.320970
  C     -0.955430   -1.317830   -1.151340
  C     -2.981660   -0.292940   -0.680550
  C     -3.324450   -1.081980   -1.765220
  S     -1.944610   -1.972980   -2.387380
  C      6.179980   -4.361470    3.873640
  C     -4.634430   -1.312960   -2.279290
  C     -1.270350   -0.137520    2.177310
  C     -0.457580    1.517230    0.477240
  C      3.280240   -4.790800   -1.024300
  C      4.712990   -2.778150   -1.452900
  C      6.019010   -4.081040    5.229870
  C      6.657520   -4.790030    6.237430
  C      7.540040   -5.838510    5.981290
  C      7.792240   -6.088950    4.609500
  C      7.117740   -5.379520    3.573110
  C     -4.910600   -2.305600   -3.218550
  C     -6.196730   -2.652350   -3.607510
  C     -7.333860   -2.018970   -3.108200
  C     -7.081070   -0.944760   -2.219320
  C     -5.762470   -0.604920   -1.797210
  N      8.595610   -6.985860    4.023270
  N      8.404630   -6.804830    2.745380
  N      7.547830   -5.881610    2.405310
  N     -7.927770   -0.118550   -1.591630
  N     -7.157130    0.644490   -0.866240
  N     -5.874540    0.414890   -0.932180
  C      8.149130   -6.679460    6.955070
  C      7.854790   -6.820380    8.270330
  C     -8.683390   -2.386180   -3.374180
  C     -9.166690   -3.522520   -3.932150
  C     -7.697730    1.679620   -0.039920
  C      9.103010   -7.583560    1.769470
  C    -10.601990   -3.768350   -4.043660
  N    -10.842610   -5.048120   -4.535040
  C     -9.746460   -5.795920   -4.819610
  S     -8.267180   -4.912490   -4.510670
  C      8.534990   -7.808730    9.103050
  N      7.978580   -7.840540   10.378450
  C      6.958420   -6.975620   10.608100
  S      6.616870   -5.995150    9.198820
  C      8.485810   -8.773120   11.355360
  O      9.447350   -8.528210    8.765860
  C      6.232550   -6.817410   11.761040
  C      5.197670   -5.860390   11.802560
  C      6.407760   -7.539150   12.954210
  C      3.005500   -5.832720   -0.146090
  C      2.587010   -7.058050   -0.617900
  C      2.417540   -7.273490   -1.986220
  C      2.676170   -6.229960   -2.867810
  C      3.101970   -5.005580   -2.383050
  C      4.591020   -1.465660   -1.891870
  C      5.557420   -0.902460   -2.698240
  C      6.679680   -1.635670   -3.082840
  C      6.809650   -2.947600   -2.639720
  C      5.833810   -3.502800   -1.831740
  C     -2.225120   -1.105640    2.466280
  C     -2.666040   -1.294680    3.758190
  C     -2.152750   -0.527250    4.804620
  C     -1.187330    0.432810    4.523030
  C     -0.756700    0.618250    3.220880
  C      0.731960    1.946590   -0.097990
  C      0.929220    3.279530   -0.390700
  C     -0.063380    4.221790   -0.122620
  C     -1.258950    3.795410    0.445910
  C     -1.445900    2.455890    0.736050
  O    -11.488710   -3.000490   -3.747310
  C    -12.200780   -5.507860   -4.694360
  C     -9.705270   -7.082600   -5.292800
  C     -8.456830   -7.697440   -5.521250
  C    -10.816210   -7.894220   -5.579690
  N      4.353420   -5.084490   11.840550
  N      6.497950   -8.095370   13.954940
  N    -11.680880   -8.606890   -5.831370
  N     -7.443620   -8.203220   -5.705400
  O     -2.656460   -0.792180    6.040630
  O      0.233910    5.509320   -0.450440
  O      7.572220   -0.984610   -3.878500
  O      2.004780   -8.519030   -2.346650
  C     -2.153890   -0.072910    7.140710
  C     -0.730590    6.504790   -0.212180
  C      8.729800   -1.668270   -4.291600
  C      1.787960   -8.787960   -3.710720
  H      1.623540   -0.538220    2.349460
  H      1.293120   -2.905020   -2.059470
  H      5.947670   -4.859770    1.107230
  H     -3.705090    0.318910   -0.175100
  H      5.333500   -3.294440    5.509890
  H      6.452220   -4.508900    7.258700
  H     -4.080940   -2.857100   -3.636360
  H     -6.307810   -3.448090   -4.327710
  H      8.919120   -7.345450    6.582250
  H     -9.436150   -1.687380   -3.027200
  H     -8.779180    1.665370   -0.151340
  H     -7.300180    2.646860   -0.348980
  H     -7.424170    1.503850    1.000950
  H      9.703230   -6.931190    1.134390
  H      8.389350   -8.121840    1.144980
  H      9.743540   -8.285270    2.298110
  H      9.293010   -9.323320   10.870620
  H      7.705960   -9.467270   11.670230
  H      8.872020   -8.247800   12.229270
  H      3.121900   -5.686260    0.917390
  H      2.378440   -7.871980    0.058220
  H      2.551220   -6.354890   -3.931860
  H      3.307810   -4.207520   -3.081930
  H      3.732980   -0.875950   -1.606660
  H      5.465840    0.114360   -3.045670
  H      7.664040   -3.546260   -2.913670
  H      5.944550   -4.523670   -1.497200
  H     -2.629990   -1.717050    1.673670
  H     -3.410870   -2.040180    3.987500
  H     -0.762190    1.042250    5.304840
  H     -0.012280    1.374620    3.017260
  H      1.515430    1.237020   -0.317150
  H      1.852300    3.619240   -0.832900
  H     -2.051480    4.493220    0.665830
  H     -2.377230    2.137950    1.180900
  H    -12.846190   -4.686200   -4.381950
  H    -12.390330   -6.381380   -4.069660
  H    -12.405140   -5.760580   -5.735140
  H     -2.683040   -0.457680    8.010920
  H     -2.350390    0.999980    7.043980
  H     -1.079340   -0.236060    7.270780
  H     -0.280990    7.437330   -0.549500
  H     -0.971970    6.585240    0.852810
  H     -1.648210    6.320380   -0.780390
  H      9.286410   -0.961350   -4.904800
  H      8.484070   -2.550720   -4.891460
  H      9.346040   -1.968680   -3.437840
  H      1.455470   -9.823620   -3.757630
  H      2.708090   -8.677440   -4.294020
  H      1.011190   -8.140480   -4.129730

----------------------------
CARTESIAN COORDINATES (A.U.)
----------------------------
  NO LB      ZA    FRAG     MASS         X           Y           Z
   0 C     6.0000    0    12.011    4.678433   -4.815287   -0.567126
   1 C     6.0000    0    12.011    4.771199   -3.653294    1.840385
   2 C     6.0000    0    12.011    2.932080   -1.943508    2.628458
   3 C     6.0000    0    12.011    0.911056   -1.564844    1.041277
   4 C     6.0000    0    12.011    0.686046   -2.941548   -1.240983
   5 C     6.0000    0    12.011    2.612225   -4.509964   -2.111504
   6 C     6.0000    0    12.011    6.987414   -6.473843   -0.987930
   7 C     6.0000    0    12.011    8.135687   -6.456571    1.621668
   8 C     6.0000    0    12.011    6.880833   -4.725355    3.138193
   9 C     6.0000    0    12.011   10.043611   -7.747594    2.883458
  10 C     6.0000    0    12.011   10.194997   -7.063154    5.404012
  11 S    16.0000    0    32.060    8.017182   -4.678301    6.169446
  12 C     6.0000    0    12.011   -1.395412    0.097226    1.461854
  13 C     6.0000    0    12.011   -3.114533   -0.848393   -0.606545
  14 C     6.0000    0    12.011   -1.805501   -2.490338   -2.175717
  15 C     6.0000    0    12.011   -5.634521   -0.553576   -1.286053
  16 C     6.0000    0    12.011   -6.282300   -2.044646   -3.335782
  17 S    16.0000    0    32.060   -3.674780   -3.728392   -4.511494
  18 C     6.0000    0    12.011   11.678470   -8.241984    7.320119
  19 C     6.0000    0    12.011   -8.757803   -2.481135   -4.307234
  20 C     6.0000    0    12.011   -2.400614   -0.259875    4.114520
  21 C     6.0000    0    12.011   -0.864701    2.867149    0.901853
  22 C     6.0000    0    12.011    6.198755   -9.053300   -1.935646
  23 C     6.0000    0    12.011    8.906260   -5.249943   -2.745583
  24 C     6.0000    0    12.011   11.374280   -7.712048    9.883022
  25 C     6.0000    0    12.011   12.580890   -9.051845   11.787034
  26 C     6.0000    0    12.011   14.248611  -11.033185   11.303000
  27 C     6.0000    0    12.011   14.725200  -11.506448    8.710693
  28 C     6.0000    0    12.011   13.450579  -10.165820    6.752199
  29 C     6.0000    0    12.011   -9.279689   -4.356953   -6.082178
  30 C     6.0000    0    12.011  -11.710123   -5.012215   -6.817206
  31 C     6.0000    0    12.011  -13.858987   -3.815300   -5.873647
  32 C     6.0000    0    12.011  -13.381283   -1.785338   -4.193907
  33 C     6.0000    0    12.011  -10.889490   -1.143133   -3.396235
  34 N     7.0000    0    14.007   16.243349  -13.201362    7.602878
  35 N     7.0000    0    14.007   15.882449  -12.859265    5.188016
  36 N     7.0000    0    14.007   14.263332  -11.114632    4.545377
  37 N     7.0000    0    14.007  -14.981314   -0.224027   -3.007745
  38 N     7.0000    0    14.007  -13.525016    1.217910   -1.636956
  39 N     7.0000    0    14.007  -11.101272    0.784028   -1.761565
  40 C     6.0000    0    12.011   15.399624  -12.622350   13.143178
  41 C     6.0000    0    12.011   14.843402  -12.888650   15.628659
  42 C     6.0000    0    12.011  -16.409229   -4.509227   -6.376276
  43 C     6.0000    0    12.011  -17.322534   -6.656598   -7.430687
  44 C     6.0000    0    12.011  -14.546602    3.174022   -0.075438
  45 C     6.0000    0    12.011   17.202196  -14.330852    3.343814
  46 C     6.0000    0    12.011  -20.034858   -7.121149   -7.641410
  47 N     7.0000    0    14.007  -20.489563   -9.539564   -8.569984
  48 C     6.0000    0    12.011  -18.418140  -10.952701   -9.107743
  49 S    16.0000    0    32.060  -15.622706   -9.283261   -8.523931
  50 C     6.0000    0    12.011   16.128794  -14.756361   17.202271
  51 N     7.0000    0    14.007   15.077331  -14.816473   19.612428
  52 C     6.0000    0    12.011   13.149508  -13.182011   20.046404
  53 S    16.0000    0    32.060   12.504072  -11.329192   17.383251
  54 C     6.0000    0    12.011   16.035857  -16.578794   21.458521
  55 O     8.0000    0    15.999   17.852904  -16.115981   16.565075
  56 C     6.0000    0    12.011   11.777813  -12.883038   22.225145
  57 C     6.0000    0    12.011    9.822173  -11.074532   22.303606
  58 C     6.0000    0    12.011   12.108912  -14.246929   24.479909
  59 C     6.0000    0    12.011    5.679572  -11.022243   -0.276070
  60 C     6.0000    0    12.011    4.888740  -13.337782   -1.167662
  61 C     6.0000    0    12.011    4.568489  -13.744904   -3.753412
  62 C     6.0000    0    12.011    5.057228  -11.772918   -5.419376
  63 C     6.0000    0    12.011    5.861874   -9.459175   -4.503312
  64 C     6.0000    0    12.011    8.675770   -2.769696   -3.575116
  65 C     6.0000    0    12.011   10.502002   -1.705402   -5.098935
  66 C     6.0000    0    12.011   12.622766   -3.090968   -5.825723
  67 C     6.0000    0    12.011   12.868374   -5.570157   -4.988348
  68 C     6.0000    0    12.011   11.024303   -6.619333   -3.461487
  69 C     6.0000    0    12.011   -4.204867   -2.089357    4.660594
  70 C     6.0000    0    12.011   -5.038085   -2.446591    7.101950
  71 C     6.0000    0    12.011   -4.068108   -0.996358    9.079416
  72 C     6.0000    0    12.011   -2.243729    0.817892    8.547288
  73 C     6.0000    0    12.011   -1.429956    1.168323    6.086581
  74 C     6.0000    0    12.011    1.383204    3.678522   -0.185174
  75 C     6.0000    0    12.011    1.755971    6.197414   -0.738316
  76 C     6.0000    0    12.011   -0.119771    7.978027   -0.231718
  77 C     6.0000    0    12.011   -2.379071    7.172285    0.842648
  78 C     6.0000    0    12.011   -2.732355    4.640960    1.390933
  79 O     8.0000    0    15.999  -21.710516   -5.670104   -7.081390
  80 C     6.0000    0    12.011  -23.056133  -10.408347   -8.871055
  81 C     6.0000    0    12.011  -18.340302  -13.384174  -10.001942
  82 C     6.0000    0    12.011  -15.981093  -14.546054  -10.433650
  83 C     6.0000    0    12.011  -20.439675  -14.917914  -10.544086
  84 N     7.0000    0    14.007    8.226772   -9.608294   22.375397
  85 N     7.0000    0    14.007   12.279346  -15.298032   26.371015
  86 N     7.0000    0    14.007  -22.073664  -16.264665  -11.019692
  87 N     7.0000    0    14.007  -14.066403  -15.501839  -10.781643
  88 O     8.0000    0    15.999   -5.019982   -1.497003   11.415136
  89 O     8.0000    0    15.999    0.442026   10.411106   -0.851208
  90 O     8.0000    0    15.999   14.309422   -1.860643   -7.329303
  91 O     8.0000    0    15.999    3.788485  -16.098634   -4.434526
  92 C     6.0000    0    12.011   -4.070262   -0.137780   13.493986
  93 C     6.0000    0    12.011   -1.380615   12.292272   -0.400962
  94 C     6.0000    0    12.011   16.496931   -3.152573   -8.109949
  95 C     6.0000    0    12.011    3.378755  -16.606838   -7.012245
  96 H     1.0000    0     1.008    3.068046   -1.017088    4.439836
  97 H     1.0000    0     1.008    2.443643   -5.489692   -3.891834
  98 H     1.0000    0     1.008   11.239467   -9.183634    2.092361
  99 H     1.0000    0     1.008   -7.001605    0.602653   -0.330891
 100 H     1.0000    0     1.008   10.078854   -6.225589   10.412183
 101 H     1.0000    0     1.008   12.192929   -8.520586   13.716955
 102 H     1.0000    0     1.008   -7.711859   -5.399137   -6.871725
 103 H     1.0000    0     1.008  -11.920033   -6.515946   -8.178187
 104 H     1.0000    0     1.008   16.854694  -13.880889   12.438650
 105 H     1.0000    0     1.008  -17.831739   -3.188686   -5.720579
 106 H     1.0000    0     1.008  -16.590246    3.147093   -0.285991
 107 H     1.0000    0     1.008  -13.795341    5.001841   -0.659477
 108 H     1.0000    0     1.008  -14.029648    2.841865    1.891521
 109 H     1.0000    0     1.008   18.336447  -13.098051    2.143686
 110 H     1.0000    0     1.008   15.853574  -15.348053    2.163699
 111 H     1.0000    0     1.008   18.412622  -15.656891    4.342799
 112 H     1.0000    0     1.008   17.561244  -17.618521   20.542495
 113 H     1.0000    0     1.008   14.562154  -17.890548   22.053539
 114 H     1.0000    0     1.008   16.765688  -15.586083   23.109971
 115 H     1.0000    0     1.008    5.899536  -10.745474    1.733616
 116 H     1.0000    0     1.008    4.494600  -14.875886    0.110020
 117 H     1.0000    0     1.008    4.821107  -12.009002   -7.430139
 118 H     1.0000    0     1.008    6.250855   -7.951061   -5.824004
 119 H     1.0000    0     1.008    7.054310   -1.655306   -3.036147
 120 H     1.0000    0     1.008   10.328941    0.216109   -5.755482
 121 H     1.0000    0     1.008   14.482937   -6.701460   -5.506038
 122 H     1.0000    0     1.008   11.233571   -8.548497   -2.829298
 123 H     1.0000    0     1.008   -4.969961   -3.244754    3.162778
 124 H     1.0000    0     1.008   -6.445610   -3.855381    7.535283
 125 H     1.0000    0     1.008   -1.440330    1.969567   10.024695
 126 H     1.0000    0     1.008   -0.023206    2.597655    5.701795
 127 H     1.0000    0     1.008    2.863748    2.337629   -0.599327
 128 H     1.0000    0     1.008    3.500340    6.839372   -1.573953
 129 H     1.0000    0     1.008   -3.876735    8.490955    1.258236
 130 H     1.0000    0     1.008   -4.492314    4.040140    2.231578
 131 H     1.0000    0     1.008  -24.275781   -8.855635   -8.280685
 132 H     1.0000    0     1.008  -23.414330  -12.059061   -7.690543
 133 H     1.0000    0     1.008  -23.442317  -10.885919  -10.837844
 134 H     1.0000    0     1.008   -5.070211   -0.864890   15.138445
 135 H     1.0000    0     1.008   -4.441593    1.889688   13.311193
 136 H     1.0000    0     1.008   -2.039657   -0.446089   13.739783
 137 H     1.0000    0     1.008   -0.530994   14.054517   -1.038405
 138 H     1.0000    0     1.008   -1.836757   12.444300    1.611577
 139 H     1.0000    0     1.008   -3.114666   11.943787   -1.474723
 140 H     1.0000    0     1.008   17.548772   -1.816688   -9.268729
 141 H     1.0000    0     1.008   16.032569   -4.820162   -9.243520
 142 H     1.0000    0     1.008   17.661456   -3.720266   -6.496576
 143 H     1.0000    0     1.008    2.750440  -18.563951   -7.100892
 144 H     1.0000    0     1.008    5.117548  -16.397985   -8.114522
 145 H     1.0000    0     1.008    1.910872  -15.383278   -7.804059

--------------------------------
INTERNAL COORDINATES (ANGSTROEM)
--------------------------------
 C      0   0   0     0.000000000000     0.00000000     0.00000000
 C      1   0   0     1.415481486315     0.00000000     0.00000000
 C      2   1   0     1.392730425352   121.83549567     0.00000000
 C      3   2   1     1.374544151637   117.09308740     4.64723132
 C      4   3   2     1.415452808715   120.78266594     2.42622206
 C      1   2   3     1.374592346661   120.77308144   352.71120936
 C      1   2   3     1.520800075914   110.77057427   176.82082751
 C      7   1   2     1.508742918061   100.72312698     9.38348240
 C      8   7   1     1.387172403164   109.92091906   351.60359240
 C      8   7   1     1.389936794750   136.82498213   169.59822752
 C     10   8   7     1.384440320346   112.10266455   184.11019201
 S      9   8   7     1.713259566966   112.53408903   177.95035560
 C      4   3   2     1.520789089716   128.26730011   177.45808790
 C     13   4   3     1.508651828919   100.71621793   193.85996870
 C     14  13   4     1.387196429998   109.93353920   351.69602081
 C     14  13   4     1.389932547608   136.80194331   169.58002300
 C     16  14  13     1.384412552168   112.10318250   184.23793540
 S     15  14  13     1.713328187038   112.52270227   177.86684185
 C     11  10   8     1.426011990868   127.04616372   170.70417087
 C     17  16  14     1.426067083170   127.02741776   170.62674200
 C     13   4   3     1.512982848118   110.22493411   315.52386671
 C     13   4   3     1.521577966980   112.36448918    80.50106075
 C      7   1   2     1.512905369083   110.34028881   131.12336239
 C      7   1   2     1.521717961976   112.33280111   256.12879776
 C     19  11  10     1.394242496376   122.69157387   191.72043183
 C     25  19  11     1.387637918839   123.39513757   172.01055048
 C     26  25  19     1.394187778027   122.82746804     1.10759910
 C     27  26  25     1.417086037508   115.05002426     2.98321555
 C     19  11  10     1.416381975669   121.87249696     7.33075447
 C     20  17  16     1.394207081498   122.69243264   191.91664092
 C     30  20  17     1.387680013908   123.38938006   171.88357090
 C     31  30  20     1.394110948741   122.82407025     1.17367632
 C     32  31  30     1.417017135606   115.06021545     2.99108508
 C     20  17  16     1.416402488560   121.86523290     7.46159517
 N     28  27  26     1.339222355660   130.45627496   178.40986445
 N     35  28  27     1.304702293016   104.35970809   177.92294298
 N     36  35  28     1.304641335119   116.71950262   359.62235860
 N     33  32  31     1.339223129355   130.45903255   178.44104618
 N     38  33  32     1.304724761511   104.35633994   177.81505538
 N     39  38  33     1.304646063766   116.72096363   359.61931524
 C     27  26  25     1.423529072060   126.11682635   185.33634595
 C     41  27  26     1.355139605207   129.22934616    12.72926224
 C     32  31  30     1.423664203877   126.09271456   185.38455918
 C     43  32  31     1.355056458787   129.14773263    13.45911438
 C     39  38  33     1.430575834865   121.40623553   179.68332220
 C     36  35  28     1.430578682002   121.41085604   179.63524568
 C     44  43  32     1.460463268624   121.54130588   175.62596415
 N     47  44  43     1.391820226071   110.58711831   185.49320069
 C     48  47  44     1.357103440199   116.17135907   359.44236123
 S     49  48  47     1.750474737578   111.56008781   358.91641230
 C     42  41  27     1.460455531983   121.50759128   175.73230126
 N     51  42  41     1.391850970542   110.59455214   185.24528238
 C     52  51  42     1.357038007758   116.16943576   359.42106021
 S     53  52  51     1.750442213214   111.55780959   359.01996250
 C     52  51  42     1.442685300889   119.65093809   178.63532004
 O     51  42  41     1.209855088885   126.49534350     4.49130955
 C     53  52  51     1.371564181728   127.85194702   179.12224506
 C     57  53  52     1.410172969958   119.43368901   180.28308301
 C     57  53  52     1.405440080758   126.04565362   359.87253619
 C     23   7   1     1.390083507599   121.42305609   269.99652238
 C     60  23   7     1.378104555213   120.67518321   178.00133159
 C     61  60  23     1.395504961260   120.65296397   359.34596422
 C     62  61  60     1.390339982127   118.89905177   359.90921650
 C     63  62  61     1.383981315625   119.94294335     0.39170865
 C     24   7   1     1.389316861591   122.45364275     7.76535802
 C     65  24   7     1.378896579479   120.60388497   177.79231611
 C     66  65  24     1.394625961217   120.69795928   359.62637215
 C     67  66  65     1.390829917783   118.89796116     0.00000000
 C     68  67  66     1.383236214824   119.91964966     0.00000000
 C     21  13   4     1.390088395822   121.42155625   270.09675113
 C     70  21  13     1.378106678055   120.67467437   177.80747383
 C     71  70  21     1.395503913968   120.65310797   359.33576837
 C     72  71  70     1.390339493829   118.89928746     0.00000000
 C     73  72  71     1.383988732974   119.94286096     0.32414656
 C     22  13   4     1.389332564255   122.43709691     7.89425045
 C     75  22  13     1.378883495913   120.60523266   177.85337492
 C     76  75  22     1.394623803755   120.69722510   359.62912699
 C     77  76  75     1.390832085552   118.89853809     0.00000000
 C     78  77  76     1.383273419285   119.91953384     0.04319632
 O     47  44  43     1.209836625541   126.49575498     4.70994289
 C     48  47  44     1.442695213446   119.65348484   178.59626724
 C     49  48  47     1.371550514782   127.84518389   178.99934899
 C     82  49  48     1.410255317912   119.43747292   180.37736244
 C     82  49  48     1.405425408942   126.04657171   359.93109040
 N     58  57  53     1.147267236785   179.72493385   158.28041337
 N     59  57  53     1.148466567820   176.61774882   182.97914469
 N     84  82  49     1.148431782998   176.61437296   181.08106317
 N     83  82  49     1.147309520138   179.68394237   146.19695391
 O     72  71  70     1.360746996726   115.96973259   179.92000914
 O     77  76  75     1.361462741833   115.92845114   180.01239557
 O     67  66  65     1.361463040556   115.93152563   180.04371254
 O     62  61  60     1.360753649306   115.96755296   179.83312877
 C     89  72  71     1.407160951775   118.57988526   178.47228106
 C     90  77  76     1.406409825940   118.60913052   179.59206886
 C     91  67  66     1.406425988810   118.60586841   179.53230206
 C     92  62  61     1.407132268907   118.58395711   178.62558979
 H      3   2   1     1.079032433108   120.96781221   182.44721835
 H      6   1   2     1.079036643817   121.89618933   184.63307952
 H     10   8   7     1.073867140618   126.05791361     1.25774344
 H     16  14  13     1.073867352097   126.05141474     1.38812333
 H     25  19  11     1.080312325441   118.15426348   354.33060183
 H     26  25  19     1.078969220970   117.81313427   181.21485379
 H     30  20  17     1.080302347355   118.15712355   354.24761525
 H     31  30  20     1.078994417965   117.82573836   181.18986083
 H     41  27  26     1.084168821079   115.56522427   188.69952308
 H     43  32  31     1.084142139205   115.60294248   189.24679277
 H     45  39  38     1.087267943701   107.89010191     0.34695771
 H     45  39  38     1.090466553224   109.89729397   240.17466441
 H     45  39  38     1.090477199853   109.87128352   120.50584112
 H     46  36  35     1.090494049365   109.89756271   240.47528672
 H     46  36  35     1.090432810447   109.87031172   120.80901600
 H     46  36  35     1.087260711421   107.89244150     0.63407541
 H     55  52  51     1.090534157007   106.58181323     0.64883893
 H     55  52  51     1.090483086480   110.82820760   241.37650695
 H     55  52  51     1.090338458737   110.84431270   119.97642960
 H     60  23   7     1.079809798992   119.95005377   357.85372137
 H     61  60  23     1.078481221070   121.00614815   179.60596731
 H     63  62  61     1.078620605171   121.13360193   180.37935743
 H     64  63  62     1.080603129553   119.04104192   179.42140833
 H     65  24   7     1.079506956809   120.15700625   357.55179162
 H     66  65  24     1.078432850807   120.92995844   179.71968385
 H     68  67  66     1.078621652944   121.10712652   180.13940215
 H     69  68  67     1.079979590594   119.20996306   179.77865120
 H     70  21  13     1.079802073113   119.95264253   357.68543577
 H     71  70  21     1.078482756005   121.00472004   179.63050501
 H     73  72  71     1.078604658482   121.13483678   180.33551050
 H     74  73  72     1.080609928559   119.04015919   179.45072158
 H     75  22  13     1.079511894978   120.15340061   357.60124341
 H     76  75  22     1.078434240230   120.93064104   179.70695089
 H     78  77  76     1.078613648810   121.10606342   180.15308210
 H     79  78  77     1.079978210428   119.21106611   179.76592658
 H     81  48  47     1.090540797861   106.58383973     0.71038956
 H     81  48  47     1.090512027857   110.83212636   241.43344593
 H     81  48  47     1.090345549081   110.83748869   120.03525803
 H     93  89  72     1.088720863904   105.70197411   180.87755327
 H     93  89  72     1.095016846902   111.57207295    62.23256001
 H     93  89  72     1.094620404478   111.55000939   299.49626063
 H     94  90  77     1.088832307566   105.69704773   180.17161690
 H     94  90  77     1.094961281051   111.58969298    61.53786341
 H     94  90  77     1.094941147551   111.56798640   298.80145485
 H     95  91  67     1.088836451677   105.69812535   180.21521151
 H     95  91  67     1.094958106505   111.58968663    61.57966091
 H     95  91  67     1.094944767237   111.56561054   298.84566647
 H     96  92  62     1.088734028034   105.70159743   180.74897921
 H     96  92  62     1.095030948101   111.56846259    62.10557293
 H     96  92  62     1.094610142197   111.55373627   299.37002868

---------------------------
INTERNAL COORDINATES (A.U.)
---------------------------
 C      0   0   0     0.000000000000     0.00000000     0.00000000
 C      1   0   0     2.674872356771     0.00000000     0.00000000
 C      2   1   0     2.631879082294   121.83549567     0.00000000
 C      3   2   1     2.597512005577   117.09308740     4.64723132
 C      4   3   2     2.674818163962   120.78266594     2.42622206
 C      1   2   3     2.597603080974   120.77308144   352.71120936
 C      1   2   3     2.873895647924   110.77057427   176.82082751
 C      7   1   2     2.851110921629   100.72312698     9.38348240
 C      8   7   1     2.621375942514   109.92091906   351.60359240
 C      8   7   1     2.626599885538   136.82498213   169.59822752
 C     10   8   7     2.616213054212   112.10266455   184.11019201
 S      9   8   7     3.237591377886   112.53408903   177.95035560
 C      4   3   2     2.873874887019   128.26730011   177.45808790
 C     13   4   3     2.850938788096   100.71621793   193.85996870
 C     14  13   4     2.621421346650   109.93353920   351.69602081
 C     14  13   4     2.626591859603   136.80194331   169.58002300
 C     16  14  13     2.616160579960   112.10318250   184.23793540
 S     15  14  13     3.237721051030   112.52270227   177.86684185
 C     11  10   8     2.694772126429   127.04616372   170.70417087
 C     17  16  14     2.694876235791   127.02741776   170.62674200
 C     13   4   3     2.859123228264   110.22493411   315.52386671
 C     13   4   3     2.875365649002   112.36448918    80.50106075
 C      7   1   2     2.858976814106   110.34028881   131.12336239
 C      7   1   2     2.875630201203   112.33280111   256.12879776
 C     19  11  10     2.634736482425   122.69157387   191.72043183
 C     25  19  11     2.622255639650   123.39513757   172.01055048
 C     26  25  19     2.634633079731   122.82746804     1.10759910
 C     27  26  25     2.677904519094   115.05002426     2.98321555
 C     19  11  10     2.676574035037   121.87249696     7.33075447
 C     20  17  16     2.634669558005   122.69243264   191.91664092
 C     30  20  17     2.622335187802   123.38938006   171.88357090
 C     31  30  20     2.634487893422   122.82407025     1.17367632
 C     32  31  30     2.677774313368   115.06021545     2.99108508
 C     20  17  16     2.676612798784   121.86523290     7.46159517
 N     28  27  26     2.530763484623   130.45627496   178.40986445
 N     35  28  27     2.465530020098   104.35970809   177.92294298
 N     36  35  28     2.465414826367   116.71950262   359.62235860
 N     33  32  31     2.530764946694   130.45903255   178.44104618
 N     38  33  32     2.465572479402   104.35633994   177.81505538
 N     39  38  33     2.465423762216   116.72096363   359.61931524
 C     27  26  25     2.690080089868   126.11682635   185.33634595
 C     41  27  26     2.560842727071   129.22934616    12.72926224
 C     32  31  30     2.690335451994   126.09271456   185.38455918
 C     43  32  31     2.560685603108   129.14773263    13.45911438
 C     39  38  33     2.703396541701   121.40623553   179.68332220
 C     36  35  28     2.703401922011   121.41085604   179.63524568
 C     44  43  32     2.759875606351   121.54130588   175.62596415
 N     47  44  43     2.630159054926   110.58711831   185.49320069
 C     48  47  44     2.564553837379   116.17135907   359.44236123
 S     49  48  47     3.307917858371   111.56008781   358.91641230
 C     42  41  27     2.759860986218   121.50759128   175.73230126
 N     51  42  41     2.630217153558   110.59455214   185.24528238
 C     52  51  42     2.564430187985   116.16943576   359.42106021
 S     53  52  51     3.307856396229   111.55780959   359.01996250
 C     52  51  42     2.726280116113   119.65093809   178.63532004
 O     51  42  41     2.286294779723   126.49534350     4.49130955
 C     53  52  51     2.591880678562   127.85194702   179.12224506
 C     57  53  52     2.664840714679   119.43368901   180.28308301
 C     57  53  52     2.655896850268   126.04565362   359.87253619
 C     23   7   1     2.626877132644   121.42305609   269.99652238
 C     60  23   7     2.604240193263   120.67518321   178.00133159
 C     61  60  23     2.637122195309   120.65296397   359.34596422
 C     62  61  60     2.627361799260   118.89905177   359.90921650
 C     63  62  61     2.615345660996   119.94294335     0.39170865
 C     24   7   1     2.625428381645   122.45364275     7.76535802
 C     65  24   7     2.605736902217   120.60388497   177.79231611
 C     66  65  24     2.635461125957   120.69795928   359.62637215
 C     67  66  65     2.628287643474   118.89796116     0.00000000
 C     68  67  66     2.613937624539   119.91964966     0.00000000
 C     21  13   4     2.626886370046   121.42155625   270.09675113
 C     70  21  13     2.604244204852   120.67467437   177.80747383
 C     71  70  21     2.637120216215   120.65310797   359.33576837
 C     72  71  70     2.627360876511   118.89928746     0.00000000
 C     73  72  71     2.615359677754   119.94286096     0.32414656
 C     22  13   4     2.625458055381   122.43709691     7.89425045
 C     75  22  13     2.605712177859   120.60523266   177.85337492
 C     76  75  22     2.635457048944   120.69722510   359.62912699
 C     77  76  75     2.628291739963   118.89853809     0.00000000
 C     78  77  76     2.614007930781   119.91953384     0.04319632
 O     47  44  43     2.286259889060   126.49575498     4.70994289
 C     48  47  44     2.726298848132   119.65348484   178.59626724
 C     49  48  47     2.591854851778   127.84518389   178.99934899
 C     82  49  48     2.664996329760   119.43747292   180.37736244
 C     82  49  48     2.655869124555   126.04657171   359.93109040
 N     58  57  53     2.168020879944   179.72493385   158.28041337
 N     59  57  53     2.170287287144   176.61774882   182.97914469
 N     84  82  49     2.170221553357   176.61437296   181.08106317
 N     83  82  49     2.168100783902   179.68394237   146.19695391
 O     72  71  70     2.571439161369   115.96973259   179.92000914
 O     77  76  75     2.572791723602   115.92845114   180.01239557
 O     67  66  65     2.572792288107   115.93152563   180.04371254
 O     62  61  60     2.571451732923   115.96755296   179.83312877
 C     89  72  71     2.659148825203   118.57988526   178.47228106
 C     90  77  76     2.657729403082   118.60913052   179.59206886
 C     91  67  66     2.657759946480   118.60586841   179.53230206
 C     92  62  61     2.659094622438   118.58395711   178.62558979
 H      3   2   1     2.039075788194   120.96781221   182.44721835
 H      6   1   2     2.039083745280   121.89618933   184.63307952
 H     10   8   7     2.029314799986   126.05791361     1.25774344
 H     16  14  13     2.029315199623   126.05141474     1.38812333
 H     25  19  11     2.041494434183   118.15426348   354.33060183
 H     26  25  19     2.038956334563   117.81313427   181.21485379
 H     30  20  17     2.041475578333   118.15712355   354.24761525
 H     31  30  20     2.039003949984   117.82573836   181.18986083
 H     41  27  26     2.048782154776   115.56522427   188.69952308
 H     43  32  31     2.048731733341   115.60294248   189.24679277
 H     45  39  38     2.054638647787   107.89010191     0.34695771
 H     45  39  38     2.060683143794   109.89729397   240.17466441
 H     45  39  38     2.060703263008   109.87128352   120.50584112
 H     46  36  35     2.060735103970   109.89756271   240.47528672
 H     46  36  35     2.060619379187   109.87031172   120.80901600
 H     46  36  35     2.054624980758   107.89244150     0.63407541
 H     55  52  51     2.060810896431   106.58181323     0.64883893
 H     55  52  51     2.060714387121   110.82820760   241.37650695
 H     55  52  51     2.060441080294   110.84431270   119.97642960
 H     60  23   7     2.040544796820   119.95005377   357.85372137
 H     61  60  23     2.038034148399   121.00614815   179.60596731
 H     63  62  61     2.038297546178   121.13360193   180.37935743
 H     64  63  62     2.042043974314   119.04104192   179.42140833
 H     65  24   7     2.039972508033   120.15700625   357.55179162
 H     66  65  24     2.037942741849   120.92995844   179.71968385
 H     68  67  66     2.038299526182   121.10712652   180.13940215
 H     69  68  67     2.040865656447   119.20996306   179.77865120
 H     70  21  13     2.040530197025   119.95264253   357.68543577
 H     71  70  21     2.038037049006   121.00472004   179.63050501
 H     73  72  71     2.038267411303   121.13483678   180.33551050
 H     74  73  72     2.042056822572   119.04015919   179.45072158
 H     75  22  13     2.039981839820   120.15340061   357.60124341
 H     76  75  22     2.037945367478   120.93064104   179.70695089
 H     78  77  76     2.038284400561   121.10606342   180.15308210
 H     79  78  77     2.040863048312   119.21106611   179.76592658
 H     81  48  47     2.060823445826   106.58383973     0.71038956
 H     81  48  47     2.060769078396   110.83212636   241.43344593
 H     81  48  47     2.060454479102   110.83748869   120.03525803
 H     93  89  72     2.057384269065   105.70197411   180.87755327
 H     93  89  72     2.069281952675   111.57207295    62.23256001
 H     93  89  72     2.068532785066   111.55000939   299.49626063
 H     94  90  77     2.057594867066   105.69704773   180.17161690
 H     94  90  77     2.069176948433   111.58969298    61.53786341
 H     94  90  77     2.069138901633   111.56798640   298.80145485
 H     95  91  67     2.057602698300   105.69812535   180.21521151
 H     95  91  67     2.069170949411   111.58968663    61.57966091
 H     95  91  67     2.069145741848   111.56561054   298.84566647
 H     96  92  62     2.057409145666   105.70159743   180.74897921
 H     96  92  62     2.069308600080   111.56846259    62.10557293
 H     96  92  62     2.068513392164   111.55373627   299.37002868

---------------------
BASIS SET INFORMATION
---------------------
There are 5 groups of distinct atoms

 Group   1 Type C   : 7s4p1d contracted to 3s2p1d pattern {511/31/1}
 Group   2 Type S   : 10s7p1d contracted to 4s3p1d pattern {5311/511/1}
 Group   3 Type N   : 7s4p1d contracted to 3s2p1d pattern {511/31/1}
 Group   4 Type O   : 7s4p1d contracted to 3s2p1d pattern {511/31/1}
 Group   5 Type H   : 4s1p contracted to 2s1p pattern {31/1}

Atom   0C    basis set group =>   1
Atom   1C    basis set group =>   1
Atom   2C    basis set group =>   1
Atom   3C    basis set group =>   1
Atom   4C    basis set group =>   1
Atom   5C    basis set group =>   1
Atom   6C    basis set group =>   1
Atom   7C    basis set group =>   1
Atom   8C    basis set group =>   1
Atom   9C    basis set group =>   1
Atom  10C    basis set group =>   1
Atom  11S    basis set group =>   2
Atom  12C    basis set group =>   1
Atom  13C    basis set group =>   1
Atom  14C    basis set group =>   1
Atom  15C    basis set group =>   1
Atom  16C    basis set group =>   1
Atom  17S    basis set group =>   2
Atom  18C    basis set group =>   1
Atom  19C    basis set group =>   1
Atom  20C    basis set group =>   1
Atom  21C    basis set group =>   1
Atom  22C    basis set group =>   1
Atom  23C    basis set group =>   1
Atom  24C    basis set group =>   1
Atom  25C    basis set group =>   1
Atom  26C    basis set group =>   1
Atom  27C    basis set group =>   1
Atom  28C    basis set group =>   1
Atom  29C    basis set group =>   1
Atom  30C    basis set group =>   1
Atom  31C    basis set group =>   1
Atom  32C    basis set group =>   1
Atom  33C    basis set group =>   1
Atom  34N    basis set group =>   3
Atom  35N    basis set group =>   3
Atom  36N    basis set group =>   3
Atom  37N    basis set group =>   3
Atom  38N    basis set group =>   3
Atom  39N    basis set group =>   3
Atom  40C    basis set group =>   1
Atom  41C    basis set group =>   1
Atom  42C    basis set group =>   1
Atom  43C    basis set group =>   1
Atom  44C    basis set group =>   1
Atom  45C    basis set group =>   1
Atom  46C    basis set group =>   1
Atom  47N    basis set group =>   3
Atom  48C    basis set group =>   1
Atom  49S    basis set group =>   2
Atom  50C    basis set group =>   1
Atom  51N    basis set group =>   3
Atom  52C    basis set group =>   1
Atom  53S    basis set group =>   2
Atom  54C    basis set group =>   1
Atom  55O    basis set group =>   4
Atom  56C    basis set group =>   1
Atom  57C    basis set group =>   1
Atom  58C    basis set group =>   1
Atom  59C    basis set group =>   1
Atom  60C    basis set group =>   1
Atom  61C    basis set group =>   1
Atom  62C    basis set group =>   1
Atom  63C    basis set group =>   1
Atom  64C    basis set group =>   1
Atom  65C    basis set group =>   1
Atom  66C    basis set group =>   1
Atom  67C    basis set group =>   1
Atom  68C    basis set group =>   1
Atom  69C    basis set group =>   1
Atom  70C    basis set group =>   1
Atom  71C    basis set group =>   1
Atom  72C    basis set group =>   1
Atom  73C    basis set group =>   1
Atom  74C    basis set group =>   1
Atom  75C    basis set group =>   1
Atom  76C    basis set group =>   1
Atom  77C    basis set group =>   1
Atom  78C    basis set group =>   1
Atom  79O    basis set group =>   4
Atom  80C    basis set group =>   1
Atom  81C    basis set group =>   1
Atom  82C    basis set group =>   1
Atom  83C    basis set group =>   1
Atom  84N    basis set group =>   3
Atom  85N    basis set group =>   3
Atom  86N    basis set group =>   3
Atom  87N    basis set group =>   3
Atom  88O    basis set group =>   4
Atom  89O    basis set group =>   4
Atom  90O    basis set group =>   4
Atom  91O    basis set group =>   4
Atom  92C    basis set group =>   1
Atom  93C    basis set group =>   1
Atom  94C    basis set group =>   1
Atom  95C    basis set group =>   1
Atom  96H    basis set group =>   5
Atom  97H    basis set group =>   5
Atom  98H    basis set group =>   5
Atom  99H    basis set group =>   5
Atom 100H    basis set group =>   5
Atom 101H    basis set group =>   5
Atom 102H    basis set group =>   5
Atom 103H    basis set group =>   5
Atom 104H    basis set group =>   5
Atom 105H    basis set group =>   5
Atom 106H    basis set group =>   5
Atom 107H    basis set group =>   5
Atom 108H    basis set group =>   5
Atom 109H    basis set group =>   5
Atom 110H    basis set group =>   5
Atom 111H    basis set group =>   5
Atom 112H    basis set group =>   5
Atom 113H    basis set group =>   5
Atom 114H    basis set group =>   5
Atom 115H    basis set group =>   5
Atom 116H    basis set group =>   5
Atom 117H    basis set group =>   5
Atom 118H    basis set group =>   5
Atom 119H    basis set group =>   5
Atom 120H    basis set group =>   5
Atom 121H    basis set group =>   5
Atom 122H    basis set group =>   5
Atom 123H    basis set group =>   5
Atom 124H    basis set group =>   5
Atom 125H    basis set group =>   5
Atom 126H    basis set group =>   5
Atom 127H    basis set group =>   5
Atom 128H    basis set group =>   5
Atom 129H    basis set group =>   5
Atom 130H    basis set group =>   5
Atom 131H    basis set group =>   5
Atom 132H    basis set group =>   5
Atom 133H    basis set group =>   5
Atom 134H    basis set group =>   5
Atom 135H    basis set group =>   5
Atom 136H    basis set group =>   5
Atom 137H    basis set group =>   5
Atom 138H    basis set group =>   5
Atom 139H    basis set group =>   5
Atom 140H    basis set group =>   5
Atom 141H    basis set group =>   5
Atom 142H    basis set group =>   5
Atom 143H    basis set group =>   5
Atom 144H    basis set group =>   5
Atom 145H    basis set group =>   5
------------------------------------------------------------------------------
                           ORCA GTO INTEGRAL CALCULATION
------------------------------------------------------------------------------

                         BASIS SET STATISTICS AND STARTUP INFO

 # of primitive gaussian shells          ... 1426
 # of primitive gaussian functions       ... 2702
 # of contracted shells                  ...  734
 # of contracted basis functions         ... 1610
 Highest angular momentum                ...    2
 Maximum contraction depth               ...    5
 Integral package used                   ... LIBINT
 Integral threshhold            Thresh   ...  2.500e-11
 Primitive cut-off              TCut     ...  2.500e-12


------------------------------ INTEGRAL EVALUATION ----------------------------


 * One electron integrals 
 Pre-screening matrix                    ... done
 Shell pair data                         ... done (   0.028 sec)

-------------------------------------------------------------------------------
                                 ORCA SCF
-------------------------------------------------------------------------------

------------
SCF SETTINGS
------------
Hamiltonian:
 Ab initio Hamiltonian  Method          .... Hartree-Fock(GTOs)


General Settings:
 Integral files         IntName         .... BTA43
 Hartree-Fock type      HFTyp           .... RHF
 Total Charge           Charge          ....    0
 Multiplicity           Mult            ....    1
 Number of Electrons    NEL             ....  690
 Basis Dimension        Dim             .... 1610
 Nuclear Repulsion      ENuc            ....  16772.9481145621 Eh

Convergence Acceleration:
 DIIS                   CNVDIIS         .... on
   Start iteration      DIISMaxIt       ....    12
   Startup error        DIISStart       ....  0.200000
   # of expansion vecs  DIISMaxEq       ....     5
   Bias factor          DIISBfac        ....   1.050
   Max. coefficient     DIISMaxC        ....  10.000
 Newton-Raphson         CNVNR           .... off
 SOSCF                  CNVSOSCF        .... on
   Start iteration      SOSCFMaxIt      ....   150
   Startup grad/error   SOSCFStart      ....  0.003300
 Level Shifting         CNVShift        .... on
   Level shift para.    LevelShift      ....    0.2500
   Turn off err/grad.   ShiftErr        ....    0.0010
 Zerner damping         CNVZerner       .... off
 Static damping         CNVDamp         .... on
   Fraction old density DampFac         ....    0.7000
   Max. Damping (<1)    DampMax         ....    0.9800
   Min. Damping (>=0)   DampMin         ....    0.0000
   Turn off err/grad.   DampErr         ....    0.1000
 Fernandez-Rico         CNVRico         .... off

SCF Procedure:
 Maximum # iterations   MaxIter         ....   125
 SCF integral mode      SCFMode         .... Direct
   Integral package                     .... LIBINT
 Reset frequency        DirectResetFreq ....    20
 Integral Threshold     Thresh          ....  2.500e-11 Eh
 Primitive CutOff       TCut            ....  2.500e-12 Eh

Convergence Tolerance:
 Convergence Check Mode ConvCheckMode   .... Total+1el-Energy
 Convergence forced     ConvForced      .... 1
 Energy Change          TolE            ....  1.000e-08 Eh
 1-El. energy change                    ....  1.000e-05 Eh
 Orbital Gradient       TolG            ....  1.000e-05
 Orbital Rotation angle TolX            ....  1.000e-05
 DIIS Error             TolErr          ....  5.000e-07


Diagonalization of the overlap matrix:
Smallest eigenvalue                        ... 1.636e-04
Time for diagonalization                   ...    1.060 sec
Threshold for overlap eigenvalues          ... 1.000e-08
Number of eigenvalues below threshold      ... 0
Time for construction of square roots      ...    0.334 sec
Total time needed                          ...    1.402 sec

-------------------
DFT GRID GENERATION
-------------------

General Integration Accuracy     IntAcc      ...  4.340
Radial Grid Type                 RadialGrid  ... Gauss-Chebyshev
Angular Grid (max. acc.)         AngularGrid ... Lebedev-110
Angular grid pruning method      GridPruning ... 3 (G Style)
Weight generation scheme         WeightScheme... Becke
Basis function cutoff            BFCut       ...    1.0000e-11
Integration weight cutoff        WCut        ...    1.0000e-14
Grids for H and He will be reduced by one unit

# of grid points (after initial pruning)     ... 200188 (   0.4 sec)
# of grid points (after weights+screening)   ... 174126 (   9.9 sec)
nearest neighbour list constructed           ...    0.0 sec
Grid point re-assignment to atoms done       ...    0.0 sec
Grid point division into batches done        ...    0.2 sec
Reduced shell lists constructed in    3.7 sec

Total number of grid points                  ...   174126
Total number of batches                      ...     2790
Average number of points per batch           ...       62
Average number of grid points per atom       ...     1193
Average number of shells per batch           ...   115.36 (15.72%)
Average number of basis functions per batch  ...   235.19 (14.61%)
Average number of large shells per batch     ...    66.37 (57.54%)
Average number of large basis fcns per batch ...   138.77 (59.00%)
Maximum spatial batch extension              ...  22.96, 22.36, 23.16 au
Average spatial batch extension              ...   3.26,  3.37,  3.31 au

Time for grid setup =   14.017 sec

------------------------------
INITIAL GUESS: MODEL POTENTIAL
------------------------------
Loading Hartree-Fock densities                     ... done
Calculating cut-offs                               ... done
Setting up the integral package                    ... done
Initializing the effective Hamiltonian             ... done
Starting the Coulomb interaction                   ... done (  17.7 sec)
Reading the grid                                   ... done
Mapping shells                                     ... done
Starting the XC term evaluation                    ... done (   3.2 sec)
Transforming the Hamiltonian                       ... done (   0.3 sec)
Diagonalizing the Hamiltonian                      ... done (   0.8 sec)
Back transforming the eigenvectors                 ... done (   0.1 sec)
Now organizing SCF variables                       ... done
                      ------------------
                      INITIAL GUESS DONE (  36.6 sec)
                      ------------------
--------------
SCF ITERATIONS
--------------
ITER       Energy         Delta-E        Max-DP      RMS-DP      [F,P]     Damp
               ***  Starting incremental Fock matrix formation  ***
  0  -5517.3576601308   0.000000000000 0.36111504  0.00125406  0.2475901 0.7000
  1  -5518.3757322761  -1.018072145329 0.27446055  0.00096913  0.1474748 0.7000
                               ***Turning on DIIS***
  2  -5518.9972393076  -0.621507031476 0.63097708  0.00225175  0.0810627 0.0000
  3  -5515.3303562557   3.666883051887 0.06186917  0.00046126  0.0518536 0.0000
  4  -5520.7091405165  -5.378784260796 0.03001553  0.00016890  0.0198180 0.0000
  5  -5520.5198392171   0.189301299401 0.01501371  0.00008238  0.0089601 0.0000
  6  -5520.2657472132   0.254092003910 0.00529287  0.00004727  0.0028153 0.0000
                      *** Initiating the SOSCF procedure ***
                           *** Shutting down DIIS ***
                      *** Re-Reading the Fockian *** 
                      *** Removing any level shift *** 
ITER      Energy       Delta-E        Grad      Rot      Max-DP    RMS-DP
  7  -5520.36876178  -0.1030145712  0.003214  0.003214  0.003220  0.000029
               *** Restarting incremental Fock matrix formation ***
  8  -5520.34613124   0.0226305459  0.001711  0.006406  0.002230  0.000020
  9  -5520.34638673  -0.0002554923  0.000851  0.006841  0.003104  0.000029
 10  -5520.34650129  -0.0001145608  0.000361  0.000835  0.000723  0.000007
 11  -5520.34651476  -0.0000134686  0.000193  0.000757  0.000379  0.000003
 12  -5520.34651792  -0.0000031598  0.000041  0.000216  0.000131  0.000001
 13  -5520.34651840  -0.0000004841  0.000021  0.000121  0.000097  0.000001
 14  -5520.34651855  -0.0000001486  0.000014  0.000061  0.000044  0.000000
 15  -5520.34651859  -0.0000000420  0.000006  0.000031  0.000016  0.000000
 16  -5520.34651858   0.0000000176  0.000003  0.000021  0.000010  0.000000
                  ***Gradient check signals convergence***
              ***Rediagonalizing the Fockian in SOSCF/NRSCF***

               *****************************************************
               *                     SUCCESS                       *
               *           SCF CONVERGED AFTER  17 CYCLES          *
               *****************************************************


----------------
TOTAL SCF ENERGY
----------------

Total Energy       :        -5520.34651860 Eh         -150216.26562 eV

Components:
Nuclear Repulsion  :        16772.94811456 Eh          456415.12189 eV
Electronic Energy  :       -22293.29463317 Eh         -606631.38751 eV
One Electron Energy:       -40984.09618011 Eh        -1115233.95446 eV
Two Electron Energy:        18690.80154695 Eh          508602.56695 eV

Virial components:
Potential Energy   :       -11025.28765759 Eh         -300013.32955 eV
Kinetic Energy     :         5504.94113898 Eh          149797.06393 eV
Virial Ratio       :            2.00279846


---------------
SCF CONVERGENCE
---------------

  Last Energy change         ...   -2.7008e-08  Tolerance :   1.0000e-08
  Last MAX-Density change    ...    4.7509e-06  Tolerance :   1.0000e-07
  Last RMS-Density change    ...    3.7482e-08  Tolerance :   5.0000e-09
  Last Orbital Gradient      ...    1.5387e-06  Tolerance :   1.0000e-05
  Last Orbital Rotation      ...    1.0152e-05  Tolerance :   1.0000e-05

             **** THE GBW FILE WAS UPDATED (BTA43.gbw) ****
             **** DENSITY FILE WAS UPDATED (BTA43.scfp) ****
             **** ENERGY FILE WAS UPDATED (BTA43.en.tmp) ****
             **** THE GBW FILE WAS UPDATED (BTA43.gbw) ****
             **** DENSITY FILE WAS UPDATED (BTA43.scfp) ****
----------------
ORBITAL ENERGIES
----------------

  NO   OCC          E(Eh)            E(eV) 
   0   2.0000     -91.992222     -2503.2356 
   1   2.0000     -91.992221     -2503.2356 
   2   2.0000     -91.967916     -2502.5742 
   3   2.0000     -91.967909     -2502.5740 
   4   2.0000     -20.582414      -560.0760 
   5   2.0000     -20.582398      -560.0755 
   6   2.0000     -20.581677      -560.0559 
   7   2.0000     -20.581654      -560.0553 
   8   2.0000     -20.561681      -559.5118 
   9   2.0000     -20.561590      -559.5093 
  10   2.0000     -15.730481      -428.0482 
  11   2.0000     -15.730470      -428.0479 
  12   2.0000     -15.662113      -426.1878 
  13   2.0000     -15.662076      -426.1868 
  14   2.0000     -15.631986      -425.3680 
  15   2.0000     -15.631978      -425.3677 
  16   2.0000     -15.629560      -425.3020 
  17   2.0000     -15.629528      -425.3011 
  18   2.0000     -15.577747      -423.8921 
  19   2.0000     -15.577720      -423.8913 
  20   2.0000     -15.577557      -423.8869 
  21   2.0000     -15.577537      -423.8863 
  22   2.0000     -11.403109      -310.2944 
  23   2.0000     -11.403038      -310.2924 
  24   2.0000     -11.398642      -310.1728 
  25   2.0000     -11.398632      -310.1726 
  26   2.0000     -11.309991      -307.7605 
  27   2.0000     -11.309948      -307.7593 
  28   2.0000     -11.309898      -307.7580 
  29   2.0000     -11.309880      -307.7575 
  30   2.0000     -11.307682      -307.6977 
  31   2.0000     -11.307653      -307.6969 
  32   2.0000     -11.307372      -307.6892 
  33   2.0000     -11.307347      -307.6886 
  34   2.0000     -11.302951      -307.5689 
  35   2.0000     -11.302869      -307.5667 
  36   2.0000     -11.301505      -307.5296 
  37   2.0000     -11.301421      -307.5273 
  38   2.0000     -11.298265      -307.4414 
  39   2.0000     -11.298256      -307.4412 
  40   2.0000     -11.296898      -307.4042 
  41   2.0000     -11.296859      -307.4032 
  42   2.0000     -11.296139      -307.3836 
  43   2.0000     -11.296112      -307.3828 
  44   2.0000     -11.294837      -307.3481 
  45   2.0000     -11.294824      -307.3478 
  46   2.0000     -11.293637      -307.3155 
  47   2.0000     -11.293595      -307.3143 
  48   2.0000     -11.292970      -307.2973 
  49   2.0000     -11.292951      -307.2968 
  50   2.0000     -11.292012      -307.2713 
  51   2.0000     -11.291996      -307.2708 
  52   2.0000     -11.289151      -307.1934 
  53   2.0000     -11.289127      -307.1928 
  54   2.0000     -11.286590      -307.1237 
  55   2.0000     -11.286585      -307.1236 
  56   2.0000     -11.283246      -307.0327 
  57   2.0000     -11.283215      -307.0319 
  58   2.0000     -11.280887      -306.9685 
  59   2.0000     -11.280863      -306.9679 
  60   2.0000     -11.277685      -306.8814 
  61   2.0000     -11.277633      -306.8800 
  62   2.0000     -11.273408      -306.7650 
  63   2.0000     -11.273368      -306.7639 
  64   2.0000     -11.266511      -306.5774 
  65   2.0000     -11.266500      -306.5771 
  66   2.0000     -11.264968      -306.5354 
  67   2.0000     -11.264915      -306.5339 
  68   2.0000     -11.260932      -306.4255 
  69   2.0000     -11.260887      -306.4243 
  70   2.0000     -11.259193      -306.3782 
  71   2.0000     -11.259105      -306.3758 
  72   2.0000     -11.256317      -306.3000 
  73   2.0000     -11.256264      -306.2985 
  74   2.0000     -11.251703      -306.1744 
  75   2.0000     -11.251679      -306.1738 
  76   2.0000     -11.247560      -306.0617 
  77   2.0000     -11.247542      -306.0612 
  78   2.0000     -11.246873      -306.0430 
  79   2.0000     -11.246845      -306.0422 
  80   2.0000     -11.246332      -306.0283 
  81   2.0000     -11.246322      -306.0280 
  82   2.0000     -11.245298      -306.0001 
  83   2.0000     -11.245277      -305.9995 
  84   2.0000     -11.244133      -305.9684 
  85   2.0000     -11.244119      -305.9680 
  86   2.0000     -11.244062      -305.9665 
  87   2.0000     -11.244039      -305.9659 
  88   2.0000     -11.242026      -305.9111 
  89   2.0000     -11.242008      -305.9106 
  90   2.0000     -11.241122      -305.8865 
  91   2.0000     -11.241107      -305.8861 
  92   2.0000     -11.235001      -305.7199 
  93   2.0000     -11.234985      -305.7195 
  94   2.0000     -11.234622      -305.7096 
  95   2.0000     -11.234606      -305.7092 
  96   2.0000      -9.028664      -245.6824 
  97   2.0000      -9.028657      -245.6823 
  98   2.0000      -9.003275      -244.9916 
  99   2.0000      -9.003271      -244.9915 
 100   2.0000      -6.716157      -182.7559 
 101   2.0000      -6.716151      -182.7558 
 102   2.0000      -6.714933      -182.7226 
 103   2.0000      -6.714928      -182.7225 
 104   2.0000      -6.712502      -182.6565 
 105   2.0000      -6.712498      -182.6564 
 106   2.0000      -6.690858      -182.0675 
 107   2.0000      -6.690854      -182.0674 
 108   2.0000      -6.689905      -182.0416 
 109   2.0000      -6.689901      -182.0415 
 110   2.0000      -6.688001      -181.9898 
 111   2.0000      -6.687997      -181.9897 
 112   2.0000      -1.491251       -40.5790 
 113   2.0000      -1.491246       -40.5789 
 114   2.0000      -1.426051       -38.8048 
 115   2.0000      -1.425982       -38.8029 
 116   2.0000      -1.403038       -38.1786 
 117   2.0000      -1.403019       -38.1781 
 118   2.0000      -1.402309       -38.1588 
 119   2.0000      -1.402282       -38.1580 
 120   2.0000      -1.336111       -36.3574 
 121   2.0000      -1.336073       -36.3564 
 122   2.0000      -1.236872       -33.6570 
 123   2.0000      -1.231743       -33.5174 
 124   2.0000      -1.231727       -33.5170 
 125   2.0000      -1.227497       -33.4019 
 126   2.0000      -1.223758       -33.3001 
 127   2.0000      -1.221741       -33.2453 
 128   2.0000      -1.214863       -33.0581 
 129   2.0000      -1.214834       -33.0573 
 130   2.0000      -1.211890       -32.9772 
 131   2.0000      -1.208595       -32.8876 
 132   2.0000      -1.172898       -31.9162 
 133   2.0000      -1.171791       -31.8861 
 134   2.0000      -1.162856       -31.6429 
 135   2.0000      -1.161908       -31.6171 
 136   2.0000      -1.159959       -31.5641 
 137   2.0000      -1.151595       -31.3365 
 138   2.0000      -1.151592       -31.3364 
 139   2.0000      -1.136019       -30.9126 
 140   2.0000      -1.133139       -30.8343 
 141   2.0000      -1.130243       -30.7555 
 142   2.0000      -1.123086       -30.5607 
 143   2.0000      -1.115931       -30.3660 
 144   2.0000      -1.092988       -29.7417 
 145   2.0000      -1.085627       -29.5414 
 146   2.0000      -1.079874       -29.3849 
 147   2.0000      -1.067105       -29.0374 
 148   2.0000      -1.038537       -28.2600 
 149   2.0000      -1.031433       -28.0667 
 150   2.0000      -1.025044       -27.8929 
 151   2.0000      -1.024806       -27.8864 
 152   2.0000      -1.022908       -27.8347 
 153   2.0000      -1.022224       -27.8161 
 154   2.0000      -1.019275       -27.7359 
 155   2.0000      -1.019136       -27.7321 
 156   2.0000      -1.017239       -27.6805 
 157   2.0000      -1.009632       -27.4735 
 158   2.0000      -1.008489       -27.4424 
 159   2.0000      -1.003287       -27.3008 
 160   2.0000      -0.999010       -27.1845 
 161   2.0000      -0.997357       -27.1395 
 162   2.0000      -0.986403       -26.8414 
 163   2.0000      -0.985937       -26.8287 
 164   2.0000      -0.966044       -26.2874 
 165   2.0000      -0.959753       -26.1162 
 166   2.0000      -0.959555       -26.1108 
 167   2.0000      -0.947369       -25.7792 
 168   2.0000      -0.938372       -25.5344 
 169   2.0000      -0.938372       -25.5344 
 170   2.0000      -0.930986       -25.3334 
 171   2.0000      -0.918478       -24.9931 
 172   2.0000      -0.902621       -24.5616 
 173   2.0000      -0.900269       -24.4976 
 174   2.0000      -0.885563       -24.0974 
 175   2.0000      -0.884547       -24.0697 
 176   2.0000      -0.883600       -24.0440 
 177   2.0000      -0.865568       -23.5533 
 178   2.0000      -0.855333       -23.2748 
 179   2.0000      -0.850879       -23.1536 
 180   2.0000      -0.844597       -22.9826 
 181   2.0000      -0.843931       -22.9645 
 182   2.0000      -0.841910       -22.9095 
 183   2.0000      -0.841461       -22.8973 
 184   2.0000      -0.826334       -22.4857 
 185   2.0000      -0.826054       -22.4781 
 186   2.0000      -0.824384       -22.4326 
 187   2.0000      -0.815184       -22.1823 
 188   2.0000      -0.809475       -22.0269 
 189   2.0000      -0.807962       -21.9858 
 190   2.0000      -0.797178       -21.6923 
 191   2.0000      -0.795319       -21.6417 
 192   2.0000      -0.783606       -21.3230 
 193   2.0000      -0.781524       -21.2664 
 194   2.0000      -0.771356       -20.9897 
 195   2.0000      -0.764555       -20.8046 
 196   2.0000      -0.763924       -20.7874 
 197   2.0000      -0.761349       -20.7174 
 198   2.0000      -0.759039       -20.6545 
 199   2.0000      -0.748815       -20.3763 
 200   2.0000      -0.739911       -20.1340 
 201   2.0000      -0.734266       -19.9804 
 202   2.0000      -0.733429       -19.9576 
 203   2.0000      -0.733182       -19.9509 
 204   2.0000      -0.729343       -19.8464 
 205   2.0000      -0.727784       -19.8040 
 206   2.0000      -0.724992       -19.7280 
 207   2.0000      -0.722617       -19.6634 
 208   2.0000      -0.722576       -19.6623 
 209   2.0000      -0.722390       -19.6572 
 210   2.0000      -0.717234       -19.5169 
 211   2.0000      -0.708355       -19.2753 
 212   2.0000      -0.698827       -19.0161 
 213   2.0000      -0.698749       -19.0139 
 214   2.0000      -0.697992       -18.9933 
 215   2.0000      -0.692864       -18.8538 
 216   2.0000      -0.692419       -18.8417 
 217   2.0000      -0.691272       -18.8105 
 218   2.0000      -0.686575       -18.6827 
 219   2.0000      -0.685854       -18.6630 
 220   2.0000      -0.684348       -18.6221 
 221   2.0000      -0.681929       -18.5562 
 222   2.0000      -0.673684       -18.3319 
 223   2.0000      -0.665809       -18.1176 
 224   2.0000      -0.664699       -18.0874 
 225   2.0000      -0.664592       -18.0845 
 226   2.0000      -0.663984       -18.0679 
 227   2.0000      -0.663273       -18.0486 
 228   2.0000      -0.663078       -18.0433 
 229   2.0000      -0.662580       -18.0297 
 230   2.0000      -0.661567       -18.0022 
 231   2.0000      -0.661072       -17.9887 
 232   2.0000      -0.647273       -17.6132 
 233   2.0000      -0.641683       -17.4611 
 234   2.0000      -0.640042       -17.4164 
 235   2.0000      -0.636357       -17.3161 
 236   2.0000      -0.633613       -17.2415 
 237   2.0000      -0.632782       -17.2189 
 238   2.0000      -0.630350       -17.1527 
 239   2.0000      -0.629795       -17.1376 
 240   2.0000      -0.623433       -16.9645 
 241   2.0000      -0.614202       -16.7133 
 242   2.0000      -0.612874       -16.6771 
 243   2.0000      -0.608612       -16.5612 
 244   2.0000      -0.608546       -16.5594 
 245   2.0000      -0.608167       -16.5491 
 246   2.0000      -0.605598       -16.4792 
 247   2.0000      -0.602931       -16.4066 
 248   2.0000      -0.602294       -16.3893 
 249   2.0000      -0.601368       -16.3641 
 250   2.0000      -0.600459       -16.3393 
 251   2.0000      -0.600145       -16.3308 
 252   2.0000      -0.598383       -16.2828 
 253   2.0000      -0.595345       -16.2002 
 254   2.0000      -0.594560       -16.1788 
 255   2.0000      -0.594520       -16.1777 
 256   2.0000      -0.592472       -16.1220 
 257   2.0000      -0.591614       -16.0986 
 258   2.0000      -0.589591       -16.0436 
 259   2.0000      -0.589199       -16.0329 
 260   2.0000      -0.587202       -15.9786 
 261   2.0000      -0.585619       -15.9355 
 262   2.0000      -0.584061       -15.8931 
 263   2.0000      -0.582504       -15.8507 
 264   2.0000      -0.580210       -15.7883 
 265   2.0000      -0.580193       -15.7879 
 266   2.0000      -0.570979       -15.5371 
 267   2.0000      -0.568279       -15.4637 
 268   2.0000      -0.565344       -15.3838 
 269   2.0000      -0.565300       -15.3826 
 270   2.0000      -0.562520       -15.3069 
 271   2.0000      -0.561358       -15.2753 
 272   2.0000      -0.561070       -15.2675 
 273   2.0000      -0.553650       -15.0656 
 274   2.0000      -0.552411       -15.0319 
 275   2.0000      -0.551464       -15.0061 
 276   2.0000      -0.546307       -14.8658 
[...]
   Size of expansion space: 6
   Lowest Energy          :     0.101024752932
   Maximum Energy change  :     0.000002457243 (vector 2)
   Maximum residual norm  :     0.000000429514

                       ****Iteration    9****
   Time for densities:     2.977
   Using LibInt in JK Direct
   Time for J+K (Direct):  2662.335
   Time for Sigma-Completion:    33.131
   Size of expansion space: 9
   Lowest Energy          :     0.101024748032
   Maximum Energy change  :     0.000000986343 (vector 2)
   Maximum residual norm  :     0.000000110376

      *** CONVERGENCE OF RESIDUAL NORM REACHED ***

Storing the converged CI vectors               ... BTA43.cis1

                 *** DAVIDSON DONE ***

Total time for solving the CIS problem: 35201.755sec

-----------------------------
CIS-EXCITED STATES (SINGLETS)
-----------------------------

the weight of the individual excitations are printed if larger than 1.0e-02

STATE  1:  E=   0.101025 au      2.749 eV    22172.4 cm**-1
   338a -> 347a  :     0.012422 (c=  0.11145219)
   340a -> 347a  :     0.015924 (c= -0.12619035)
   343a -> 346a  :     0.173740 (c= -0.41682156)
   344a -> 345a  :     0.643967 (c= -0.80247524)
   344a -> 347a  :     0.057979 (c= -0.24078929)

STATE  2:  E=   0.121949 au      3.318 eV    26764.6 cm**-1
   337a -> 347a  :     0.012936 (c=  0.11373586)
   338a -> 346a  :     0.014022 (c=  0.11841413)
   340a -> 346a  :     0.047848 (c= -0.21874118)
   343a -> 345a  :     0.370977 (c=  0.60907909)
   344a -> 346a  :     0.421051 (c=  0.64888454)
   344a -> 348a  :     0.018472 (c= -0.13591162)

STATE  3:  E=   0.155053 au      4.219 eV    34030.2 cm**-1
   328a -> 346a  :     0.022620 (c=  0.15039935)
   333a -> 345a  :     0.010535 (c=  0.10263888)
   337a -> 346a  :     0.019053 (c= -0.13803240)
   338a -> 345a  :     0.068522 (c=  0.26176711)
   339a -> 346a  :     0.014435 (c= -0.12014542)
   340a -> 345a  :     0.163936 (c= -0.40489065)
   343a -> 346a  :     0.184458 (c=  0.42948630)
   344a -> 347a  :     0.249365 (c= -0.49936445)
   344a -> 349a  :     0.083396 (c= -0.28878331)


----------------------
CIS-EXCITATION SPECTRA
----------------------

Center of mass = (  0.9812, -6.1574,  1.9849)
Calculating the Dipole integrals                  ... done
Transforming integrals                            ... done
Calculating the Linear Momentum integrals         ... done
Transforming integrals                            ... done
Calculating angular momentum integrals            ... done
Transforming integrals                            ... done

-----------------------------------------------------------------------------
         ABSORPTION SPECTRUM VIA TRANSITION ELECTRIC DIPOLE MOMENTS
-----------------------------------------------------------------------------
State   Energy    Wavelength  fosc         T2        TX        TY        TZ  
        (cm-1)      (nm)                 (au**2)    (au)      (au)      (au) 
-----------------------------------------------------------------------------
   1   22172.4    451.0   2.653433344  39.39777   4.97712  -0.88113   3.72151
   2   26764.6    373.6   0.884711989  10.88219   1.54698   2.51185  -1.47637
   3   34030.2    293.9   0.607679718   5.87877  -0.03447  -1.21783  -2.09630

-----------------------------------------------------------------------------
         ABSORPTION SPECTRUM VIA TRANSITION VELOCITY DIPOLE MOMENTS
-----------------------------------------------------------------------------
State   Energy    Wavelength   fosc        P2         PX        PY        PZ  
        (cm-1)      (nm)                 (au**2)     (au)      (au)      (au) 
-----------------------------------------------------------------------------
   1   22172.4    451.0   1.515077847   0.22959  -0.37188   0.05383  -0.29732
   2   26764.6    373.6   0.411550738   0.07528  -0.12846  -0.20880   0.12323
   3   34030.2    293.9   0.633022843   0.14723   0.07350   0.15619   0.34268

-------------------------------------------------------------------
                             CD SPECTRUM
-------------------------------------------------------------------
State  Energy     Wavelength     R         MX        MY        MZ   
       (cm-1)       (nm)     (1e40*cgs)   (au)      (au)      (au)  
-------------------------------------------------------------------
   1   22172.4    451.0    -1528.86389   0.50399  -1.42651  -1.88317
   2   26764.6    373.6    3121.81642   0.94876   1.51703  -0.90998
   3   34030.2    293.9    -2294.57484  -0.29814   1.16161   1.65181

Total run time:    35384.550 sec

           *** ORCA-CIS/TD-DFT FINISHED WITHOUT ERROR ***

-----------------------
CIS/TD-DFT TOTAL ENERGY
-----------------------

    E(SCF)  =  -5520.346518604 Eh
    DE(CIS) =      0.101024748 Eh (Root  1)
    ----------------------------- ---------
    E(tot)  =  -5520.245493856 Eh


-------------------------   --------------------
FINAL SINGLE POINT ENERGY     -5520.245493856129
-------------------------   --------------------

------------------------------------------------------------------------------
                         ORCA SCF GRADIENT CALCULATION
------------------------------------------------------------------------------


------------
CIS GRADIENT
------------

Reference wavefunction             ... RHF
State of interest                  ... 1
Basis dimension                    ... 1610
DFT-XC contribution needed         ... NO
RI-approximation                   ... OFF
CIS-vectors being read from        ... BTA43.cis

 => Number of Vectors found: 3
 => Orbital Window: 112...344 -> 345...1609

Reading the CIS file                     ... done
Norm of the CI vector                    ... 1.000000000
Making the CIS (pseudo)densities         ... done
Making operators G(D) and Q(T)           ... done
Transforming the Fock operators          ... done
Making the frozen-core relaxed density   ... done
Constructing the G(H) operator           ... done
Transforming the G(H) operator           ... done
Calculating the CIS Lagrangian           ... done
Solving the Z-vector equations           ... done
Finalizing the relaxed density           ... done
Storing the relaxed density              ... done
Constructing the G(Z) operator           ... done
Transforming the G(Z) operator           ... done
Making the W-matrix                      ... done
Finalizing the W-matrix                  ... done
Transforming the W-matrix                ... done
Nuclear repulsion gradient               ... done
One-Electron gradient                    ... done
Prescreening matrices                    ... done
Two-Electron gradient (4-center)         ... done
                 ---------------------------
                 EXCITED STATE GRADIENT DONE
                 ---------------------------


------------------
CARTESIAN GRADIENT
------------------

   1   C   :    0.011124612   -0.000863074    0.005925574
   2   C   :   -0.013257978    0.006222381   -0.004217065
   3   C   :    0.012827893   -0.006892940    0.002987861
   4   C   :   -0.009349916    0.003742512   -0.007606335
   5   C   :    0.013560696   -0.005614189    0.003799729
   6   C   :   -0.013364587    0.006062263   -0.002472887
   7   C   :   -0.002622928    0.001471575    0.003692456
   8   C   :    0.003268286   -0.005275341   -0.011519857
   9   C   :    0.004729800    0.000585139    0.003861105
  10   C   :    0.001357413   -0.001448016    0.006206317
  11   C   :   -0.000421319   -0.001399820   -0.008512332
  12   S   :    0.000890194   -0.002987084    0.000325544
  13   C   :    0.000993327   -0.004036583   -0.002182575
  14   C   :   -0.000939249    0.009302547    0.009214640
  15   C   :   -0.003727922    0.000776222   -0.004708196
  16   C   :   -0.004307897   -0.003462572   -0.003171563
  17   C   :    0.002594615    0.005149228    0.006125087
  18   S   :   -0.002734371   -0.000088588    0.001439413
  19   C   :    0.008829605   -0.008236683    0.005053495
  20   C   :   -0.012771517    0.001649032   -0.001024007
  21   C   :    0.001239144   -0.001032553   -0.004116678
  22   C   :   -0.001350762   -0.004046812    0.000850611
  23   C   :    0.000326558    0.003486294    0.002671000
  24   C   :   -0.002488570   -0.002229977    0.002816995
  25   C   :    0.003508205   -0.005935660    0.001502290
  26   C   :   -0.004300455    0.004767809   -0.004336353
  27   C   :    0.003352592   -0.006801585   -0.002146803
  28   C   :   -0.003718301    0.005697551    0.031647769
  29   C   :   -0.026619108    0.027612550    0.005421427
  30   C   :   -0.006960693    0.000394019    0.001547008
  31   C   :    0.007833334    0.000552921    0.001197734
  32   C   :   -0.006019060    0.002726156    0.004582195
  33   C   :   -0.007085816   -0.023240443   -0.021315456
  34   C   :    0.032371922   -0.018103456   -0.010945807
  35   N   :    0.013672092   -0.014944957    0.006662391
  36   N   :    0.015325618   -0.016782280   -0.021442631
  37   N   :   -0.007336569    0.006483226   -0.021530290
  38   N   :   -0.021141138    0.002775806    0.000381134
  39   N   :   -0.011638967    0.022811547    0.018003885
  40   N   :    0.017783719    0.010400627    0.011629883
  41   C   :   -0.002440054    0.008222117   -0.015984110
  42   C   :   -0.002661703   -0.003275318    0.012295945
  43   C   :    0.014029123    0.010707372    0.004887822
  44   C   :   -0.006091438   -0.010979079   -0.003942675
  45   C   :    0.004282652   -0.010975342   -0.008879100
  46   C   :   -0.006566123    0.007265393    0.011010212
  47   C   :    0.032583195   -0.028690129   -0.010283569
  48   N   :   -0.010265403    0.002412585    0.000700329
  49   C   :    0.002272569   -0.000184874    0.000025839
  50   S   :    0.000910845    0.004743079    0.000996003
  51   C   :   -0.034067776    0.025920559    0.012404137
  52   N   :    0.007164972   -0.007474535    0.002190568
  53   C   :   -0.001453581    0.001546447   -0.000805913
  54   S   :    0.002380567    0.000706599   -0.004250703
  55   C   :   -0.008717485    0.011541769   -0.006959408
  56   O   :    0.030585016   -0.024026321   -0.011113704
  57   C   :   -0.011654808    0.001239971    0.020391954
  58   C   :    0.040678107   -0.038325290    0.000365458
  59   C   :   -0.006348635    0.031157928   -0.053598273
  60   C   :    0.001017243    0.002658283    0.001350294
  61   C   :    0.001993246    0.003901668    0.002650605
  62   C   :    0.003927000    0.013375448   -0.002913423
  63   C   :    0.003482223    0.006956706    0.004253742
  64   C   :   -0.000457671    0.000671047   -0.003403683
  65   C   :   -0.001835484    0.000388358    0.001305410
  66   C   :   -0.005768997   -0.000910068    0.003432761
  67   C   :   -0.003265372   -0.012964161    0.006931640
  68   C   :   -0.006358959   -0.001007621    0.003643237
  69   C   :    0.001239724   -0.003744354    0.000386606
  70   C   :    0.000783856    0.000245500   -0.003054065
  71   C   :    0.000543589    0.000297901   -0.005076249
  72   C   :    0.008518614    0.007067854   -0.008950628
  73   C   :    0.001233818    0.000803223   -0.008722935
  74   C   :    0.002186747    0.002051096    0.001777879
  75   C   :    0.000755513   -0.002148292   -0.000284005
  76   C   :    0.001135024   -0.006576841    0.000919811
  77   C   :   -0.010300670   -0.009212629    0.005938223
  78   C   :    0.001306409   -0.007192627    0.001114549
  79   C   :   -0.003526575    0.000022252    0.001804671
  80   O   :   -0.029775220    0.025643642    0.009762882
  81   C   :    0.016047938    0.000413939    0.000007338
  82   C   :   -0.001121595   -0.022178693   -0.007851438
  83   C   :   -0.050466815    0.022755506    0.008162707
  84   C   :    0.048098003    0.037223559    0.013358111
  85   N   :   -0.023632403    0.021210268    0.001638431
  86   N   :    0.002662511   -0.017245242    0.030831255
  87   N   :   -0.026591124   -0.021969919   -0.007719440
  88   N   :    0.027874230   -0.014719701   -0.005096733
  89   O   :   -0.014426733   -0.013066857    0.009128629
  90   O   :    0.016338382    0.010663880   -0.008703717
  91   O   :    0.002073054    0.019376266   -0.008753862
  92   O   :   -0.004968229   -0.018735407    0.009305935
  93   C   :    0.005641486    0.006261061    0.003074093
  94   C   :   -0.008141124    0.002329652    0.003054772
  95   C   :    0.004985687   -0.007505203   -0.000023979
  96   C   :    0.000048778    0.002995189   -0.008444204
  97   H   :    0.000388249    0.000183969   -0.000589926
  98   H   :    0.000156726    0.000728255    0.000086122
  99   H   :    0.000226870    0.000969512    0.001359419
 100   H   :    0.000002802   -0.000584317   -0.001588029
 101   H   :   -0.000495573    0.000882181   -0.002686464
 102   H   :    0.001044511   -0.002549405    0.002909765
 103   H   :    0.002017697    0.001624281    0.001215099
 104   H   :   -0.003570189   -0.001614811   -0.000404897
 105   H   :    0.000595175   -0.000063776   -0.002705968
 106   H   :    0.000768326    0.002220573    0.001434791
 107   H   :   -0.002744671    0.000004301   -0.000266582
 108   H   :    0.000953597    0.001643065    0.000152577
 109   H   :    0.000812641    0.000332266    0.001740331
 110   H   :    0.000578119    0.000852972   -0.001595414
 111   H   :   -0.000930232   -0.000533373   -0.001619608
 112   H   :    0.001656043   -0.001771738    0.001298968
 113   H   :    0.003793643   -0.002089030   -0.003585126
 114   H   :   -0.002739875   -0.001235968    0.001217183
 115   H   :    0.000223156    0.001771436    0.002544185
 116   H   :    0.000677665    0.001369709   -0.000082263
 117   H   :    0.000427884    0.001577156   -0.001055800
 118   H   :   -0.000129308    0.000122907    0.000494427
 119   H   :    0.000031197    0.001470487    0.000956264
 120   H   :   -0.001311961   -0.000784268    0.001209616
 121   H   :   -0.000099416   -0.001817712    0.000791877
 122   H   :   -0.000357066    0.000337922    0.000107805
 123   H   :   -0.001420260    0.000597617    0.001023404
 124   H   :    0.000621433    0.000781351   -0.001161740
 125   H   :    0.001319799    0.001291419   -0.000610891
 126   H   :   -0.000049035   -0.000411584   -0.000340871
 127   H   :    0.000628763   -0.000358986   -0.001597196
 128   H   :   -0.000331523   -0.001890534    0.000341448
 129   H   :   -0.001572542   -0.000911140    0.000795231
 130   H   :    0.000403122   -0.000276355   -0.000149204
 131   H   :    0.000802425   -0.001604580   -0.000446404
 132   H   :   -0.002137162    0.004844779    0.001897427
 133   H   :    0.000146401   -0.002987251    0.001313814
 134   H   :    0.000089110   -0.001331690   -0.002815793
 135   H   :   -0.001864444   -0.001845969    0.000343002
 136   H   :   -0.000257699    0.002563552   -0.000284353
 137   H   :    0.002472245   -0.000163873    0.000171106
 138   H   :    0.002372861    0.000587120   -0.001081845
 139   H   :   -0.000726033    0.000039299    0.002415745
 140   H   :   -0.002210840   -0.000543516   -0.001150490
 141   H   :   -0.000458894    0.002530433   -0.000733247
 142   H   :   -0.000561202   -0.002152964   -0.001185744
 143   H   :    0.001322662   -0.000891338    0.001996294
 144   H   :   -0.000405815   -0.001888522    0.001818887
 145   H   :    0.002108429    0.000454930   -0.001451967
 146   H   :   -0.001576452    0.001606798   -0.001027714

Difference to translation invariance:
           :    0.0000000000   -0.0000000000    0.0000000004

Norm of the cartesian gradient     ...    0.2115768728
RMS gradient                       ...    0.0101095340
MAX gradient                       ...    0.0535982727

-------
TIMINGS
-------

Total CIS gradient time            ...    35720.244 sec

Fock matrix formation       ....    2889.190 sec  (  8.1%)
  Coulomb formation         ....    2889.190 sec  (100.0% of F)
Z-vector equation           ....   29425.840 sec  ( 82.4%)
One electron gradient       ....      29.447 sec  (  0.1%)
Prescreening matrices       ....       1.628 sec  (  0.0%)
Two electron gradient       ....    3367.501 sec  (  9.4%)

                            ***************************************
                            *     ORCA property calculations      *
                            ***************************************

                                    ---------------------
                                    Active property flags
                                    ---------------------
   (+) Dipole Moment


------------------------------------------------------------------------------
                       ORCA ELECTRIC PROPERTIES CALCULATION
------------------------------------------------------------------------------

Dipole Moment Calculation                       ... on
Quadrupole Moment Calculation                   ... off
Polarizability Calculation                      ... off
GBWName                                         ... BTA43.gbw
Electron density file                           ... BTA43.scfp
The origin for moment calculation is the CENTER OF MASS  = ( 0.981239, -6.157413  1.984892)

-------------
DIPOLE MOMENT
-------------
                                X             Y             Z
Electronic contribution:    -18.58826     -30.20884      17.75569
Nuclear contribution   :     20.82859      33.88341     -19.94328
                        -----------------------------------------
Total Dipole Moment    :      2.24033       3.67458      -2.18758
                        -----------------------------------------
Magnitude (a.u.)       :      4.82774
Magnitude (Debye)      :     12.27115



--------------------
Rotational spectrum 
--------------------
 
Rotational constants in cm-1:     0.000580     0.000203     0.000201 
Rotational constants in MHz :    17.391039     6.073135     6.037130 

 Dipole components along the rotational axes: 
x,y,z [a.u.] :    -0.029807    -4.827541     0.032728 
x,y,z [Debye]:    -0.075763   -12.270635     0.083188 

 

                        *** CIS RELAXED DENSITY ***

------------------------------------------------------------------------------
                       ORCA ELECTRIC PROPERTIES CALCULATION
------------------------------------------------------------------------------

Dipole Moment Calculation                       ... on
Quadrupole Moment Calculation                   ... off
Polarizability Calculation                      ... off
GBWName                                         ... BTA43.gbw
Electron density file                           ... BTA43.cisp
The origin for moment calculation is the CENTER OF MASS  = ( 0.981239, -6.157413  1.984892)

-------------
DIPOLE MOMENT
-------------
                                X             Y             Z
Electronic contribution:    -18.24218     -29.62869      17.41088
Nuclear contribution   :     20.82859      33.88341     -19.94328
                        -----------------------------------------
Total Dipole Moment    :      2.58641       4.25472      -2.53240
                        -----------------------------------------
Magnitude (a.u.)       :      5.58616
Magnitude (Debye)      :     14.19890



--------------------
Rotational spectrum 
--------------------
 
Rotational constants in cm-1:     0.000580     0.000203     0.000201 
Rotational constants in MHz :    17.391039     6.073135     6.037130 

 Dipole components along the rotational axes: 
x,y,z [a.u.] :    -0.040359    -5.585909     0.034770 
x,y,z [Debye]:    -0.102585   -14.198252     0.088379 

 

Timings for individual modules:

Sum of individual times         ...    83579.649 sec (=1392.994 min)
GTO integral calculation        ...        2.599 sec (=   0.043 min)   0.0 %
SCF iterations                  ...    12472.146 sec (= 207.869 min)  14.9 %
CIS module                      ...    35384.630 sec (= 589.744 min)  42.3 %
SCF Gradient evaluation         ...    35720.274 sec (= 595.338 min)  42.7 %
                             ****ORCA TERMINATED NORMALLY****
TOTAL RUN TIME: 0 days 23 hours 13 minutes 1 seconds 17 msec
