
                                 *****************
                                 * O   R   C   A *
                                 *****************

           --- An Ab Initio, DFT and Semiempirical electronic structure package ---

                  #######################################################
                  #                        -***-                        #
                  #          Department of theory and spectroscopy      #
                  #               Directorship: Frank Neese             #
                  #        Max Planck Institute fuer Kohlenforschung    #
                  #                Kaiser Wilhelm Platz 1               #
                  #                 D-45470 Muelheim/Ruhr               #
                  #                      Germany                        #
                  #                                                     #
                  #                  All rights reserved                #
                  #                        -***-                        #
                  #######################################################


                         Program Version 4.2.0 -  RELEASE  -


 With contributions from (in alphabetic order):
   Daniel Aravena         : Magnetic Suceptibility
   Michael Atanasov       : Ab Initio Ligand Field Theory (pilot matlab implementation)
   Alexander A. Auer      : GIAO ZORA, VPT2
   Ute Becker             : Parallelization
   Giovanni Bistoni       : ED, misc. LED, open-shell LED, HFLED
   Martin Brehm           : Molecular dynamics
   Dmytro Bykov           : SCF Hessian
   Vijay G. Chilkuri      : MRCI spin determinant printing, contributions to CSF-ICE
   Dipayan Datta          : RHF DLPNO-CCSD density
   Achintya Kumar Dutta   : EOM-CC, STEOM-CC
   Dmitry Ganyushin       : Spin-Orbit,Spin-Spin,Magnetic field MRCI
   Miquel Garcia          : C-PCM Hessian, Gaussian charge scheme
   Yang Guo               : DLPNO-NEVPT2, CIM, IAO-localization
   Andreas Hansen         : Spin unrestricted coupled pair/coupled cluster methods
   Benjamin Helmich-Paris : CASSCF linear response (MC-RPA)
   Lee Huntington         : MR-EOM, pCC
   Robert Izsak           : Overlap fitted RIJCOSX, COSX-SCS-MP3, EOM
   Christian Kollmar      : KDIIS, OOCD, Brueckner-CCSD(T), CCSD density
   Simone Kossmann        : Meta GGA functionals, TD-DFT gradient, OOMP2, MP2 Hessian
   Martin Krupicka        : AUTO-CI
   Lucas Lang             : DCDCAS
   Dagmar Lenk            : GEPOL surface, SMD
   Dimitrios Liakos       : Extrapolation schemes; Compound Job, initial MDCI parallelization
   Dimitrios Manganas     : Further ROCIS development; embedding schemes
   Dimitrios Pantazis     : SARC Basis sets
   Taras Petrenko         : DFT Hessian,TD-DFT gradient, ASA, ECA, R-Raman, ABS, FL, XAS/XES, NRVS
   Peter Pinski           : DLPNO-MP2, DLPNO-MP2 Gradient
   Christoph Reimann      : Effective Core Potentials
   Marius Retegan         : Local ZFS, SOC
   Christoph Riplinger    : Optimizer, TS searches, QM/MM, DLPNO-CCSD(T), (RO)-DLPNO pert. Triples
   Tobias Risthaus        : Range-separated hybrids, TD-DFT gradient, RPA, STAB
   Michael Roemelt        : Original ROCIS implementation
   Masaaki Saitow         : Open-shell DLPNO-CCSD energy and density
   Barbara Sandhoefer     : DKH picture change effects
   Avijit Sen             : IP-ROCIS
   Kantharuban Sivalingam : CASSCF convergence, NEVPT2, FIC-MRCI
   Bernardo de Souza      : ESD, SOC TD-DFT
   Georgi Stoychev        : AutoAux, RI-MP2 NMR
   Willem Van den Heuvel  : Paramagnetic NMR
   Boris Wezisla          : Elementary symmetry handling
   Frank Wennmohs         : Technical directorship


 We gratefully acknowledge several colleagues who have allowed us to
 interface, adapt or use parts of their codes:
   Stefan Grimme, W. Hujo, H. Kruse,             : VdW corrections, initial TS optimization,
                  C. Bannwarth                     DFT functionals, gCP, sTDA/sTD-DF
   Ed Valeev, F. Pavosevic, A. Kumar             : LibInt (2-el integral package), F12 methods
   Garnet Chan, S. Sharma, J. Yang, R. Olivares  : DMRG
   Ulf Ekstrom                                   : XCFun DFT Library
   Mihaly Kallay                                 : mrcc  (arbitrary order and MRCC methods)
   Andreas Klamt, Michael Diedenhofen            : otool_cosmo (COSMO solvation model)
   Jiri Pittner, Ondrej Demel                    : Mk-CCSD
   Frank Weinhold                                : gennbo (NPA and NBO analysis)
   Christopher J. Cramer and Donald G. Truhlar   : smd solvation model
   Lars Goerigk                                  : TD-DFT with DH, B97 family of functionals
   V. Asgeirsson, H. Jonsson                     : NEB implementation
   FAccTs GmbH                                   : IRC, NEB, NEB-TS, Multilevel, MM, QM/MM, CI optimization
   S Lehtola, MJT Oliveira, MAL Marques          : LibXC Library


 Your calculation uses the libint2 library for the computation of 2-el integrals
 For citations please refer to: http://libint.valeyev.net

 Your ORCA version has been built with support for libXC version: 4.2.3
 For citations please refer to: https://tddft.org/programs/libxc/

 This ORCA versions uses:
   CBLAS   interface :  Fast vector & matrix operations
   LAPACKE interface :  Fast linear algebra routines
   SCALAPACK package :  Parallel linear algebra routines


----- Orbital basis set information -----
Your calculation utilizes the basis: def2-SVP
   F. Weigend and R. Ahlrichs, Phys. Chem. Chem. Phys. 7, 3297 (2005).

================================================================================
                                        WARNINGS
                       Please study these warnings very carefully!
================================================================================

INFO   : Checking CIS options ...

WARNING: CIS/ROCIS methods need fully converged wavefunctions
  ===> : Setting SCFConvForced true
         You can overwrite this default with %scf ConvForced false 


INFO   : the flag for use of LIBINT has been found!

================================================================================
                                       INPUT FILE
================================================================================
NAME = BTA53.inp
|  1> # ORCA input file
|  2> # BTA53.out
|  3> ! Engrad Keepdens
|  4> %maxcore 1000
|  5> %tddft
|  6>   nroots 3 
|  7>   # nroots is the number of states to be computed
|  8>   Iroot 1
|  9>   # first excited state
| 10>   end
| 11> * xyz 0 1
| 12>    C       -2.25175         2.46049        -0.13563
| 13>    C       -2.01946         3.81211        -0.53190
| 14>    C       -4.35861        -7.29032         6.37907
| 15>    C       -5.25148        -1.23229         5.98638
| 16>    C       -2.99362        -0.15568         6.27237
| 17>    C       -4.72194        -1.80973        -0.55624
| 18>    C       -2.79669        -3.41850        -0.43212
| 19>    C       -1.74148         4.20543        -1.84074
| 20>    C       -1.54582         5.53090        -2.20723
| 21>    C       -1.60099         6.59224        -1.30281
| 22>    C       -1.86094         6.22065         0.03999
| 23>    C       -2.07147         4.86298         0.41173
| 24>    C       -4.71361        -8.31141         5.49905
| 25>    C       -4.99248        -9.60905         5.90464
| 26>    C       -4.93974       -10.01170         7.23882
| 27>    C       -4.56870        -8.99734         8.15680
| 28>    C       -4.28512        -7.66275         7.74304
| 29>    N       -1.96743         6.95859         1.15324
| 30>    N       -2.21812         6.08982         2.09502
| 31>    N       -2.29456         4.83965         1.73281
| 32>    N       -4.42247        -9.04325         9.48725
| 33>    N       -4.08008        -7.82846         9.81726
| 34>    N       -3.98030        -6.96281         8.84655
| 35>    C       -1.43275         7.97161        -1.60925
| 36>    C       -1.24482         8.58368        -2.80390
| 37>    C       -5.22577       -11.31229         7.74035
| 38>    C       -5.64221       -12.42625         7.09006
| 39>    C       -3.82876        -7.46861        11.17879
| 40>    C       -2.40433         6.48285         3.45749
| 41>    C       -5.89556       -13.67174         7.81059
| 42>    N       -6.33140       -14.66382         6.93757
| 43>    C       -6.43477       -14.30863         5.63208
| 44>    S       -5.97169       -12.63878         5.38176
| 45>    C       -1.11466        10.03592        -2.89759
| 46>    N       -0.96017        10.43028        -4.22301
| 47>    C       -0.95529         9.43601        -5.14643
| 48>    S       -1.14420         7.86412        -4.39903
| 49>    C       -0.81800        11.83077        -4.53904
| 50>    O       -1.13610        10.82040        -1.97681
| 51>    C       -0.82535         9.55101        -6.50672
| 52>    C       -0.84136         8.38849        -7.30503
| 53>    C       -0.67616        10.75046        -7.22412
| 54>    C       -4.87502        -1.62089        -1.92553
| 55>    C       -6.12240        -1.38737        -2.46655
| 56>    C       -7.25292        -1.33991        -1.65718
| 57>    C       -7.09367        -1.53225        -0.29296
| 58>    C       -5.84365        -1.76266         0.25664
| 59>    C       -1.42914        -3.63856        -0.51424
| 60>    C       -0.93998        -4.89029        -0.83722
| 61>    C       -1.80113        -5.95420        -1.07202
| 62>    C       -3.16904        -5.72745        -0.98226
| 63>    C       -3.66504        -4.47587        -0.66847
| 64>    C       -5.74908        -1.54166         7.24636
| 65>    C       -7.10049        -1.44336         7.51118
| 66>    C       -7.99160        -1.02670         6.52900
| 67>    C       -7.48735        -0.71085         5.27522
| 68>    C       -6.13464        -0.81259         5.00213
| 69>    C       -3.61069         1.07449         6.44461
| 70>    C       -2.87729         2.16945         6.86668
| 71>    C       -1.51901         2.06300         7.12894
| 72>    C       -0.90968         0.82456         6.96076
| 73>    C       -1.63405        -0.27026         6.53296
| 74>    O       -5.76046       -13.85513         8.99878
| 75>    C       -6.64349       -15.97673         7.44784
| 76>    C       -6.83916       -15.08657         4.57758
| 77>    C       -6.88025       -14.53087         3.28208
| 78>    C       -7.23568       -16.43319         4.64832
| 79>    N       -0.85333         7.44487        -7.95748
| 80>    N       -0.55349        11.69422        -7.86703
| 81>    N       -7.57001       -17.53188         4.63964
| 82>    N       -6.91613       -14.08216         2.22692
| 83>    C       -9.45810        -0.93752         6.82077
| 84>    C       -0.71514         3.24869         7.56839
| 85>    C       -1.27358        -7.30877        -1.43292
| 86>    C       -8.60148        -1.08794        -2.25845
| 87>    S       -2.75421         2.11428         1.49600
| 88>    C       -2.84332         0.42856         1.14348
| 89>    C       -2.49750         0.16096        -0.17247
| 90>    C       -2.15846         1.30996        -0.89447
| 91>    C       -3.12809        -0.63566         2.05071
| 92>    C       -3.28871        -1.91507         1.48723
| 93>    C       -3.31052        -2.04913        -0.02543
| 94>    O       -2.44328        -1.09045        -0.66733
| 95>    C       -3.22027        -0.45782         3.43266
| 96>    C       -3.48777        -1.52766         4.25620
| 97>    C       -3.62508        -2.81121         3.69572
| 98>    C       -3.51496        -2.99198         2.31590
| 99>    C       -3.74925        -1.36074         5.74367
|100>    O       -3.27249        -2.49640         6.49180
|101>    C       -3.62197        -3.69389         5.97735
|102>    C       -3.83236        -3.87996         4.61956
|103>    C       -3.76100        -4.86896         6.72494
|104>    C       -4.09813        -5.95587         5.94617
|105>    S       -4.22810        -5.51809         4.25986
|106>    H       -1.68597         3.45179        -2.60995
|107>    H       -1.34147         5.73596        -3.24667
|108>    H       -4.77796        -8.07529         4.44676
|109>    H       -5.25921       -10.32666         5.14454
|110>    H       -1.47514         8.64124        -0.75719
|111>    H       -5.10198       -11.43112         8.81117
|112>    H       -3.97598        -8.35470        11.79138
|113>    H       -4.51559        -6.67957        11.48654
|114>    H       -2.80658        -7.10373        11.28344
|115>    H       -3.31492         7.07586         3.55369
|116>    H       -1.55827         7.08744         3.78354
|117>    H       -2.48242         5.57904         4.05731
|118>    H       -0.85130        12.36863        -3.59095
|119>    H       -1.63216        12.16823        -5.18119
|120>    H        0.13332        12.02126        -5.03661
|121>    H       -4.00220        -1.65920        -2.56047
|122>    H       -6.22518        -1.24292        -3.53243
|123>    H       -7.95742        -1.50226         0.35597
|124>    H       -5.75349        -1.91297         1.32250
|125>    H       -0.74817        -2.82173        -0.32953
|126>    H        0.12779        -5.04397        -0.90117
|127>    H       -3.85646        -6.54208        -1.15921
|128>    H       -4.73238        -4.32204        -0.60387
|129>    H       -5.06527        -1.86061         8.01899
|130>    H       -7.47065        -1.68949         8.49612
|131>    H       -8.15979        -0.37948         4.49679
|132>    H       -5.77096        -0.55432         4.01838
|133>    H       -4.66660         1.18238         6.24545
|134>    H       -3.37396         3.12099         6.99390
|135>    H        0.14702         0.72090         7.16186
|136>    H       -1.14874        -1.22546         6.40245
|137>    H       -6.45962       -15.94478         8.52227
|138>    H       -6.00632       -16.73295         6.98844
|139>    H       -7.68825       -16.22709         7.26139
|140>    H       -9.96939        -0.33999         6.07026
|141>    H       -9.62955        -0.49641         7.80066
|142>    H       -9.89942        -1.93452         6.82232
|143>    H       -1.35902         4.09401         7.79791
|144>    H       -0.02278         3.54501         6.78037
|145>    H       -0.12719         3.00604         8.45170
|146>    H       -0.25676        -7.43964        -1.07067
|147>    H       -1.26456        -7.42733        -2.51684
|148>    H       -1.90211        -8.09261        -1.01632
|149>    H       -9.37778        -1.10452        -1.49785
|150>    H       -8.82999        -1.84576        -3.00663
|151>    H       -8.61969        -0.11776        -2.75364
|152>    H       -1.85223         1.28516        -1.92312
|153>    H       -3.09886         0.53630         3.83640
|154>    H       -3.62903        -3.98660         1.91133
|155>    H       -3.62754        -4.93417         7.78803
|156> *
|157> 
|158>                          ****END OF INPUT****
================================================================================

                     *******************************
                     * Energy+Gradient Calculation *
                     *******************************

---------------------------------
CARTESIAN COORDINATES (ANGSTROEM)
---------------------------------
  C     -2.251750    2.460490   -0.135630
  C     -2.019460    3.812110   -0.531900
  C     -4.358610   -7.290320    6.379070
  C     -5.251480   -1.232290    5.986380
  C     -2.993620   -0.155680    6.272370
  C     -4.721940   -1.809730   -0.556240
  C     -2.796690   -3.418500   -0.432120
  C     -1.741480    4.205430   -1.840740
  C     -1.545820    5.530900   -2.207230
  C     -1.600990    6.592240   -1.302810
  C     -1.860940    6.220650    0.039990
  C     -2.071470    4.862980    0.411730
  C     -4.713610   -8.311410    5.499050
  C     -4.992480   -9.609050    5.904640
  C     -4.939740  -10.011700    7.238820
  C     -4.568700   -8.997340    8.156800
  C     -4.285120   -7.662750    7.743040
  N     -1.967430    6.958590    1.153240
  N     -2.218120    6.089820    2.095020
  N     -2.294560    4.839650    1.732810
  N     -4.422470   -9.043250    9.487250
  N     -4.080080   -7.828460    9.817260
  N     -3.980300   -6.962810    8.846550
  C     -1.432750    7.971610   -1.609250
  C     -1.244820    8.583680   -2.803900
  C     -5.225770  -11.312290    7.740350
  C     -5.642210  -12.426250    7.090060
  C     -3.828760   -7.468610   11.178790
  C     -2.404330    6.482850    3.457490
  C     -5.895560  -13.671740    7.810590
  N     -6.331400  -14.663820    6.937570
  C     -6.434770  -14.308630    5.632080
  S     -5.971690  -12.638780    5.381760
  C     -1.114660   10.035920   -2.897590
  N     -0.960170   10.430280   -4.223010
  C     -0.955290    9.436010   -5.146430
  S     -1.144200    7.864120   -4.399030
  C     -0.818000   11.830770   -4.539040
  O     -1.136100   10.820400   -1.976810
  C     -0.825350    9.551010   -6.506720
  C     -0.841360    8.388490   -7.305030
  C     -0.676160   10.750460   -7.224120
  C     -4.875020   -1.620890   -1.925530
  C     -6.122400   -1.387370   -2.466550
  C     -7.252920   -1.339910   -1.657180
  C     -7.093670   -1.532250   -0.292960
  C     -5.843650   -1.762660    0.256640
  C     -1.429140   -3.638560   -0.514240
  C     -0.939980   -4.890290   -0.837220
  C     -1.801130   -5.954200   -1.072020
  C     -3.169040   -5.727450   -0.982260
  C     -3.665040   -4.475870   -0.668470
  C     -5.749080   -1.541660    7.246360
  C     -7.100490   -1.443360    7.511180
  C     -7.991600   -1.026700    6.529000
  C     -7.487350   -0.710850    5.275220
  C     -6.134640   -0.812590    5.002130
  C     -3.610690    1.074490    6.444610
  C     -2.877290    2.169450    6.866680
  C     -1.519010    2.063000    7.128940
  C     -0.909680    0.824560    6.960760
  C     -1.634050   -0.270260    6.532960
  O     -5.760460  -13.855130    8.998780
  C     -6.643490  -15.976730    7.447840
  C     -6.839160  -15.086570    4.577580
  C     -6.880250  -14.530870    3.282080
  C     -7.235680  -16.433190    4.648320
  N     -0.853330    7.444870   -7.957480
  N     -0.553490   11.694220   -7.867030
  N     -7.570010  -17.531880    4.639640
  N     -6.916130  -14.082160    2.226920
  C     -9.458100   -0.937520    6.820770
  C     -0.715140    3.248690    7.568390
  C     -1.273580   -7.308770   -1.432920
  C     -8.601480   -1.087940   -2.258450
  S     -2.754210    2.114280    1.496000
  C     -2.843320    0.428560    1.143480
  C     -2.497500    0.160960   -0.172470
  C     -2.158460    1.309960   -0.894470
  C     -3.128090   -0.635660    2.050710
  C     -3.288710   -1.915070    1.487230
  C     -3.310520   -2.049130   -0.025430
  O     -2.443280   -1.090450   -0.667330
  C     -3.220270   -0.457820    3.432660
  C     -3.487770   -1.527660    4.256200
  C     -3.625080   -2.811210    3.695720
  C     -3.514960   -2.991980    2.315900
  C     -3.749250   -1.360740    5.743670
  O     -3.272490   -2.496400    6.491800
  C     -3.621970   -3.693890    5.977350
  C     -3.832360   -3.879960    4.619560
  C     -3.761000   -4.868960    6.724940
  C     -4.098130   -5.955870    5.946170
  S     -4.228100   -5.518090    4.259860
  H     -1.685970    3.451790   -2.609950
  H     -1.341470    5.735960   -3.246670
  H     -4.777960   -8.075290    4.446760
  H     -5.259210  -10.326660    5.144540
  H     -1.475140    8.641240   -0.757190
  H     -5.101980  -11.431120    8.811170
  H     -3.975980   -8.354700   11.791380
  H     -4.515590   -6.679570   11.486540
  H     -2.806580   -7.103730   11.283440
  H     -3.314920    7.075860    3.553690
  H     -1.558270    7.087440    3.783540
  H     -2.482420    5.579040    4.057310
  H     -0.851300   12.368630   -3.590950
  H     -1.632160   12.168230   -5.181190
  H      0.133320   12.021260   -5.036610
  H     -4.002200   -1.659200   -2.560470
  H     -6.225180   -1.242920   -3.532430
  H     -7.957420   -1.502260    0.355970
  H     -5.753490   -1.912970    1.322500
  H     -0.748170   -2.821730   -0.329530
  H      0.127790   -5.043970   -0.901170
  H     -3.856460   -6.542080   -1.159210
  H     -4.732380   -4.322040   -0.603870
  H     -5.065270   -1.860610    8.018990
  H     -7.470650   -1.689490    8.496120
  H     -8.159790   -0.379480    4.496790
  H     -5.770960   -0.554320    4.018380
  H     -4.666600    1.182380    6.245450
  H     -3.373960    3.120990    6.993900
  H      0.147020    0.720900    7.161860
  H     -1.148740   -1.225460    6.402450
  H     -6.459620  -15.944780    8.522270
  H     -6.006320  -16.732950    6.988440
  H     -7.688250  -16.227090    7.261390
  H     -9.969390   -0.339990    6.070260
  H     -9.629550   -0.496410    7.800660
  H     -9.899420   -1.934520    6.822320
  H     -1.359020    4.094010    7.797910
  H     -0.022780    3.545010    6.780370
  H     -0.127190    3.006040    8.451700
  H     -0.256760   -7.439640   -1.070670
  H     -1.264560   -7.427330   -2.516840
  H     -1.902110   -8.092610   -1.016320
  H     -9.377780   -1.104520   -1.497850
  H     -8.829990   -1.845760   -3.006630
  H     -8.619690   -0.117760   -2.753640
  H     -1.852230    1.285160   -1.923120
  H     -3.098860    0.536300    3.836400
  H     -3.629030   -3.986600    1.911330
  H     -3.627540   -4.934170    7.788030

----------------------------
CARTESIAN COORDINATES (A.U.)
----------------------------
  NO LB      ZA    FRAG     MASS         X           Y           Z
   0 C     6.0000    0    12.011   -4.255191    4.649652   -0.256304
   1 C     6.0000    0    12.011   -3.816226    7.203844   -1.005145
   2 C     6.0000    0    12.011   -8.236579  -13.776708   12.054695
   3 C     6.0000    0    12.011   -9.923859   -2.328691   11.312619
   4 C     6.0000    0    12.011   -5.657122   -0.294193   11.853062
   5 C     6.0000    0    12.011   -8.923173   -3.419894   -1.051141
   6 C     6.0000    0    12.011   -5.284978   -6.460029   -0.816588
   7 C     6.0000    0    12.011   -3.290920    7.947111   -3.478494
   8 C     6.0000    0    12.011   -2.921176   10.451886   -4.171060
   9 C     6.0000    0    12.011   -3.025433   12.457528   -2.461954
  10 C     6.0000    0    12.011   -3.516667   11.755325    0.075570
  11 C     6.0000    0    12.011   -3.914511    9.189700    0.778057
  12 C     6.0000    0    12.011   -8.907432  -15.706289   10.391698
  13 C     6.0000    0    12.011   -9.434420  -18.158473   11.158153
  14 C     6.0000    0    12.011   -9.334756  -18.919371   13.679387
  15 C     6.0000    0    12.011   -8.633592  -17.002509   15.414118
  16 C     6.0000    0    12.011   -8.097703  -14.480499   14.632225
  17 N     7.0000    0    14.007   -3.717904   13.149829    2.179308
  18 N     7.0000    0    14.007   -4.191639   11.508092    3.959014
  19 N     7.0000    0    14.007   -4.336090    9.145613    3.274536
  20 N     7.0000    0    14.007   -8.357257  -17.089266   17.928304
  21 N     7.0000    0    14.007   -7.710234  -14.793645   18.551933
  22 N     7.0000    0    14.007   -7.521677  -13.157804   16.717557
  23 C     6.0000    0    12.011   -2.707505   15.064160   -3.041042
  24 C     6.0000    0    12.011   -2.352369   16.220804   -5.298603
  25 C     6.0000    0    12.011   -9.875274  -21.377130   14.627142
  26 C     6.0000    0    12.011  -10.662232  -23.482209   13.398272
  27 C     6.0000    0    12.011   -7.235308  -14.113628   21.124852
  28 C     6.0000    0    12.011   -4.543525   12.250811    6.533709
  29 C     6.0000    0    12.011  -11.140994  -25.835844   14.759876
  30 N     7.0000    0    14.007  -11.964612  -27.710604   13.110107
  31 C     6.0000    0    12.011  -12.159953  -27.039392   10.643089
  32 S    16.0000    0    32.060  -11.284859  -23.883833   10.170053
  33 C     6.0000    0    12.011   -2.106402   18.965140   -5.475652
  34 N     7.0000    0    14.007   -1.814458   19.710373   -7.980332
  35 C     6.0000    0    12.011   -1.805236   17.831475   -9.725343
  36 S    16.0000    0    32.060   -2.162225   14.861033   -8.312962
  37 C     6.0000    0    12.011   -1.545796   22.356915   -8.577543
  38 O     8.0000    0    15.999   -2.146918   20.447593   -3.735630
  39 C     6.0000    0    12.011   -1.559685   18.048793  -12.295919
  40 C     6.0000    0    12.011   -1.589940   15.851949  -13.804506
  41 C     6.0000    0    12.011   -1.277757   20.315425  -13.651608
  42 C     6.0000    0    12.011   -9.212453   -3.063038   -3.638724
  43 C     6.0000    0    12.011  -11.569659   -2.621749   -4.661104
  44 C     6.0000    0    12.011  -13.706032   -2.532063   -3.131616
  45 C     6.0000    0    12.011  -13.405094   -2.895533   -0.553614
  46 C     6.0000    0    12.011  -11.042898   -3.330945    0.484979
  47 C     6.0000    0    12.011   -2.700683   -6.875882   -0.971773
  48 C     6.0000    0    12.011   -1.776305   -9.241309   -1.582117
  49 C     6.0000    0    12.011   -3.403642  -11.251807   -2.025824
  50 C     6.0000    0    12.011   -5.988618  -10.823312   -1.856202
  51 C     6.0000    0    12.011   -6.925922   -8.458169   -1.263225
  52 C     6.0000    0    12.011  -10.864187   -2.913315   13.693636
  53 C     6.0000    0    12.011  -13.417982   -2.727555   14.194073
  54 C     6.0000    0    12.011  -15.101935   -1.940182   12.338022
  55 C     6.0000    0    12.011  -14.149041   -1.343312    9.968721
  56 C     6.0000    0    12.011  -11.592790   -1.535573    9.452656
  57 C     6.0000    0    12.011   -6.823215    2.030492   12.178548
  58 C     6.0000    0    12.011   -5.437290    4.099666   12.976145
  59 C     6.0000    0    12.011   -2.870513    3.898505   13.471744
  60 C     6.0000    0    12.011   -1.719046    1.558193   13.153930
  61 C     6.0000    0    12.011   -3.087907   -0.510717   12.345505
  62 O     8.0000    0    15.999  -10.885692  -26.182401   17.005230
  63 C     6.0000    0    12.011  -12.554377  -30.191644   14.074378
  64 C     6.0000    0    12.011  -12.924139  -28.509486    8.650373
  65 C     6.0000    0    12.011  -13.001788  -27.459365    6.202232
  66 C     6.0000    0    12.011  -13.673454  -31.054229    8.784052
  67 N     7.0000    0    14.007   -1.612560   14.068765  -15.037458
  68 N     7.0000    0    14.007   -1.045945   22.098873  -14.866532
  69 N     7.0000    0    14.007  -14.305246  -33.130452    8.767649
  70 N     7.0000    0    14.007  -13.069592  -26.611426    4.208269
  71 C     6.0000    0    12.011  -17.873219   -1.771656   12.889387
  72 C     6.0000    0    12.011   -1.351419    6.139134   14.302184
  73 C     6.0000    0    12.011   -2.406717  -13.811574   -2.707826
  74 C     6.0000    0    12.011  -16.254442   -2.055909   -4.267852
  75 S    16.0000    0    32.060   -5.204703    3.995410    2.827030
  76 C     6.0000    0    12.011   -5.373096    0.809861    2.160864
  77 C     6.0000    0    12.011   -4.719591    0.304170   -0.325921
  78 C     6.0000    0    12.011   -4.078898    2.475466   -1.690303
  79 C     6.0000    0    12.011   -5.911233   -1.201223    3.875280
  80 C     6.0000    0    12.011   -6.214761   -3.618958    2.810457
  81 C     6.0000    0    12.011   -6.255976   -3.872295   -0.048056
  82 O     8.0000    0    15.999   -4.617130   -2.060652   -1.261071
  83 C     6.0000    0    12.011   -6.085428   -0.865154    6.486787
  84 C     6.0000    0    12.011   -6.590930   -2.886859    8.043052
  85 C     6.0000    0    12.011   -6.850408   -5.312417    6.983899
  86 C     6.0000    0    12.011   -6.642312   -5.654023    4.376417
  87 C     6.0000    0    12.011   -7.085056   -2.571426   10.853963
  88 O     8.0000    0    15.999   -6.184110   -4.717512   12.267724
  89 C     6.0000    0    12.011   -6.844531   -6.980440   11.295555
  90 C     6.0000    0    12.011   -7.242111   -7.332062    8.729703
  91 C     6.0000    0    12.011   -7.107260   -9.201001   12.708295
  92 C     6.0000    0    12.011   -7.744343  -11.254963   11.236633
  93 S    16.0000    0    32.060   -7.989951  -10.427679    8.049969
  94 H     1.0000    0     1.008   -3.186022    6.522938   -4.932091
  95 H     1.0000    0     1.008   -2.535011   10.839394   -6.135317
  96 H     1.0000    0     1.008   -9.029036  -15.260087    8.403159
  97 H     1.0000    0     1.008   -9.938467  -19.514559    9.721772
  98 H     1.0000    0     1.008   -2.787611   16.329577   -1.430882
  99 H     1.0000    0     1.008   -9.641345  -21.601686   16.650698
 100 H     1.0000    0     1.008   -7.513513  -15.788095   22.282479
 101 H     1.0000    0     1.008   -8.533228  -12.622558   21.706415
 102 H     1.0000    0     1.008   -5.303668  -13.424104   21.322611
 103 H     1.0000    0     1.008   -6.264291   13.371438    6.715501
 104 H     1.0000    0     1.008   -2.944704   13.393321    7.149854
 105 H     1.0000    0     1.008   -4.691094   10.542858    7.667205
 106 H     1.0000    0     1.008   -1.608724   23.373323   -6.785912
 107 H     1.0000    0     1.008   -3.084335   22.994622   -9.791030
 108 H     1.0000    0     1.008    0.251938   22.716889   -9.517814
 109 H     1.0000    0     1.008   -7.563062   -3.135434   -4.838587
 110 H     1.0000    0     1.008  -11.763885   -2.348778   -6.675325
 111 H     1.0000    0     1.008  -15.037345   -2.838860    0.672686
 112 H     1.0000    0     1.008  -10.872520   -3.614989    2.499163
 113 H     1.0000    0     1.008   -1.413836   -5.332297   -0.622721
 114 H     1.0000    0     1.008    0.241488   -9.531722   -1.702965
 115 H     1.0000    0     1.008   -7.287653  -12.362740   -2.190589
 116 H     1.0000    0     1.008   -8.942902   -8.167472   -1.141149
 117 H     1.0000    0     1.008   -9.571973   -3.516043   15.153695
 118 H     1.0000    0     1.008  -14.117483   -3.192673   16.055340
 119 H     1.0000    0     1.008  -15.419768   -0.717113    8.497702
 120 H     1.0000    0     1.008  -10.905534   -1.047513    7.593638
 121 H     1.0000    0     1.008   -8.818596    2.234374   11.802190
 122 H     1.0000    0     1.008   -6.375860    5.897816   13.216556
 123 H     1.0000    0     1.008    0.277828    1.362304   13.533954
 124 H     1.0000    0     1.008   -2.170804   -2.315784   12.098877
 125 H     1.0000    0     1.008  -12.206913  -30.131267   16.104756
 126 H     1.0000    0     1.008  -11.350300  -31.620693   13.206238
 127 H     1.0000    0     1.008  -14.528687  -30.664756   13.722038
 128 H     1.0000    0     1.008  -18.839417   -0.642488   11.471129
 129 H     1.0000    0     1.008  -18.197212   -0.938079   14.741111
 130 H     1.0000    0     1.008  -18.707193   -3.655713   12.892316
 131 H     1.0000    0     1.008   -2.568176    7.736558   14.735914
 132 H     1.0000    0     1.008   -0.043048    6.699098   12.813042
 133 H     1.0000    0     1.008   -0.240354    5.680592   15.971398
 134 H     1.0000    0     1.008   -0.485206  -14.058882   -2.023273
 135 H     1.0000    0     1.008   -2.389672  -14.035620   -4.756138
 136 H     1.0000    0     1.008   -3.594467  -15.292817   -1.920566
 137 H     1.0000    0     1.008  -17.721436   -2.087240   -2.830526
 138 H     1.0000    0     1.008  -16.686263   -3.487981   -5.681707
 139 H     1.0000    0     1.008  -16.288853   -0.222534   -5.203625
 140 H     1.0000    0     1.008   -3.500207    2.428600   -3.634170
 141 H     1.0000    0     1.008   -5.855997    1.013460    7.249745
 142 H     1.0000    0     1.008   -6.857873   -7.533582    3.611890
 143 H     1.0000    0     1.008   -6.855057   -9.324230   14.717244

--------------------------------
INTERNAL COORDINATES (ANGSTROEM)
--------------------------------
 C      0   0   0     0.000000000000     0.00000000     0.00000000
 C      1   0   0     1.427538154096     0.00000000     0.00000000
 C      1   2   0    11.914632634106   162.82772572     0.00000000
 C      3   1   2     6.136053271762    35.19006676    29.52408763
 C      4   3   1     2.517699575366   106.52389041   292.78778573
 C      1   2   3     4.951114041971   150.95174265   127.67969464
 C      6   1   2     2.511998059275    99.54266719   137.04528843
 C      2   1   3     1.394645348610   124.05357081   176.59944029
 C      8   2   1     1.389053086315   123.01077851   178.64145600
 C      9   8   2     1.395514908878   123.30950408     0.36919495
 C     10   9   8     1.417309059662   114.95292116     0.62063393
 C      2   1   3     1.413318921511   120.84241468   356.04667091
 C      3   1   2     1.393945834134   107.41716851   166.36720500
 C     13   3   1     1.387854925632   123.47530057   178.03962012
 C     14  13   3     1.394612778695   122.81514522   359.87392463
 C     15  14  13     1.417492212183   115.01385042   359.53997992
 C      3   1   2     1.415810384868   137.12671282   343.04667829
 N     11  10   9     1.339858621721   131.09966204   179.25367375
 N     18  11  10     1.305586595136   104.36614769   179.77826080
 N     19  18  11     1.303826747156   116.67338936   359.88241452
 N     16  15  14     1.339249096882   130.34610895   180.07863311
 N     21  16  15     1.304550595531   104.36167095   180.46001105
 N     22  21  16     1.304447727968   116.72971618     0.06060134
 C     10   9   8     1.422979890265   126.36929271   181.08422756
 C     24  10   9     1.355409898260   130.08610178     3.16138185
 C     15  14  13     1.422982730008   126.40297661   179.15715778
 C     26  15  14     1.355435811575   130.07742509   357.77031684
 C     22  21  16     1.430530567936   121.40727458   180.00484774
 C     19  18  11     1.430199722381   121.95962121   180.04675295
 C     27  26  15     1.461025339787   121.14979269   180.76676203
 N     30  27  26     1.391525476734   110.65105886   179.08423892
 C     31  30  27     1.356889617139   116.15830940     0.10252196
 S     32  31  30     1.750857564538   111.53451096     0.17333893
 C     25  24  10     1.461068259631   121.17927976   178.98062785
 N     34  25  24     1.391447140965   110.65114933   181.33379955
 C     35  34  25     1.356945519798   116.16475788   359.83744011
 S     36  35  34     1.750751815707   111.52875847   359.73891748
 C     35  34  25     1.442726415472   119.65110036   179.81699064
 O     34  25  24     1.209836498210   126.44977545     1.17479018
 C     36  35  34     1.371312614869   127.87473005   179.72920458
 C     40  36  35     1.410321923037   119.42581032   179.84652093
 C     40  36  35     1.405560642093   126.00956104   359.60804523
 C      6   1   2     1.390700951355    91.22901403    33.94119825
 C     43   6   1     1.379561921481   120.57344773   247.63537627
 C     44  43   6     1.391189318138   120.82282261   359.79271693
 C     45  44  43     1.386885520330   118.30942881     0.04986400
 C     46  45  44     1.384810069468   121.13896209     0.16586936
 C      7   6   1     1.387574538719   148.65005412   343.32305430
 C     48   7   6     1.382180009586   120.41450214   204.78425028
 C     49  48   7     1.388745783288   120.92027997   359.32501867
 C     50  49  48     1.389478387094   118.32841762     0.38828142
 C     51  50  49     1.382364879654   121.04097668     0.04982910
 C      4   3   1     1.389555740983    76.95418737   187.31598394
 C     53   4   3     1.380616351671   120.57055708   247.92289130
 C     54  53   4     1.390093572426   120.88366970   359.63628927
 C     55  54  53     1.387801705360   118.26960327   359.94464289
 C     56  55  54     1.383746190528   121.11503733     0.32112953
 C      5   4   3     1.386996839001    89.67864977   193.02032314
 C     58   5   4     1.383819369174   120.25708452   170.18347031
 C     59  58   5     1.387456834824   121.04974071   359.82824671
 C     60  59  58     1.390432017360   118.32603394   359.82444278
 C     61  60  59     1.380708357800   120.91910120     0.52937917
 O     30  27  26     1.209826176854   126.45599968   359.23037025
 C     31  30  27     1.442743327519   119.64637247   180.20382413
 C     32  31  30     1.371383303712   127.86305291   180.16635816
 C     65  32  31     1.410252150539   119.43448201   180.01083964
 C     65  32  31     1.405566676611   126.01268932     0.10075964
 N     41  40  36     1.147280692682   179.80899186   189.38031035
 N     42  40  36     1.148505173954   176.63940854   181.47136183
 N     67  65  32     1.148464891671   176.64203511   179.84908937
 N     66  65  32     1.147166362870   179.78308273   195.64762049
 C     55  54  53     1.497900215402   120.51892763   179.31918114
 C     60  59  58     1.498393825234   121.32762116   179.16284749
 C     50  49  48     1.497804292089   121.00852483   179.50438336
 C     45  44  43     1.497874683477   120.25333265   180.11147222
 S      1   2   3     1.741994222895   119.67714937     9.82808948
 C     76   1   2     1.724489159403    91.01482609   178.58352558
 C     77  76   1     1.386695941762   111.69975120     0.08380118
 C      1   2   3     1.381398005862   128.68980016   188.48982417
 C     77  76   1     1.427138547654   127.53881784   175.51708790
 C     80  77  76     1.407195239794   116.50080145   173.19762130
 C      7   6   1     1.518088344564    34.52591869    27.60879791
 O     78  77  76     1.346793679856   122.55026809   177.40540748
 C     80  77  76     1.396391786176   123.18376079   351.81857917
 C     84  80  77     1.376347342498   120.39766465   180.50579675
 C     85  84  80     1.407299708307   119.31508649     2.02837218
 C     81  80  77     1.377540627169   119.25114457   177.56669844
 C      5   4   3     1.517455103290    34.33766478    32.82496732
 O     88   5   4     1.441083699894   106.27247593   242.49724811
 C     89  88   5     1.349361839167   114.56668705   193.17651987
 C     90  89  88     1.386535135184   122.12333989    28.96462791
 C     90  89  88     1.399646260274   124.55132041   206.51935404
 C     92  90  89     1.378953479237   112.60507383   181.33870210
 S     91  90  89     1.723213316598   111.52020289   178.60840871
 H      8   2   1     1.078303590739   118.85636236   359.37735223
 H      9   8   2     1.079001408572   117.52862273   180.35241799
 H     13   3   1     1.080373926472   118.03295346   357.78012597
 H     14  13   3     1.078823903610   117.75655712   179.92886510
 H     24  10   9     1.084531001217   115.13190493   182.18093837
 H     26  15  14     1.084481445392   115.16422032   178.48253058
 H     28  22  21     1.087242256629   107.90615025     0.07020278
 H     28  22  21     1.090426353772   109.87573310   239.88406659
 H     28  22  21     1.090385706665   109.89008560   120.27652373
 H     29  19  18     1.090912209208   110.00288529    66.42171270
 H     29  19  18     1.089795941541   109.65725581   306.96743941
 H     29  19  18     1.087545215888   107.84151278   186.47683732
 H     38  35  34     1.090539736873   106.57797926     0.60394540
 H     38  35  34     1.090455125028   110.84420585   241.32488128
 H     38  35  34     1.090354111012   110.82583164   119.92228253
 H     43   6   1     1.080014449950   119.01737296    67.60637987
 H     44  43   6     1.080522885135   119.70201304   180.02122567
 H     46  45  44     1.080774540550   119.66984240   180.14611610
 H     47  46  45     1.080175662242   119.34808244   180.26672033
 H     48   7   6     1.079374436375   119.44865790    24.41302285
 H     49  48   7     1.080666423000   119.49161728   179.74170439
 H     51  50  49     1.080499697270   119.51918808   180.12537340
 H     52  51  50     1.080301580347   119.80157144   180.00699929
 H     53   4   3     1.079945524321   119.19143350    67.94026724
 H     54  53   4     1.080604093135   119.59838539   179.89404335
 H     56  55  54     1.080710366102   119.63276057   180.32380909
 H     57  56  55     1.080153043693   119.42624586   180.34975094
 H     58   5   4     1.079930963442   120.04681683   349.92946322
 H     59  58   5     1.080876676083   119.27137504   179.88719009
 H     61  60  59     1.080648645768   119.43581778   180.12023736
 H     62  61  60     1.079335766201   120.21938892   179.75590703
 H     64  31  30     1.090517677207   106.57848629   359.81541822
 H     64  31  30     1.090368129257   110.83701884   240.51291395
 H     64  31  30     1.090397720880   110.83810575   119.10728111
 H     72  55  54     1.087071674316   111.02181501   163.72369299
 H     72  55  54     1.088190032439   110.71909367    42.56953333
 H     72  55  54     1.090309472077   110.00585731   283.52774544
 H     73  60  59     1.087118570902   111.06773045     9.36878206
 H     73  60  59     1.090019922937   110.11208496   249.14694453
 H     73  60  59     1.088485544736   110.57191449   130.23749611
 H     74  50  49     1.087324667153   110.97445469    24.47109273
 H     74  50  49     1.090422120282   109.92320465   264.96755520
 H     74  50  49     1.087662937909   110.84994205   145.78098502
 H     75  45  44     1.086935576012   111.07265926   178.68635873
 H     75  45  44     1.089165407502   110.33997310    58.09944647
 H     75  45  44     1.089400740132   110.32365330   299.22386522
 H     79   1   2     1.073551431185   124.39227536     2.20827311
 H     84  80  77     1.079824499676   118.67584520     1.80927321
 H     87  81  80     1.079795255685   120.80113550   180.79989949
 H     92  90  89     1.073417096845   124.58591599     1.57256454

---------------------------
INTERNAL COORDINATES (A.U.)
---------------------------
 C      0   0   0     0.000000000000     0.00000000     0.00000000
 C      1   0   0     2.697656156965     0.00000000     0.00000000
 C      1   2   0    22.515392664741   162.82772572     0.00000000
 C      3   1   2    11.595460226781    35.19006676    29.52408763
 C      4   3   1     4.757762684932   106.52389041   292.78778573
 C      1   2   3     9.356249597137   150.95174265   127.67969464
 C      6   1   2     4.746988380971    99.54266719   137.04528843
 C      2   1   3     2.635497762820   124.05357081   176.59944029
 C      8   2   1     2.624929918613   123.01077851   178.64145600
 C      9   8   2     2.637140993583   123.30950408     0.36919495
 C     10   9   8     2.678325969887   114.95292116     0.62063393
 C      2   1   3     2.670785701544   120.84241468   356.04667091
 C      3   1   2     2.634175872034   107.41716851   166.36720500
 C     13   3   1     2.622665723057   123.47530057   178.03962012
 C     14  13   3     2.635436214601   122.81514522   359.87392463
 C     15  14  13     2.678672077992   115.01385042   359.53997992
 C      3   1   2     2.675493884962   137.12671282   343.04667829
 N     11  10   9     2.531965853226   131.09966204   179.25367375
 N     18  11  10     2.467201108927   104.36614769   179.77826080
 N     19  18  11     2.463875478207   116.67338936   359.88241452
 N     16  15  14     2.530814018209   130.34610895   180.07863311
 N     21  16  15     2.465243353397   104.36167095   180.46001105
 N     22  21  16     2.465048961875   116.72971618     0.06060134
 C     10   9   8     2.689042286679   126.36929271   181.08422756
 C     24  10   9     2.561353506917   130.08610178     3.16138185
 C     15  14  13     2.689047653014   126.40297661   179.15715778
 C     26  15  14     2.561402475986   130.07742509   357.77031684
 C     22  21  16     2.703310999602   121.40727458   180.00484774
 C     19  18  11     2.702685792111   121.95962121   180.04675295
 C     27  26  15     2.760937766917   121.14979269   180.76676203
 N     30  27  26     2.629602059402   110.65105886   179.08423892
 C     31  30  27     2.564149770354   116.15830940     0.10252196
 S     32  31  30     3.308641296481   111.53451096     0.17333893
 C     25  24  10     2.761018873667   121.17927976   178.98062785
 N     34  25  24     2.629454026252   110.65114933   181.33379955
 C     35  34  25     2.564255411070   116.16475788   359.83744011
 S     36  35  34     3.308441460151   111.52875847   359.73891748
 C     35  34  25     2.726357811416   119.65110036   179.81699064
 O     34  25  24     2.286259648438   126.44977545     1.17479018
 C     36  35  34     2.591405286095   127.87473005   179.72920458
 C     40  36  35     2.665122195206   119.42581032   179.84652093
 C     40  36  35     2.656124678174   126.00956104   359.60804523
 C      6   1   2     2.628043932245    91.22901403    33.94119825
 C     43   6   1     2.606994216385   120.57344773   247.63537627
 C     44  43   6     2.628966811717   120.82282261   359.79271693
 C     45  44  43     2.620833812524   118.30942881     0.04986400
 C     46  45  44     2.616911778791   121.13896209     0.16586936
 C      7   6   1     2.622135868580   148.65005412   343.32305430
 C     48   7   6     2.611941685899   120.41450214   204.78425028
 C     49  48   7     2.624349200052   120.92027997   359.32501867
 C     50  49  48     2.625733620609   118.32841762     0.38828142
 C     51  50  49     2.612291039697   121.04097668     0.04982910
 C      4   3   1     2.625879798277    76.95418737   187.31598394
 C     53   4   3     2.608986800671   120.57055708   247.92289130
 C     54  53   4     2.626896152409   120.88366970   359.63628927
 C     55  54  53     2.622565151319   118.26960327   359.94464289
 C     56  55  54     2.614901338954   121.11503733     0.32112953
 C      5   4   3     2.621044174327    89.67864977   193.02032314
 C     58   5   4     2.615039626554   120.25708452   170.18347031
 C     59  58   5     2.621913440455   121.04974071   359.82824671
 C     60  59  58     2.627535720646   118.32603394   359.82444278
 C     61  60  59     2.609160667059   120.91910120     0.52937917
 O     30  27  26     2.286240143902   126.45599968   359.23037025
 C     31  30  27     2.726389770553   119.64637247   180.20382413
 C     32  31  30     2.591538868648   127.86305291   180.16635816
 C     65  32  31     2.664990344292   119.43448201   180.01083964
 C     65  32  31     2.656136081761   126.01268932     0.10075964
 N     41  40  36     2.168046307904   179.80899186   189.38031035
 N     42  40  36     2.170360242165   176.63940854   181.47136183
 N     67  65  32     2.170284119681   176.64203511   179.84908937
 N     66  65  32     2.167830255871   179.78308273   195.64762049
 C     55  54  53     2.830621183051   120.51892763   179.31918114
 C     60  59  58     2.831553970451   121.32762116   179.16284749
 C     50  49  48     2.830439914260   121.00852483   179.50438336
 C     45  44  43     2.830572934705   120.25333265   180.11147222
 S      1   2   3     3.291892008145   119.67714937     9.82808948
 C     76   1   2     3.258812232189    91.01482609   178.58352558
 C     77  76   1     2.620475560951   111.69975120     0.08380118
 C      1   2   3     2.610463913024   128.68980016   188.48982417
 C     77  76   1     2.696901010228   127.53881784   175.51708790
 C     80  77  76     2.659213620169   116.50080145   173.19762130
 C      7   6   1     2.868771218323    34.52591869    27.60879791
 O     78  77  76     2.545071213824   122.55026809   177.40540748
 C     80  77  76     2.638798051530   123.18376079   351.81857917
 C     84  80  77     2.600919542471   120.39766465   180.50579675
 C     85  84  80     2.659411037047   119.31508649     2.02837218
 C     81  80  77     2.603174523699   119.25114457   177.56669844
 C      5   4   3     2.867574565739    34.33766478    32.82496732
 O     88   5   4     2.723253528858   106.27247593   242.49724811
 C     89  88   5     2.549924331590   114.56668705   193.17651987
 C     90  89  88     2.620171680557   122.12333989    28.96462791
 C     90  89  88     2.644948116286   124.55132041   206.51935404
 C     92  90  89     2.605844427176   112.60507383   181.33870210
 S     91  90  89     3.256401238696   111.52020289   178.60840871
 H      8   2   1     2.037698475720   118.85636236   359.37735223
 H      9   8   2     2.039017160316   117.52862273   180.35241799
 H     13   3   1     2.041610843261   118.03295346   357.78012597
 H     14  13   3     2.038681724550   117.75655712   179.92886510
 H     24  10   9     2.049466576047   115.13190493   182.18093837
 H     26  15  14     2.049372929110   115.16422032   178.48253058
 H     28  22  21     2.054590106256   107.90615025     0.07020278
 H     28  22  21     2.060607177839   109.87573310   239.88406659
 H     28  22  21     2.060530365940   109.89008560   120.27652373
 H     29  19  18     2.061525311555   110.00288529    66.42171270
 H     29  19  18     2.059415871372   109.65725581   306.96743941
 H     29  19  18     2.055162616284   107.84151278   186.47683732
 H     38  35  34     2.060821440849   106.57797926     0.60394540
 H     38  35  34     2.060661547634   110.84420585   241.32488128
 H     38  35  34     2.060470658807   110.82583164   119.92228253
 H     43   6   1     2.040931531082   119.01737296    67.60637987
 H     44  43   6     2.041892334339   119.70201304   180.02122567
 H     46  45  44     2.042367894153   119.66984240   180.14611610
 H     47  46  45     2.041236178164   119.34808244   180.26672033
 H     48   7   6     2.039722080704   119.44865790    24.41302285
 H     49  48   7     2.042163581595   119.49161728   179.74170439
 H     51  50  49     2.041848515625   119.51918808   180.12537340
 H     52  51  50     2.041474128898   119.80157144   180.00699929
 H     53   4   3     2.040801280520   119.19143350    67.94026724
 H     54  53   4     2.042045795219   119.59838539   179.89404335
 H     56  55  54     2.042246622022   119.63276057   180.32380909
 H     57  56  55     2.041193435302   119.42624586   180.34975094
 H     58   5   4     2.040773764446   120.04681683   349.92946322
 H     59  58   5     2.042560902340   119.27137504   179.88719009
 H     61  60  59     2.042129987494   119.43581778   180.12023736
 H     62  61  60     2.039649004665   120.21938892   179.75590703
 H     64  31  30     2.060779754120   106.57848629   359.81541822
 H     64  31  30     2.060497149452   110.83701884   240.51291395
 H     64  31  30     2.060553069515   110.83810575   119.10728111
 H     72  55  54     2.054267752400   111.02181501   163.72369299
 H     72  55  54     2.056381142973   110.71909367    42.56953333
 H     72  55  54     2.060386303445   110.00585731   283.52774544
 H     73  60  59     2.054356374105   111.06773045     9.36878206
 H     73  60  59     2.059839134869   110.11208496   249.14694453
 H     73  60  59     2.056939580284   110.57191449   130.23749611
 H     74  50  49     2.054745839577   110.97445469    24.47109273
 H     74  50  49     2.060599177702   109.92320465   264.96755520
 H     74  50  49     2.055385078663   110.84994205   145.78098502
 H     75  45  44     2.054010563878   111.07265926   178.68635873
 H     75  45  44     2.058224334720   110.33997310    58.09944647
 H     75  45  44     2.058669048940   110.32365330   299.22386522
 H     79   1   2     2.028718195619   124.39227536     2.20827311
 H     84  80  77     2.040572577086   118.67584520     1.80927321
 H     87  81  80     2.040517313952   120.80113550   180.79989949
 H     92  90  89     2.028464340507   124.58591599     1.57256454

---------------------
BASIS SET INFORMATION
---------------------
There are 5 groups of distinct atoms

 Group   1 Type C   : 7s4p1d contracted to 3s2p1d pattern {511/31/1}
 Group   2 Type N   : 7s4p1d contracted to 3s2p1d pattern {511/31/1}
 Group   3 Type S   : 10s7p1d contracted to 4s3p1d pattern {5311/511/1}
 Group   4 Type O   : 7s4p1d contracted to 3s2p1d pattern {511/31/1}
 Group   5 Type H   : 4s1p contracted to 2s1p pattern {31/1}

Atom   0C    basis set group =>   1
Atom   1C    basis set group =>   1
Atom   2C    basis set group =>   1
Atom   3C    basis set group =>   1
Atom   4C    basis set group =>   1
Atom   5C    basis set group =>   1
Atom   6C    basis set group =>   1
Atom   7C    basis set group =>   1
Atom   8C    basis set group =>   1
Atom   9C    basis set group =>   1
Atom  10C    basis set group =>   1
Atom  11C    basis set group =>   1
Atom  12C    basis set group =>   1
Atom  13C    basis set group =>   1
Atom  14C    basis set group =>   1
Atom  15C    basis set group =>   1
Atom  16C    basis set group =>   1
Atom  17N    basis set group =>   2
Atom  18N    basis set group =>   2
Atom  19N    basis set group =>   2
Atom  20N    basis set group =>   2
Atom  21N    basis set group =>   2
Atom  22N    basis set group =>   2
Atom  23C    basis set group =>   1
Atom  24C    basis set group =>   1
Atom  25C    basis set group =>   1
Atom  26C    basis set group =>   1
Atom  27C    basis set group =>   1
Atom  28C    basis set group =>   1
Atom  29C    basis set group =>   1
Atom  30N    basis set group =>   2
Atom  31C    basis set group =>   1
Atom  32S    basis set group =>   3
Atom  33C    basis set group =>   1
Atom  34N    basis set group =>   2
Atom  35C    basis set group =>   1
Atom  36S    basis set group =>   3
Atom  37C    basis set group =>   1
Atom  38O    basis set group =>   4
Atom  39C    basis set group =>   1
Atom  40C    basis set group =>   1
Atom  41C    basis set group =>   1
Atom  42C    basis set group =>   1
Atom  43C    basis set group =>   1
Atom  44C    basis set group =>   1
Atom  45C    basis set group =>   1
Atom  46C    basis set group =>   1
Atom  47C    basis set group =>   1
Atom  48C    basis set group =>   1
Atom  49C    basis set group =>   1
Atom  50C    basis set group =>   1
Atom  51C    basis set group =>   1
Atom  52C    basis set group =>   1
Atom  53C    basis set group =>   1
Atom  54C    basis set group =>   1
Atom  55C    basis set group =>   1
Atom  56C    basis set group =>   1
Atom  57C    basis set group =>   1
Atom  58C    basis set group =>   1
Atom  59C    basis set group =>   1
Atom  60C    basis set group =>   1
Atom  61C    basis set group =>   1
Atom  62O    basis set group =>   4
Atom  63C    basis set group =>   1
Atom  64C    basis set group =>   1
Atom  65C    basis set group =>   1
Atom  66C    basis set group =>   1
Atom  67N    basis set group =>   2
Atom  68N    basis set group =>   2
Atom  69N    basis set group =>   2
Atom  70N    basis set group =>   2
Atom  71C    basis set group =>   1
Atom  72C    basis set group =>   1
Atom  73C    basis set group =>   1
Atom  74C    basis set group =>   1
Atom  75S    basis set group =>   3
Atom  76C    basis set group =>   1
Atom  77C    basis set group =>   1
Atom  78C    basis set group =>   1
Atom  79C    basis set group =>   1
Atom  80C    basis set group =>   1
Atom  81C    basis set group =>   1
Atom  82O    basis set group =>   4
Atom  83C    basis set group =>   1
Atom  84C    basis set group =>   1
Atom  85C    basis set group =>   1
Atom  86C    basis set group =>   1
Atom  87C    basis set group =>   1
Atom  88O    basis set group =>   4
Atom  89C    basis set group =>   1
Atom  90C    basis set group =>   1
Atom  91C    basis set group =>   1
Atom  92C    basis set group =>   1
Atom  93S    basis set group =>   3
Atom  94H    basis set group =>   5
Atom  95H    basis set group =>   5
Atom  96H    basis set group =>   5
Atom  97H    basis set group =>   5
Atom  98H    basis set group =>   5
Atom  99H    basis set group =>   5
Atom 100H    basis set group =>   5
Atom 101H    basis set group =>   5
Atom 102H    basis set group =>   5
Atom 103H    basis set group =>   5
Atom 104H    basis set group =>   5
Atom 105H    basis set group =>   5
Atom 106H    basis set group =>   5
Atom 107H    basis set group =>   5
Atom 108H    basis set group =>   5
Atom 109H    basis set group =>   5
Atom 110H    basis set group =>   5
Atom 111H    basis set group =>   5
Atom 112H    basis set group =>   5
Atom 113H    basis set group =>   5
Atom 114H    basis set group =>   5
Atom 115H    basis set group =>   5
Atom 116H    basis set group =>   5
Atom 117H    basis set group =>   5
Atom 118H    basis set group =>   5
Atom 119H    basis set group =>   5
Atom 120H    basis set group =>   5
Atom 121H    basis set group =>   5
Atom 122H    basis set group =>   5
Atom 123H    basis set group =>   5
Atom 124H    basis set group =>   5
Atom 125H    basis set group =>   5
Atom 126H    basis set group =>   5
Atom 127H    basis set group =>   5
Atom 128H    basis set group =>   5
Atom 129H    basis set group =>   5
Atom 130H    basis set group =>   5
Atom 131H    basis set group =>   5
Atom 132H    basis set group =>   5
Atom 133H    basis set group =>   5
Atom 134H    basis set group =>   5
Atom 135H    basis set group =>   5
Atom 136H    basis set group =>   5
Atom 137H    basis set group =>   5
Atom 138H    basis set group =>   5
Atom 139H    basis set group =>   5
Atom 140H    basis set group =>   5
Atom 141H    basis set group =>   5
Atom 142H    basis set group =>   5
Atom 143H    basis set group =>   5
------------------------------------------------------------------------------
                           ORCA GTO INTEGRAL CALCULATION
------------------------------------------------------------------------------

                         BASIS SET STATISTICS AND STARTUP INFO

 # of primitive gaussian shells          ... 1402
 # of primitive gaussian functions       ... 2654
 # of contracted shells                  ...  722
 # of contracted basis functions         ... 1582
 Highest angular momentum                ...    2
 Maximum contraction depth               ...    5
 Integral package used                   ... LIBINT
 Integral threshhold            Thresh   ...  2.500e-11
 Primitive cut-off              TCut     ...  2.500e-12


------------------------------ INTEGRAL EVALUATION ----------------------------


 * One electron integrals 
 Pre-screening matrix                    ... done
 Shell pair data                         ... done (   0.026 sec)

-------------------------------------------------------------------------------
                                 ORCA SCF
-------------------------------------------------------------------------------

------------
SCF SETTINGS
------------
Hamiltonian:
 Ab initio Hamiltonian  Method          .... Hartree-Fock(GTOs)


General Settings:
 Integral files         IntName         .... BTA53
 Hartree-Fock type      HFTyp           .... RHF
 Total Charge           Charge          ....    0
 Multiplicity           Mult            ....    1
 Number of Electrons    NEL             ....  674
 Basis Dimension        Dim             .... 1582
 Nuclear Repulsion      ENuc            ....  16240.1607533844 Eh

Convergence Acceleration:
 DIIS                   CNVDIIS         .... on
   Start iteration      DIISMaxIt       ....    12
   Startup error        DIISStart       ....  0.200000
   # of expansion vecs  DIISMaxEq       ....     5
   Bias factor          DIISBfac        ....   1.050
   Max. coefficient     DIISMaxC        ....  10.000
 Newton-Raphson         CNVNR           .... off
 SOSCF                  CNVSOSCF        .... on
   Start iteration      SOSCFMaxIt      ....   150
   Startup grad/error   SOSCFStart      ....  0.003300
 Level Shifting         CNVShift        .... on
   Level shift para.    LevelShift      ....    0.2500
   Turn off err/grad.   ShiftErr        ....    0.0010
 Zerner damping         CNVZerner       .... off
 Static damping         CNVDamp         .... on
   Fraction old density DampFac         ....    0.7000
   Max. Damping (<1)    DampMax         ....    0.9800
   Min. Damping (>=0)   DampMin         ....    0.0000
   Turn off err/grad.   DampErr         ....    0.1000
 Fernandez-Rico         CNVRico         .... off

SCF Procedure:
 Maximum # iterations   MaxIter         ....   125
 SCF integral mode      SCFMode         .... Direct
   Integral package                     .... LIBINT
 Reset frequency        DirectResetFreq ....    20
 Integral Threshold     Thresh          ....  2.500e-11 Eh
 Primitive CutOff       TCut            ....  2.500e-12 Eh

Convergence Tolerance:
 Convergence Check Mode ConvCheckMode   .... Total+1el-Energy
 Convergence forced     ConvForced      .... 1
 Energy Change          TolE            ....  1.000e-08 Eh
 1-El. energy change                    ....  1.000e-05 Eh
 Orbital Gradient       TolG            ....  1.000e-05
 Orbital Rotation angle TolX            ....  1.000e-05
 DIIS Error             TolErr          ....  5.000e-07


Diagonalization of the overlap matrix:
Smallest eigenvalue                        ... 1.601e-04
Time for diagonalization                   ...    0.772 sec
Threshold for overlap eigenvalues          ... 1.000e-08
Number of eigenvalues below threshold      ... 0
Time for construction of square roots      ...    0.293 sec
Total time needed                          ...    1.071 sec

-------------------
DFT GRID GENERATION
-------------------

General Integration Accuracy     IntAcc      ...  4.340
Radial Grid Type                 RadialGrid  ... Gauss-Chebyshev
Angular Grid (max. acc.)         AngularGrid ... Lebedev-110
Angular grid pruning method      GridPruning ... 3 (G Style)
Weight generation scheme         WeightScheme... Becke
Basis function cutoff            BFCut       ...    1.0000e-11
Integration weight cutoff        WCut        ...    1.0000e-14
Grids for H and He will be reduced by one unit

# of grid points (after initial pruning)     ... 196756 (   0.4 sec)
# of grid points (after weights+screening)   ... 170939 (   8.9 sec)
nearest neighbour list constructed           ...    0.0 sec
Grid point re-assignment to atoms done       ...    0.0 sec
Grid point division into batches done        ...    0.1 sec
Reduced shell lists constructed in    3.2 sec

Total number of grid points                  ...   170939
Total number of batches                      ...     2748
Average number of points per batch           ...       62
Average number of grid points per atom       ...     1187
Average number of shells per batch           ...   117.60 (16.29%)
Average number of basis functions per batch  ...   239.08 (15.11%)
Average number of large shells per batch     ...    67.07 (57.03%)
Average number of large basis fcns per batch ...   140.11 (58.60%)
Maximum spatial batch extension              ...  22.81, 22.61, 20.61 au
Average spatial batch extension              ...   3.60,  3.05,  3.10 au

Time for grid setup =   12.463 sec

------------------------------
INITIAL GUESS: MODEL POTENTIAL
------------------------------
Loading Hartree-Fock densities                     ... done
Calculating cut-offs                               ... done
Setting up the integral package                    ... done
Initializing the effective Hamiltonian             ... done
Starting the Coulomb interaction                   ... done (  17.1 sec)
Reading the grid                                   ... done
Mapping shells                                     ... done
Starting the XC term evaluation                    ... done (   2.9 sec)
Transforming the Hamiltonian                       ... done (   0.3 sec)
Diagonalizing the Hamiltonian                      ... done (   0.7 sec)
Back transforming the eigenvectors                 ... done (   0.1 sec)
Now organizing SCF variables                       ... done
                      ------------------
                      INITIAL GUESS DONE (  34.0 sec)
                      ------------------
--------------
SCF ITERATIONS
--------------
ITER       Energy         Delta-E        Max-DP      RMS-DP      [F,P]     Damp
               ***  Starting incremental Fock matrix formation  ***
  0  -5367.8206507414   0.000000000000 0.17266061  0.00121962  0.2517507 0.7000
  1  -5368.8410204671  -1.020369725757 0.12979272  0.00094227  0.1511020 0.7000
                               ***Turning on DIIS***
  2  -5369.4659778677  -0.624957400621 0.30296202  0.00219537  0.0841203 0.0000
  3  -5366.1771169899   3.288860877870 0.05912566  0.00043434  0.0545911 0.0000
  4  -5371.1071441345  -4.930027144601 0.01556639  0.00016811  0.0192367 0.0000
  5  -5371.0678675081   0.039276626358 0.00849811  0.00008207  0.0102541 0.0000
  6  -5370.7314351264   0.336432381748 0.00625160  0.00004786  0.0030982 0.0000
  7  -5370.8525659055  -0.121130779145 0.00407537  0.00002976  0.0020958 0.0000
                      *** Initiating the SOSCF procedure ***
                           *** Shutting down DIIS ***
                      *** Re-Reading the Fockian *** 
                      *** Removing any level shift *** 
ITER      Energy       Delta-E        Grad      Rot      Max-DP    RMS-DP
  8  -5370.82094402   0.0316218861  0.002788  0.002788  0.003000  0.000022
               *** Restarting incremental Fock matrix formation ***
  9  -5370.81997707   0.0009669476  0.001096  0.004546  0.001771  0.000012
 10  -5370.82006727  -0.0000901938  0.000552  0.004668  0.002273  0.000017
 11  -5370.82010507  -0.0000378082  0.000279  0.000827  0.000501  0.000004
 12  -5370.82011125  -0.0000061731  0.000112  0.000547  0.000167  0.000001
 13  -5370.82011224  -0.0000009908  0.000026  0.000172  0.000118  0.000001
 14  -5370.82011245  -0.0000002153  0.000016  0.000083  0.000094  0.000000
 15  -5370.82011252  -0.0000000674  0.000009  0.000048  0.000033  0.000000
 16  -5370.82011252   0.0000000013  0.000003  0.000025  0.000021  0.000000
                  ***Gradient check signals convergence***
              ***Rediagonalizing the Fockian in SOSCF/NRSCF***

               *****************************************************
               *                     SUCCESS                       *
               *           SCF CONVERGED AFTER  17 CYCLES          *
               *****************************************************


----------------
TOTAL SCF ENERGY
----------------

Total Energy       :        -5370.82011253 Eh         -146147.44525 eV

Components:
Nuclear Repulsion  :        16240.16075338 Eh          441917.24074 eV
Electronic Energy  :       -21610.98086591 Eh         -588064.68599 eV
One Electron Energy:       -39712.50520986 Eh        -1080632.20504 eV
Two Electron Energy:        18101.52434395 Eh          492567.51905 eV

Virial components:
Potential Energy   :       -10726.66301866 Eh         -291887.34000 eV
Kinetic Energy     :         5355.84290613 Eh          145739.89475 eV
Virial Ratio       :            2.00279642


---------------
SCF CONVERGENCE
---------------

  Last Energy change         ...   -9.7098e-09  Tolerance :   1.0000e-08
  Last MAX-Density change    ...    9.4854e-06  Tolerance :   1.0000e-07
  Last RMS-Density change    ...    6.3013e-08  Tolerance :   5.0000e-09
  Last Orbital Gradient      ...    1.7149e-06  Tolerance :   1.0000e-05
  Last Orbital Rotation      ...    1.3598e-05  Tolerance :   1.0000e-05

             **** THE GBW FILE WAS UPDATED (BTA53.gbw) ****
             **** DENSITY FILE WAS UPDATED (BTA53.scfp) ****
             **** ENERGY FILE WAS UPDATED (BTA53.en.tmp) ****
             **** THE GBW FILE WAS UPDATED (BTA53.gbw) ****
             **** DENSITY FILE WAS UPDATED (BTA53.scfp) ****
----------------
ORBITAL ENERGIES
----------------

  NO   OCC          E(Eh)            E(eV) 
   0   2.0000     -91.995162     -2503.3156 
   1   2.0000     -91.994372     -2503.2941 
   2   2.0000     -91.966470     -2502.5349 
   3   2.0000     -91.962839     -2502.4361 
   4   2.0000     -20.599055      -560.5288 
   5   2.0000     -20.596374      -560.4558 
   6   2.0000     -20.563968      -559.5740 
   7   2.0000     -20.563129      -559.5512 
   8   2.0000     -15.733036      -428.1177 
   9   2.0000     -15.732665      -428.1076 
  10   2.0000     -15.664309      -426.2475 
  11   2.0000     -15.663592      -426.2280 
  12   2.0000     -15.634146      -425.4268 
  13   2.0000     -15.633735      -425.4156 
  14   2.0000     -15.631991      -425.3681 
  15   2.0000     -15.628787      -425.2809 
  16   2.0000     -15.579657      -423.9440 
  17   2.0000     -15.579465      -423.9388 
  18   2.0000     -15.578948      -423.9247 
  19   2.0000     -15.578812      -423.9210 
  20   2.0000     -11.405415      -310.3571 
  21   2.0000     -11.404623      -310.3356 
  22   2.0000     -11.401034      -310.2379 
  23   2.0000     -11.400299      -310.2179 
  24   2.0000     -11.330768      -308.3259 
  25   2.0000     -11.328551      -308.2655 
  26   2.0000     -11.315091      -307.8993 
  27   2.0000     -11.313762      -307.8631 
  28   2.0000     -11.312258      -307.8222 
  29   2.0000     -11.311539      -307.8026 
  30   2.0000     -11.311261      -307.7951 
  31   2.0000     -11.310452      -307.7730 
  32   2.0000     -11.305647      -307.6423 
  33   2.0000     -11.304771      -307.6184 
  34   2.0000     -11.303923      -307.5954 
  35   2.0000     -11.303221      -307.5763 
  36   2.0000     -11.299391      -307.4721 
  37   2.0000     -11.299345      -307.4708 
  38   2.0000     -11.297719      -307.4266 
  39   2.0000     -11.297285      -307.4148 
  40   2.0000     -11.295677      -307.3710 
  41   2.0000     -11.295517      -307.3666 
  42   2.0000     -11.294894      -307.3497 
  43   2.0000     -11.293811      -307.3202 
  44   2.0000     -11.293221      -307.3042 
  45   2.0000     -11.293178      -307.3030 
  46   2.0000     -11.292569      -307.2864 
  47   2.0000     -11.292408      -307.2821 
  48   2.0000     -11.290931      -307.2418 
  49   2.0000     -11.290208      -307.2222 
  50   2.0000     -11.286233      -307.1140 
  51   2.0000     -11.286154      -307.1119 
  52   2.0000     -11.281974      -306.9981 
  53   2.0000     -11.281060      -306.9733 
  54   2.0000     -11.276778      -306.8567 
  55   2.0000     -11.271011      -306.6998 
  56   2.0000     -11.270727      -306.6921 
  57   2.0000     -11.270621      -306.6892 
  58   2.0000     -11.268511      -306.6318 
  59   2.0000     -11.268069      -306.6198 
  60   2.0000     -11.263099      -306.4845 
  61   2.0000     -11.262646      -306.4722 
  62   2.0000     -11.262598      -306.4709 
  63   2.0000     -11.259104      -306.3758 
  64   2.0000     -11.256149      -306.2954 
  65   2.0000     -11.255636      -306.2814 
  66   2.0000     -11.249679      -306.1193 
  67   2.0000     -11.248685      -306.0923 
  68   2.0000     -11.247858      -306.0698 
  69   2.0000     -11.246989      -306.0461 
  70   2.0000     -11.245890      -306.0162 
  71   2.0000     -11.244125      -305.9682 
  72   2.0000     -11.244108      -305.9677 
  73   2.0000     -11.243551      -305.9526 
  74   2.0000     -11.243542      -305.9523 
  75   2.0000     -11.243445      -305.9497 
  76   2.0000     -11.242532      -305.9248 
  77   2.0000     -11.242372      -305.9205 
  78   2.0000     -11.241469      -305.8959 
  79   2.0000     -11.240544      -305.8707 
  80   2.0000     -11.239732      -305.8487 
  81   2.0000     -11.239703      -305.8479 
  82   2.0000     -11.239628      -305.8458 
  83   2.0000     -11.239448      -305.8409 
  84   2.0000     -11.239188      -305.8339 
  85   2.0000     -11.239098      -305.8314 
  86   2.0000     -11.237555      -305.7894 
  87   2.0000     -11.237042      -305.7754 
  88   2.0000     -11.236404      -305.7581 
  89   2.0000     -11.235944      -305.7456 
  90   2.0000     -11.234525      -305.7070 
  91   2.0000     -11.233894      -305.6898 
  92   2.0000     -11.233881      -305.6894 
  93   2.0000     -11.231305      -305.6194 
  94   2.0000      -9.031527      -245.7604 
  95   2.0000      -9.030744      -245.7390 
  96   2.0000      -9.001866      -244.9532 
  97   2.0000      -8.997761      -244.8415 
  98   2.0000      -6.719026      -182.8340 
  99   2.0000      -6.718245      -182.8127 
 100   2.0000      -6.717819      -182.8011 
 101   2.0000      -6.717035      -182.7798 
 102   2.0000      -6.715391      -182.7351 
 103   2.0000      -6.714608      -182.7138 
 104   2.0000      -6.689481      -182.0300 
 105   2.0000      -6.688507      -182.0035 
 106   2.0000      -6.686511      -181.9492 
 107   2.0000      -6.685134      -181.9118 
 108   2.0000      -6.684073      -181.8829 
 109   2.0000      -6.682133      -181.8301 
 110   2.0000      -1.493672       -40.6449 
 111   2.0000      -1.493121       -40.6299 
 112   2.0000      -1.428430       -38.8696 
 113   2.0000      -1.427635       -38.8479 
 114   2.0000      -1.426252       -38.8103 
 115   2.0000      -1.423606       -38.7383 
 116   2.0000      -1.338432       -36.4206 
 117   2.0000      -1.337687       -36.4003 
 118   2.0000      -1.233639       -33.5690 
 119   2.0000      -1.232904       -33.5490 
 120   2.0000      -1.227789       -33.4098 
 121   2.0000      -1.227080       -33.3905 
 122   2.0000      -1.218096       -33.1461 
 123   2.0000      -1.217640       -33.1337 
 124   2.0000      -1.216646       -33.1066 
 125   2.0000      -1.215923       -33.0869 
 126   2.0000      -1.200223       -32.6597 
 127   2.0000      -1.190909       -32.4063 
 128   2.0000      -1.186367       -32.2827 
 129   2.0000      -1.172505       -31.9055 
 130   2.0000      -1.164776       -31.6952 
 131   2.0000      -1.163834       -31.6695 
 132   2.0000      -1.160177       -31.5700 
 133   2.0000      -1.159880       -31.5620 
 134   2.0000      -1.155639       -31.4465 
 135   2.0000      -1.135758       -30.9056 
 136   2.0000      -1.135095       -30.8875 
 137   2.0000      -1.126800       -30.6618 
 138   2.0000      -1.125227       -30.6190 
 139   2.0000      -1.112180       -30.2639 
 140   2.0000      -1.098571       -29.8936 
 141   2.0000      -1.095121       -29.7998 
 142   2.0000      -1.079478       -29.3741 
 143   2.0000      -1.070620       -29.1330 
 144   2.0000      -1.050037       -28.5730 
 145   2.0000      -1.045740       -28.4560 
 146   2.0000      -1.040934       -28.3253 
 147   2.0000      -1.037044       -28.2194 
 148   2.0000      -1.030100       -28.0304 
 149   2.0000      -1.018092       -27.7037 
 150   2.0000      -1.016826       -27.6692 
 151   2.0000      -1.014229       -27.5986 
 152   2.0000      -1.013347       -27.5746 
 153   2.0000      -1.011530       -27.5251 
 154   2.0000      -1.007171       -27.4065 
 155   2.0000      -1.002552       -27.2808 
 156   2.0000      -1.000249       -27.2182 
 157   2.0000      -0.996877       -27.1264 
 158   2.0000      -0.988565       -26.9002 
 159   2.0000      -0.987719       -26.8772 
 160   2.0000      -0.975597       -26.5473 
 161   2.0000      -0.973730       -26.4965 
 162   2.0000      -0.956551       -26.0291 
 163   2.0000      -0.946840       -25.7648 
 164   2.0000      -0.937213       -25.5029 
 165   2.0000      -0.934493       -25.4289 
 166   2.0000      -0.931828       -25.3563 
 167   2.0000      -0.911797       -24.8113 
 168   2.0000      -0.903349       -24.5814 
 169   2.0000      -0.896201       -24.3869 
 170   2.0000      -0.890051       -24.2195 
 171   2.0000      -0.888094       -24.1663 
 172   2.0000      -0.872818       -23.7506 
 173   2.0000      -0.870358       -23.6836 
 174   2.0000      -0.857968       -23.3465 
 175   2.0000      -0.856869       -23.3166 
 176   2.0000      -0.847351       -23.0576 
 177   2.0000      -0.840635       -22.8748 
 178   2.0000      -0.836670       -22.7669 
 179   2.0000      -0.835707       -22.7408 
 180   2.0000      -0.828912       -22.5558 
 181   2.0000      -0.828491       -22.5444 
 182   2.0000      -0.826489       -22.4899 
 183   2.0000      -0.820450       -22.3256 
 184   2.0000      -0.808441       -21.9988 
 185   2.0000      -0.804469       -21.8907 
 186   2.0000      -0.801034       -21.7973 
 187   2.0000      -0.794721       -21.6255 
 188   2.0000      -0.788545       -21.4574 
 189   2.0000      -0.785066       -21.3627 
 190   2.0000      -0.783018       -21.3070 
 191   2.0000      -0.772370       -21.0173 
 192   2.0000      -0.765765       -20.8375 
 193   2.0000      -0.765026       -20.8174 
 194   2.0000      -0.757746       -20.6193 
 195   2.0000      -0.755181       -20.5495 
 196   2.0000      -0.748582       -20.3699 
 197   2.0000      -0.742969       -20.2172 
 198   2.0000      -0.737043       -20.0560 
 199   2.0000      -0.728035       -19.8108 
 200   2.0000      -0.727721       -19.8023 
 201   2.0000      -0.724984       -19.7278 
 202   2.0000      -0.724515       -19.7151 
 203   2.0000      -0.723805       -19.6957 
 204   2.0000      -0.721042       -19.6206 
 205   2.0000      -0.716005       -19.4835 
 206   2.0000      -0.706924       -19.2364 
 207   2.0000      -0.700895       -19.0723 
 208   2.0000      -0.700202       -19.0535 
 209   2.0000      -0.699788       -19.0422 
 210   2.0000      -0.695711       -18.9313 
 211   2.0000      -0.693936       -18.8830 
 212   2.0000      -0.689144       -18.7526 
 213   2.0000      -0.688573       -18.7370 
 214   2.0000      -0.672340       -18.2953 
 215   2.0000      -0.668801       -18.1990 
 216   2.0000      -0.666051       -18.1242 
 217   2.0000      -0.664627       -18.0854 
 218   2.0000      -0.662462       -18.0265 
 219   2.0000      -0.660435       -17.9713 
 220   2.0000      -0.659222       -17.9383 
 221   2.0000      -0.652900       -17.7663 
 222   2.0000      -0.650241       -17.6940 
 223   2.0000      -0.646214       -17.5844 
 224   2.0000      -0.642393       -17.4804 
 225   2.0000      -0.640375       -17.4255 
 226   2.0000      -0.635590       -17.2953 
 227   2.0000      -0.634922       -17.2771 
 228   2.0000      -0.633614       -17.2415 
 229   2.0000      -0.631363       -17.1803 
 230   2.0000      -0.628159       -17.0931 
 231   2.0000      -0.626570       -17.0498 
 232   2.0000      -0.624928       -17.0051 
 233   2.0000      -0.623148       -16.9567 
 234   2.0000      -0.614458       -16.7202 
 235   2.0000      -0.614096       -16.7104 
 236   2.0000      -0.610091       -16.6014 
 237   2.0000      -0.609606       -16.5882 
 238   2.0000      -0.608448       -16.5567 
 239   2.0000      -0.603370       -16.4185 
 240   2.0000      -0.601724       -16.3737 
 241   2.0000      -0.600398       -16.3377 
 242   2.0000      -0.599533       -16.3141 
 243   2.0000      -0.598795       -16.2940 
 244   2.0000      -0.596666       -16.2361 
 245   2.0000      -0.596194       -16.2233 
 246   2.0000      -0.596012       -16.2183 
 247   2.0000      -0.595585       -16.2067 
 248   2.0000      -0.593952       -16.1623 
 249   2.0000      -0.593180       -16.1412 
 250   2.0000      -0.591508       -16.0958 
 251   2.0000      -0.589159       -16.0318 
 252   2.0000      -0.588856       -16.0236 
 253   2.0000      -0.587441       -15.9851 
 254   2.0000      -0.585864       -15.9422 
 255   2.0000      -0.583660       -15.8822 
 256   2.0000      -0.582274       -15.8445 
 257   2.0000      -0.581553       -15.8249 
 258   2.0000      -0.578328       -15.7371 
 259   2.0000      -0.572564       -15.5803 
 260   2.0000      -0.571718       -15.5572 
 261   2.0000      -0.567150       -15.4329 
 262   2.0000      -0.566442       -15.4137 
 263   2.0000      -0.566225       -15.4078 
 264   2.0000      -0.563876       -15.3438 
 265   2.0000      -0.562984       -15.3196 
 266   2.0000      -0.561884       -15.2897 
 267   2.0000      -0.556307       -15.1379 
 268   2.0000      -0.553574       -15.0635 
 269   2.0000      -0.553226       -15.0540 
 270   2.0000      -0.552540       -15.0354 
 271   2.0000      -0.549757       -14.9596 
 272   2.0000      -0.546271       -14.8648 
 273   2.0000      -0.545664       -14.8483 
 274   2.0000      -0.541999       -14.7486 
 275   2.0000      -0.540622       -14.7111 
 276   2.0000      -0.539926       -14.6921 
 277   2.0000      -0.537971       -14.6389 
 278   2.0000      -0.533392       -14.5143 
 279   2.0000      -0.526061       -14.3149 
 280   2.0000      -0.523074       -14.2336 
 281   2.0000      -0.521697       -14.1961 
 282   2.0000      -0.516706       -14.0603 
 283   2.0000      -0.514590       -14.0027 
 284   2.0000      -0.512545       -13.9471 
 285   2.0000      -0.511165       -13.9095 
 286   2.0000      -0.510865       -13.9013 
 287   2.0000      -0.507610       -13.8128 
 288   2.0000      -0.505879       -13.7657 
 289   2.0000      -0.504672       -13.7328 
 290   2.0000      -0.503653       -13.7051 
 291   2.0000      -0.502263       -13.6673 
[...]
   Time for densities:     2.834
   Using LibInt in JK Direct
   Time for J+K (Direct):  2869.627
   Time for Sigma-Completion:    36.723
   Size of expansion space: 15
   Lowest Energy          :     0.102763950646
   Maximum Energy change  :     0.000001857387 (vector 2)
   Maximum residual norm  :     0.000000300864

                       ****Iteration   12****
   Time for densities:     2.856
   Using LibInt in JK Direct
   Time for J+K (Direct):  2793.671
   Time for Sigma-Completion:    36.644
   Size of expansion space: 18
   Lowest Energy          :     0.102763950624
   Maximum Energy change  :     0.000000867392 (vector 2)
   Maximum residual norm  :     0.000000101877

      *** CONVERGENCE OF RESIDUAL NORM REACHED ***

Storing the converged CI vectors               ... BTA53.cis1

                 *** DAVIDSON DONE ***

Total time for solving the CIS problem: 44565.358sec

-----------------------------
CIS-EXCITED STATES (SINGLETS)
-----------------------------

the weight of the individual excitations are printed if larger than 1.0e-02

STATE  1:  E=   0.102764 au      2.796 eV    22554.1 cm**-1
   334a -> 339a  :     0.024540 (c= -0.15665402)
   335a -> 338a  :     0.187300 (c=  0.43278193)
   336a -> 337a  :     0.625825 (c=  0.79109075)
   336a -> 339a  :     0.059168 (c= -0.24324403)
   336a -> 341a  :     0.010811 (c= -0.10397734)

STATE  2:  E=   0.122097 au      3.322 eV    26797.1 cm**-1
   330a -> 339a  :     0.010136 (c=  0.10067965)
   334a -> 338a  :     0.064411 (c= -0.25379302)
   335a -> 337a  :     0.371566 (c=  0.60956201)
   336a -> 338a  :     0.421821 (c=  0.64947749)
   336a -> 340a  :     0.017427 (c= -0.13201281)

STATE  3:  E=   0.156371 au      4.255 eV    34319.5 cm**-1
   318a -> 338a  :     0.016433 (c= -0.12819134)
   322a -> 337a  :     0.010215 (c=  0.10106733)
   329a -> 338a  :     0.016458 (c=  0.12828728)
   330a -> 338a  :     0.029145 (c= -0.17072040)
   334a -> 337a  :     0.274991 (c=  0.52439586)
   335a -> 338a  :     0.182932 (c= -0.42770568)
   336a -> 337a  :     0.014866 (c=  0.12192469)
   336a -> 339a  :     0.200470 (c= -0.44773894)
   336a -> 341a  :     0.067606 (c= -0.26001090)


----------------------
CIS-EXCITATION SPECTRA
----------------------

Center of mass = ( -6.9804, -3.4046,  4.5975)
Calculating the Dipole integrals                  ... done
Transforming integrals                            ... done
Calculating the Linear Momentum integrals         ... done
Transforming integrals                            ... done
Calculating angular momentum integrals            ... done
Transforming integrals                            ... done

-----------------------------------------------------------------------------
         ABSORPTION SPECTRUM VIA TRANSITION ELECTRIC DIPOLE MOMENTS
-----------------------------------------------------------------------------
State   Energy    Wavelength  fosc         T2        TX        TY        TZ  
        (cm-1)      (nm)                 (au**2)    (au)      (au)      (au) 
-----------------------------------------------------------------------------
   1   22554.1    443.4   3.389469748  49.47459  -1.35093  -6.22100   2.99144
   2   26797.1    373.2   0.096253313   1.18251   0.03180   0.34772   1.02985
   3   34319.5    291.4   0.525993739   5.04563   0.55952   2.16901   0.16720

-----------------------------------------------------------------------------
         ABSORPTION SPECTRUM VIA TRANSITION VELOCITY DIPOLE MOMENTS
-----------------------------------------------------------------------------
State   Energy    Wavelength   fosc        P2         PX        PY        PZ  
        (cm-1)      (nm)                 (au**2)     (au)      (au)      (au) 
-----------------------------------------------------------------------------
   1   22554.1    443.4   2.083118051   0.32110   0.11407   0.50328  -0.23410
   2   26797.1    373.2   0.124078421   0.02272   0.03073  -0.05022  -0.13877
   3   34319.5    291.4   0.468145917   0.10981  -0.09045  -0.30304   0.09897

-------------------------------------------------------------------
                             CD SPECTRUM
-------------------------------------------------------------------
State  Energy     Wavelength     R         MX        MY        MZ   
       (cm-1)       (nm)     (1e40*cgs)   (au)      (au)      (au)  
-------------------------------------------------------------------
   1   22554.1    443.4     76.75004   1.20708  -0.47082  -0.37958
   2   26797.1    373.2     84.66201  -1.03047   0.20118   0.13826
   3   34319.5    291.4    -320.27642  -2.72279   0.37711   0.15647

Total run time:    44758.114 sec

           *** ORCA-CIS/TD-DFT FINISHED WITHOUT ERROR ***

-----------------------
CIS/TD-DFT TOTAL ENERGY
-----------------------

    E(SCF)  =  -5370.820112529 Eh
    DE(CIS) =      0.102763951 Eh (Root  1)
    ----------------------------- ---------
    E(tot)  =  -5370.717348578 Eh


-------------------------   --------------------
FINAL SINGLE POINT ENERGY     -5370.717348578172
-------------------------   --------------------

------------------------------------------------------------------------------
                         ORCA SCF GRADIENT CALCULATION
------------------------------------------------------------------------------


------------
CIS GRADIENT
------------

Reference wavefunction             ... RHF
State of interest                  ... 1
Basis dimension                    ... 1582
DFT-XC contribution needed         ... NO
RI-approximation                   ... OFF
CIS-vectors being read from        ... BTA53.cis

 => Number of Vectors found: 3
 => Orbital Window: 110...336 -> 337...1581

Reading the CIS file                     ... done
Norm of the CI vector                    ... 1.000000000
Making the CIS (pseudo)densities         ... done
Making operators G(D) and Q(T)           ... done
Transforming the Fock operators          ... done
Making the frozen-core relaxed density   ... done
Constructing the G(H) operator           ... done
Transforming the G(H) operator           ... done
Calculating the CIS Lagrangian           ... done
Solving the Z-vector equations           ... done
Finalizing the relaxed density           ... done
Storing the relaxed density              ... done
Constructing the G(Z) operator           ... done
Transforming the G(Z) operator           ... done
Making the W-matrix                      ... done
Finalizing the W-matrix                  ... done
Transforming the W-matrix                ... done
Nuclear repulsion gradient               ... done
One-Electron gradient                    ... done
Prescreening matrices                    ... done
Two-Electron gradient (4-center)         ... done
                 ---------------------------
                 EXCITED STATE GRADIENT DONE
                 ---------------------------


------------------
CARTESIAN GRADIENT
------------------

   1   C   :   -0.000314977   -0.006048831   -0.002990654
   2   C   :    0.000659407    0.012002730    0.003545679
   3   C   :   -0.001126830   -0.008487018    0.007801626
   4   C   :    0.002172359    0.004723575    0.000950977
   5   C   :    0.000955443   -0.000179153   -0.004790557
   6   C   :    0.001174384   -0.005604856   -0.002152798
   7   C   :   -0.001900138   -0.000399058    0.004227944
   8   C   :   -0.000315916    0.005566451    0.002167729
   9   C   :   -0.000964555   -0.006018300    0.001535232
  10   C   :   -0.000712223    0.004735653    0.004017942
  11   C   :    0.006603526    0.009787279   -0.030049987
  12   C   :    0.000357119   -0.030091761   -0.022644619
  13   C   :   -0.000969703   -0.005536480    0.004764578
  14   C   :    0.001448198    0.007517571   -0.004071549
  15   C   :   -0.000058102   -0.002607830    0.008055879
  16   C   :   -0.008251756   -0.024056736   -0.019599717
  17   C   :   -0.001085039    0.013223560   -0.035853715
  18   N   :    0.001374832    0.019098281    0.004073820
  19   N   :   -0.004454500    0.012155667    0.029537537
  20   N   :   -0.005316264   -0.024142829    0.014719434
  21   N   :   -0.002003463   -0.015222479    0.014838373
  22   N   :    0.005616606    0.008289124    0.030221566
  23   N   :    0.005623107    0.022636496    0.000695358
  24   C   :   -0.002222409   -0.014866344    0.009484376
  25   C   :    0.001438401    0.006728187   -0.010464325
  26   C   :    0.005317058    0.018381947   -0.000251260
  27   C   :   -0.004351614   -0.011637141   -0.005131561
  28   C   :   -0.002965111   -0.005118706   -0.013912022
  29   C   :    0.002597015   -0.005444240   -0.013602784
  30   C   :   -0.005033357    0.006989794   -0.043938142
  31   N   :   -0.000567550   -0.006502079    0.008376057
  32   C   :    0.000233552    0.001579262   -0.001360724
  33   S   :    0.001654514    0.003468027    0.002939580
  34   C   :    0.000661071   -0.028551059   -0.034011213
  35   N   :    0.000477692    0.009981079    0.003710761
  36   C   :   -0.000099180   -0.002025885   -0.000537697
  37   S   :   -0.000379675   -0.001599936    0.004601847
  38   C   :   -0.001130999   -0.015976935   -0.001535997
  39   O   :   -0.000645783    0.026219792    0.030624531
  40   C   :    0.002258338    0.003762373   -0.022931978
  41   C   :    0.000837151    0.047231491    0.029862265
  42   C   :   -0.006681232   -0.052267159    0.033412225
  43   C   :    0.001448966   -0.000971750    0.002440825
  44   C   :   -0.003276993    0.000882621    0.000777203
  45   C   :    0.000675808    0.000579983   -0.004230500
  46   C   :    0.004244709   -0.000118015    0.002390061
  47   C   :   -0.003951629    0.000710176    0.000201690
  48   C   :   -0.000730601   -0.001123932    0.000953354
  49   C   :   -0.000973861   -0.000309465   -0.000728049
  50   C   :    0.001425678   -0.000447768   -0.001111898
  51   C   :   -0.000657165    0.002102198   -0.000518115
  52   C   :   -0.000177590   -0.001653263    0.001124163
  53   C   :    0.000457954    0.000153935   -0.001645575
  54   C   :   -0.001534753   -0.000292362   -0.001103011
  55   C   :   -0.000757241   -0.001574301    0.002285459
  56   C   :    0.003207359   -0.001122407   -0.000982641
  57   C   :   -0.002381624    0.000864864   -0.000735469
  58   C   :    0.000794302    0.003647960   -0.000012009
  59   C   :   -0.002354747   -0.003169848   -0.000495258
  60   C   :    0.003105845   -0.000860020    0.000001979
  61   C   :   -0.000538040    0.002069644    0.000906852
  62   C   :   -0.002115013    0.000086021   -0.001470186
  63   O   :    0.004489236   -0.006337341    0.039856171
  64   C   :    0.002115875    0.012430709   -0.010050807
  65   C   :   -0.007249469   -0.014719667   -0.016948050
  66   C   :    0.001073891   -0.023824447    0.050306959
  67   C   :    0.017816071    0.059766041   -0.001341576
  68   N   :   -0.000236500   -0.025893322   -0.018707496
  69   N   :    0.003782417    0.029240166   -0.019958501
  70   N   :   -0.010341868   -0.034024307   -0.000290181
  71   N   :   -0.001282584    0.011788381   -0.029329834
  72   C   :    0.002560401    0.001503660   -0.000583361
  73   C   :   -0.002062985   -0.001347018   -0.000243285
  74   C   :   -0.000655565    0.001963175    0.002518345
  75   C   :    0.001890098   -0.000684653    0.001778461
  76   S   :    0.002246751    0.011746969   -0.003735675
  77   C   :   -0.000514407    0.007217285   -0.001759081
  78   C   :   -0.002590877    0.001130810    0.007866328
  79   C   :    0.002096105    0.010840936    0.000245013
  80   C   :   -0.003488923   -0.009388497    0.011295938
  81   C   :   -0.004106089    0.009925625   -0.005986498
  82   C   :    0.000297721    0.002267430    0.008673074
  83   O   :    0.006367991   -0.006965138   -0.018616822
  84   C   :    0.001963460    0.005476092   -0.012272528
  85   C   :   -0.008181329   -0.008743988    0.004623280
  86   C   :    0.001126903    0.009408586   -0.010966033
  87   C   :   -0.001321467   -0.005428131    0.011729524
  88   C   :   -0.000102244   -0.002553955   -0.007073038
  89   O   :    0.007210864    0.005922188    0.018908893
  90   C   :   -0.001999176   -0.001104616   -0.004847557
  91   C   :   -0.003888141   -0.007896396    0.002727305
  92   C   :   -0.001657779   -0.009430394   -0.001651733
  93   C   :    0.001004390    0.003130027    0.005326017
  94   S   :   -0.000098667   -0.000676315    0.000511513
  95   H   :   -0.000034672   -0.000033938    0.001460063
  96   H   :    0.000472602    0.004254958   -0.001643667
  97   H   :    0.000788829    0.002920071    0.000396992
  98   H   :   -0.001134441   -0.004228628    0.001011195
  99   H   :   -0.000466988   -0.000828019    0.002804372
 100   H   :    0.000845345    0.002138827    0.001917361
 101   H   :   -0.000360215   -0.002198833    0.001614806
 102   H   :   -0.000556275    0.001746421    0.000660530
 103   H   :    0.001415878    0.001254312    0.000438089
 104   H   :   -0.001058084    0.001368515    0.000384754
 105   H   :    0.000908267    0.001768312    0.000726951
 106   H   :   -0.000466814   -0.002432817    0.001364127
 107   H   :   -0.000338574    0.001526868    0.005415262
 108   H   :   -0.002025483    0.000326015   -0.002416795
 109   H   :    0.002385777   -0.000018061   -0.002112666
 110   H   :    0.000512494   -0.000336124    0.001340073
 111   H   :   -0.000296003   -0.000262935    0.002048052
 112   H   :    0.001151218   -0.000101897   -0.000759398
 113   H   :    0.001765121   -0.000923660    0.001550661
 114   H   :   -0.000885336    0.000259453    0.000212763
 115   H   :   -0.001620248   -0.000013323   -0.000079004
 116   H   :    0.001425890    0.001187076    0.000253124
 117   H   :   -0.000411089    0.001503026    0.000986274
 118   H   :    0.000879948    0.000189488   -0.000743602
 119   H   :    0.000268095    0.000462499   -0.001842209
 120   H   :    0.000906601   -0.000557979    0.001090221
 121   H   :    0.002518855    0.000566912   -0.000890816
 122   H   :   -0.000835184   -0.001251555   -0.001191325
 123   H   :    0.000802567   -0.001121872   -0.000428125
 124   H   :   -0.001797533    0.000764430   -0.000385135
 125   H   :   -0.001039981    0.000108451   -0.000308409
 126   H   :    0.001284340    0.001464081    0.005280501
 127   H   :    0.001410397   -0.001894000   -0.002100308
 128   H   :   -0.002761257   -0.000632607   -0.001433947
 129   H   :    0.002185165   -0.000831385   -0.000021536
 130   H   :    0.002028631   -0.001055114   -0.000941849
 131   H   :    0.002645855    0.000749251   -0.000180198
 132   H   :   -0.000496275   -0.002029501   -0.000972373
 133   H   :   -0.001567035   -0.002179882    0.000224568
 134   H   :   -0.001187758   -0.001597407   -0.001786392
 135   H   :   -0.001230118    0.001956938   -0.000255441
 136   H   :   -0.000956122    0.002184306    0.001609893
 137   H   :   -0.000479892    0.002376335   -0.000346935
 138   H   :    0.002224210   -0.000295368    0.000267945
 139   H   :    0.002284202    0.000668513    0.001129307
 140   H   :    0.002002552   -0.001450557    0.000806767
 141   H   :   -0.000986715    0.000351183    0.003674599
 142   H   :   -0.000397046    0.002049287   -0.000704766
 143   H   :   -0.001241879   -0.001829108    0.000190531
 144   H   :   -0.000566696   -0.001928645   -0.001702546

Difference to translation invariance:
           :    0.0000000001    0.0000000004   -0.0000000002

Norm of the cartesian gradient     ...    0.2062138817
RMS gradient                       ...    0.0099214700
MAX gradient                       ...    0.0597660412

-------
TIMINGS
-------

Total CIS gradient time            ...    37424.493 sec

Fock matrix formation       ....    2879.236 sec  (  7.7%)
  Coulomb formation         ....    2879.236 sec  (100.0% of F)
Z-vector equation           ....   31113.920 sec  ( 83.1%)
One electron gradient       ....      28.573 sec  (  0.1%)
Prescreening matrices       ....       1.603 sec  (  0.0%)
Two electron gradient       ....    3394.673 sec  (  9.1%)

                            ***************************************
                            *     ORCA property calculations      *
                            ***************************************

                                    ---------------------
                                    Active property flags
                                    ---------------------
   (+) Dipole Moment


------------------------------------------------------------------------------
                       ORCA ELECTRIC PROPERTIES CALCULATION
------------------------------------------------------------------------------

Dipole Moment Calculation                       ... on
Quadrupole Moment Calculation                   ... off
Polarizability Calculation                      ... off
GBWName                                         ... BTA53.gbw
Electron density file                           ... BTA53.scfp
The origin for moment calculation is the CENTER OF MASS  = (-6.980351, -3.404605  4.597478)

-------------
DIPOLE MOMENT
-------------
                                X             Y             Z
Electronic contribution:     17.01913     -10.01662     -25.30881
Nuclear contribution   :    -17.07863      11.61801      31.04562
                        -----------------------------------------
Total Dipole Moment    :     -0.05950       1.60139       5.73681
                        -----------------------------------------
Magnitude (a.u.)       :      5.95642
Magnitude (Debye)      :     15.14003



--------------------
Rotational spectrum 
--------------------
 
Rotational constants in cm-1:     0.001072     0.000183     0.000166 
Rotational constants in MHz :    32.137396     5.480989     4.966856 

 Dipole components along the rotational axes: 
x,y,z [a.u.] :     1.086848     5.855000    -0.129319 
x,y,z [Debye]:     2.762549    14.882228    -0.328704 

 

                        *** CIS RELAXED DENSITY ***

------------------------------------------------------------------------------
                       ORCA ELECTRIC PROPERTIES CALCULATION
------------------------------------------------------------------------------

Dipole Moment Calculation                       ... on
Quadrupole Moment Calculation                   ... off
Polarizability Calculation                      ... off
GBWName                                         ... BTA53.gbw
Electron density file                           ... BTA53.cisp
The origin for moment calculation is the CENTER OF MASS  = (-6.980351, -3.404605  4.597478)

-------------
DIPOLE MOMENT
-------------
                                X             Y             Z
Electronic contribution:     16.94774     -10.08359     -25.31519
Nuclear contribution   :    -17.07863      11.61801      31.04562
                        -----------------------------------------
Total Dipole Moment    :     -0.13089       1.53442       5.73044
                        -----------------------------------------
Magnitude (a.u.)       :      5.93376
Magnitude (Debye)      :     15.08241



--------------------
Rotational spectrum 
--------------------
 
Rotational constants in cm-1:     0.001072     0.000183     0.000166 
Rotational constants in MHz :    32.137396     5.480989     4.966856 

 Dipole components along the rotational axes: 
x,y,z [a.u.] :     1.156761     5.816918    -0.186631 
x,y,z [Debye]:     2.940252    14.785431    -0.474379 

 

Timings for individual modules:

Sum of individual times         ...    93039.686 sec (=1550.661 min)
GTO integral calculation        ...        2.446 sec (=   0.041 min)   0.0 %
SCF iterations                  ...    10854.517 sec (= 180.909 min)  11.7 %
CIS module                      ...    44758.192 sec (= 745.970 min)  48.1 %
SCF Gradient evaluation         ...    37424.531 sec (= 623.742 min)  40.2 %
                             ****ORCA TERMINATED NORMALLY****
TOTAL RUN TIME: 1 days 1 hours 50 minutes 40 seconds 926 msec
