
                                 *****************
                                 * O   R   C   A *
                                 *****************

           --- An Ab Initio, DFT and Semiempirical electronic structure package ---

                  #######################################################
                  #                        -***-                        #
                  #          Department of theory and spectroscopy      #
                  #               Directorship: Frank Neese             #
                  #        Max Planck Institute fuer Kohlenforschung    #
                  #                Kaiser Wilhelm Platz 1               #
                  #                 D-45470 Muelheim/Ruhr               #
                  #                      Germany                        #
                  #                                                     #
                  #                  All rights reserved                #
                  #                        -***-                        #
                  #######################################################


                         Program Version 4.2.0 -  RELEASE  -


 With contributions from (in alphabetic order):
   Daniel Aravena         : Magnetic Suceptibility
   Michael Atanasov       : Ab Initio Ligand Field Theory (pilot matlab implementation)
   Alexander A. Auer      : GIAO ZORA, VPT2
   Ute Becker             : Parallelization
   Giovanni Bistoni       : ED, misc. LED, open-shell LED, HFLED
   Martin Brehm           : Molecular dynamics
   Dmytro Bykov           : SCF Hessian
   Vijay G. Chilkuri      : MRCI spin determinant printing, contributions to CSF-ICE
   Dipayan Datta          : RHF DLPNO-CCSD density
   Achintya Kumar Dutta   : EOM-CC, STEOM-CC
   Dmitry Ganyushin       : Spin-Orbit,Spin-Spin,Magnetic field MRCI
   Miquel Garcia          : C-PCM Hessian, Gaussian charge scheme
   Yang Guo               : DLPNO-NEVPT2, CIM, IAO-localization
   Andreas Hansen         : Spin unrestricted coupled pair/coupled cluster methods
   Benjamin Helmich-Paris : CASSCF linear response (MC-RPA)
   Lee Huntington         : MR-EOM, pCC
   Robert Izsak           : Overlap fitted RIJCOSX, COSX-SCS-MP3, EOM
   Christian Kollmar      : KDIIS, OOCD, Brueckner-CCSD(T), CCSD density
   Simone Kossmann        : Meta GGA functionals, TD-DFT gradient, OOMP2, MP2 Hessian
   Martin Krupicka        : AUTO-CI
   Lucas Lang             : DCDCAS
   Dagmar Lenk            : GEPOL surface, SMD
   Dimitrios Liakos       : Extrapolation schemes; Compound Job, initial MDCI parallelization
   Dimitrios Manganas     : Further ROCIS development; embedding schemes
   Dimitrios Pantazis     : SARC Basis sets
   Taras Petrenko         : DFT Hessian,TD-DFT gradient, ASA, ECA, R-Raman, ABS, FL, XAS/XES, NRVS
   Peter Pinski           : DLPNO-MP2, DLPNO-MP2 Gradient
   Christoph Reimann      : Effective Core Potentials
   Marius Retegan         : Local ZFS, SOC
   Christoph Riplinger    : Optimizer, TS searches, QM/MM, DLPNO-CCSD(T), (RO)-DLPNO pert. Triples
   Tobias Risthaus        : Range-separated hybrids, TD-DFT gradient, RPA, STAB
   Michael Roemelt        : Original ROCIS implementation
   Masaaki Saitow         : Open-shell DLPNO-CCSD energy and density
   Barbara Sandhoefer     : DKH picture change effects
   Avijit Sen             : IP-ROCIS
   Kantharuban Sivalingam : CASSCF convergence, NEVPT2, FIC-MRCI
   Bernardo de Souza      : ESD, SOC TD-DFT
   Georgi Stoychev        : AutoAux, RI-MP2 NMR
   Willem Van den Heuvel  : Paramagnetic NMR
   Boris Wezisla          : Elementary symmetry handling
   Frank Wennmohs         : Technical directorship


 We gratefully acknowledge several colleagues who have allowed us to
 interface, adapt or use parts of their codes:
   Stefan Grimme, W. Hujo, H. Kruse,             : VdW corrections, initial TS optimization,
                  C. Bannwarth                     DFT functionals, gCP, sTDA/sTD-DF
   Ed Valeev, F. Pavosevic, A. Kumar             : LibInt (2-el integral package), F12 methods
   Garnet Chan, S. Sharma, J. Yang, R. Olivares  : DMRG
   Ulf Ekstrom                                   : XCFun DFT Library
   Mihaly Kallay                                 : mrcc  (arbitrary order and MRCC methods)
   Andreas Klamt, Michael Diedenhofen            : otool_cosmo (COSMO solvation model)
   Jiri Pittner, Ondrej Demel                    : Mk-CCSD
   Frank Weinhold                                : gennbo (NPA and NBO analysis)
   Christopher J. Cramer and Donald G. Truhlar   : smd solvation model
   Lars Goerigk                                  : TD-DFT with DH, B97 family of functionals
   V. Asgeirsson, H. Jonsson                     : NEB implementation
   FAccTs GmbH                                   : IRC, NEB, NEB-TS, Multilevel, MM, QM/MM, CI optimization
   S Lehtola, MJT Oliveira, MAL Marques          : LibXC Library


 Your calculation uses the libint2 library for the computation of 2-el integrals
 For citations please refer to: http://libint.valeyev.net

 Your ORCA version has been built with support for libXC version: 4.2.3
 For citations please refer to: https://tddft.org/programs/libxc/

 This ORCA versions uses:
   CBLAS   interface :  Fast vector & matrix operations
   LAPACKE interface :  Fast linear algebra routines
   SCALAPACK package :  Parallel linear algebra routines


----- Orbital basis set information -----
Your calculation utilizes the basis: def2-SVP
   F. Weigend and R. Ahlrichs, Phys. Chem. Chem. Phys. 7, 3297 (2005).

================================================================================
                                        WARNINGS
                       Please study these warnings very carefully!
================================================================================

INFO   : Checking CIS options ...

WARNING: CIS/ROCIS methods need fully converged wavefunctions
  ===> : Setting SCFConvForced true
         You can overwrite this default with %scf ConvForced false 


INFO   : the flag for use of LIBINT has been found!

================================================================================
                                       INPUT FILE
================================================================================
NAME = BTCIC.inp
|  1> # ORCA input file
|  2> # BTCIC.out: Geometry 95
|  3> ! Engrad Keepdens
|  4> %maxcore 1000
|  5> %tddft
|  6>   nroots 3 
|  7>   # nroots is the number of states to be computed
|  8>   Iroot 1
|  9>   end
| 10> * xyz 0 1
| 11>    S        2.55450        -1.09224        -0.60312
| 12>    N        1.25207        -1.92702        -0.05566
| 13>    C        0.35207        -1.03804         0.36677
| 14>    C        0.80390         0.33870         0.21006
| 15>    N        2.02195         0.43368        -0.32311
| 16>    C       -0.96073        -1.32323         0.89025
| 17>    C       -1.69265        -0.21310         1.30498
| 18>    C       -1.25016         1.11859         1.15865
| 19>    C       -0.02493         1.45101         0.59054
| 20>    C        0.35937         2.82554         0.34426
| 21>    C       -1.52244        -2.65762         0.87624
| 22>    C       -0.88724        -3.89057         0.71822
| 23>    C       -1.80022        -4.95876         0.64497
| 24>    C       -3.12887        -4.53838         0.72517
| 25>    S       -3.28190        -2.83703         0.92841
| 26>    C       -1.70342        -6.47825         0.50587
| 27>    C       -3.19710        -6.82116         0.36442
| 28>    C       -3.98397        -5.65993         0.53011
| 29>    C       -3.97986        -7.93581         0.06546
| 30>    C       -5.35731        -7.64994        -0.00531
| 31>    S       -5.66108        -5.93727         0.34073
| 32>    C       -0.15867         3.96752         0.95874
| 33>    C        0.29102         5.15796         0.36162
| 34>    C        1.17745         4.91263        -0.69315
| 35>    S        1.47855         3.23754        -0.95485
| 36>    C        0.18699         6.65422         0.65486
| 37>    C        1.06928         7.20576        -0.46547
| 38>    C        1.64735         6.15930        -1.20551
| 39>    C        1.33951         8.46045        -1.01172
| 40>    C        2.15040         8.39459        -2.15940
| 41>    S        2.58655         6.71244        -2.52660
| 42>    C       -6.44545        -8.42308        -0.46776
| 43>    C       -6.54039        -9.73561        -0.88583
| 44>    C       -5.69357       -10.90533        -0.77453
| 45>    C       -6.06597       -11.82922        -1.87738
| 46>    C       -7.24315       -11.34694        -2.48969
| 47>    C       -7.63354       -10.05478        -1.86152
| 48>    C       -5.48726       -13.01658        -2.33767
| 49>    C       -6.10360       -13.68888        -3.40192
| 50>    C       -7.27901       -13.20625        -3.99295
| 51>    C       -7.86417       -12.02079        -3.53325
| 52>    C       -4.84117       -11.21611         0.27599
| 53>    O       -8.59731        -9.36662        -2.12882
| 54>    C       -4.00683       -12.37529         0.28439
| 55>    C       -4.82659       -10.45586         1.48210
| 56>    N       -3.29657       -13.29620         0.29400
| 57>    N       -4.82770        -9.85925         2.47971
| 58>    C       -1.05337        -7.04858         1.80277
| 59>    C       -0.87126        -6.82268        -0.77753
| 60>    C       -1.62042        -6.60715         3.16360
| 61>    C       -0.15457        -8.18630        -0.95362
| 62>    C       -2.94242        -7.31869         3.52557
| 63>    C       -3.98479        -6.41169         4.17461
| 64>    C       -0.52348        -6.83210         4.22523
| 65>    C       -0.90005        -6.50523         5.66917
| 66>    C        1.14549        -8.37355        -0.13933
| 67>    C        2.10111        -7.18209        -0.11809
| 68>    C       -1.09299        -9.39827        -0.81346
| 69>    C       -0.45361       -10.76566        -1.06110
| 70>    C        0.77404         6.91294         2.07590
| 71>    C        2.23564         6.45700         2.28466
| 72>    C        3.25785         7.56485         1.91858
| 73>    C        4.48429         7.07325         1.14747
| 74>    C        2.43299         5.92151         3.71549
| 75>    C        3.81480         5.33147         3.99951
| 76>    C       -1.23055         7.28239         0.52483
| 77>    C       -2.41135         6.56076         1.21154
| 78>    C       -3.40985         7.63274         1.69846
| 79>    C       -3.03851         5.52072         0.25409
| 80>    C       -3.74686         4.33456         0.91430
| 81>    C        2.65592         9.39256        -3.02387
| 82>    C        2.33876        10.71898        -3.22622
| 83>    C        1.25382        11.60226        -2.83321
| 84>    C        1.70924        12.99752        -3.08319
| 85>    C        2.90822        12.95508        -3.82571
| 86>    C        3.34405        11.54433        -3.97729
| 87>    C        1.14373        14.23882        -2.77025
| 88>    C        1.78288        15.39879        -3.22724
| 89>    C        2.95311        15.33921        -3.99670
| 90>    C        3.53031        14.10191        -4.30214
| 91>    O        4.33441        11.13901        -4.55143
| 92>    C       -0.05189        11.25497        -2.51271
| 93>    C       -1.03828        12.21644        -2.12823
| 94>    C       -0.56606         9.93412        -2.66750
| 95>    N       -1.02239         8.87359        -2.80578
| 96>    N       -1.85112        12.97613        -1.79077
| 97>    C       -4.69095         7.14964         2.37781
| 98>    H       -2.68504        -0.36938         1.73286
| 99>    H       -1.93330         1.91528         1.45331
|100>    H        0.19510        -3.96820         0.63083
|101>    H       -3.58864        -8.92273        -0.15167
|102>    H       -0.84160         3.91323         1.80470
|103>    H        0.98327         9.40355        -0.60098
|104>    H       -7.36342        -7.86106        -0.68625
|105>    H       -4.57658       -13.41901        -1.89913
|106>    H       -5.65170       -14.60844        -3.77982
|107>    H       -7.73818       -13.76054        -4.81447
|108>    H       -8.77761       -11.61661        -3.97317
|109>    H        0.00433        -6.75235         1.76104
|110>    H       -1.07094        -8.14701         1.75726
|111>    H       -0.10504        -6.04085        -0.88384
|112>    H       -1.54511        -6.67744        -1.63743
|113>    H       -1.81633        -5.52159         3.11631
|114>    H        0.17198        -8.16512        -2.01135
|115>    H       -2.72864        -8.17823         4.18368
|116>    H       -3.39608        -7.76556         2.63407
|117>    H       -4.31121        -5.62662         3.47214
|118>    H       -4.87606        -6.98645         4.46975
|119>    H       -3.59486        -5.90464         5.07114
|120>    H        0.36276        -6.23727         3.94169
|121>    H       -0.20303        -7.88924         4.17142
|122>    H       -1.19497        -5.44869         5.78379
|123>    H       -0.04875        -6.69041         6.34360
|124>    H       -1.73627        -7.12476         6.02681
|125>    H        1.68148        -9.22762        -0.58158
|126>    H        0.91230        -8.67791         0.89313
|127>    H        2.34113        -6.83437        -1.13677
|128>    H        3.04862        -7.45922         0.37009
|129>    H        1.69251        -6.32174         0.43477
|130>    H       -1.93642        -9.25961        -1.50953
|131>    H       -1.52814        -9.40288         0.19911
|132>    H        0.03842       -10.81353        -2.04735
|133>    H       -1.21054       -11.56364        -1.01429
|134>    H        0.30495       -11.00422        -0.30103
|135>    H        0.11589         6.38724         2.78642
|136>    H        0.67543         7.98684         2.30769
|137>    H        2.41368         5.60330         1.60888
|138>    H        3.57997         8.08065         2.84174
|139>    H        2.76105         8.33754         1.31278
|140>    H        5.04676         6.31112         1.70576
|141>    H        5.17570         7.90243         0.92849
|142>    H        4.18826         6.62377         0.18604
|143>    H        1.67218         5.14327         3.89942
|144>    H        2.21515         6.73219         4.43560
|145>    H        4.06738         4.55078         3.26326
|146>    H        3.85155         4.86993         4.99904
|147>    H        4.60678         6.09447         3.95964
|148>    H       -1.46852         7.41250        -0.54305
|149>    H       -1.13955         8.30190         0.93487
|150>    H       -2.03497         6.02827         2.10515
|151>    H       -3.67815         8.26444         0.83205
|152>    H       -2.86844         8.29787         2.39341
|153>    H       -2.24865         5.12071        -0.40009
|154>    H       -3.73582         6.04881        -0.42179
|155>    H       -3.07410         3.81143         1.61335
|156>    H       -4.06830         3.60132         0.15787
|157>    H       -4.63431         4.62946         1.48900
|158>    H        3.51089         9.08778        -3.64396
|159>    H        0.22801        14.32222        -2.18972
|160>    H        1.34896        16.36975        -2.97731
|161>    H        3.41645        16.26064        -4.35629
|162>    H        4.44516        14.01582        -4.89171
|163>    H       -5.35731         6.62274         1.67855
|164>    H       -5.25668         8.00380         2.78261
|165>    H       -4.47691         6.46808         3.21746
|166> *
|167> 
|168>                          ****END OF INPUT****
================================================================================

                     *******************************
                     * Energy+Gradient Calculation *
                     *******************************

---------------------------------
CARTESIAN COORDINATES (ANGSTROEM)
---------------------------------
  S      2.554500   -1.092240   -0.603120
  N      1.252070   -1.927020   -0.055660
  C      0.352070   -1.038040    0.366770
  C      0.803900    0.338700    0.210060
  N      2.021950    0.433680   -0.323110
  C     -0.960730   -1.323230    0.890250
  C     -1.692650   -0.213100    1.304980
  C     -1.250160    1.118590    1.158650
  C     -0.024930    1.451010    0.590540
  C      0.359370    2.825540    0.344260
  C     -1.522440   -2.657620    0.876240
  C     -0.887240   -3.890570    0.718220
  C     -1.800220   -4.958760    0.644970
  C     -3.128870   -4.538380    0.725170
  S     -3.281900   -2.837030    0.928410
  C     -1.703420   -6.478250    0.505870
  C     -3.197100   -6.821160    0.364420
  C     -3.983970   -5.659930    0.530110
  C     -3.979860   -7.935810    0.065460
  C     -5.357310   -7.649940   -0.005310
  S     -5.661080   -5.937270    0.340730
  C     -0.158670    3.967520    0.958740
  C      0.291020    5.157960    0.361620
  C      1.177450    4.912630   -0.693150
  S      1.478550    3.237540   -0.954850
  C      0.186990    6.654220    0.654860
  C      1.069280    7.205760   -0.465470
  C      1.647350    6.159300   -1.205510
  C      1.339510    8.460450   -1.011720
  C      2.150400    8.394590   -2.159400
  S      2.586550    6.712440   -2.526600
  C     -6.445450   -8.423080   -0.467760
  C     -6.540390   -9.735610   -0.885830
  C     -5.693570  -10.905330   -0.774530
  C     -6.065970  -11.829220   -1.877380
  C     -7.243150  -11.346940   -2.489690
  C     -7.633540  -10.054780   -1.861520
  C     -5.487260  -13.016580   -2.337670
  C     -6.103600  -13.688880   -3.401920
  C     -7.279010  -13.206250   -3.992950
  C     -7.864170  -12.020790   -3.533250
  C     -4.841170  -11.216110    0.275990
  O     -8.597310   -9.366620   -2.128820
  C     -4.006830  -12.375290    0.284390
  C     -4.826590  -10.455860    1.482100
  N     -3.296570  -13.296200    0.294000
  N     -4.827700   -9.859250    2.479710
  C     -1.053370   -7.048580    1.802770
  C     -0.871260   -6.822680   -0.777530
  C     -1.620420   -6.607150    3.163600
  C     -0.154570   -8.186300   -0.953620
  C     -2.942420   -7.318690    3.525570
  C     -3.984790   -6.411690    4.174610
  C     -0.523480   -6.832100    4.225230
  C     -0.900050   -6.505230    5.669170
  C      1.145490   -8.373550   -0.139330
  C      2.101110   -7.182090   -0.118090
  C     -1.092990   -9.398270   -0.813460
  C     -0.453610  -10.765660   -1.061100
  C      0.774040    6.912940    2.075900
  C      2.235640    6.457000    2.284660
  C      3.257850    7.564850    1.918580
  C      4.484290    7.073250    1.147470
  C      2.432990    5.921510    3.715490
  C      3.814800    5.331470    3.999510
  C     -1.230550    7.282390    0.524830
  C     -2.411350    6.560760    1.211540
  C     -3.409850    7.632740    1.698460
  C     -3.038510    5.520720    0.254090
  C     -3.746860    4.334560    0.914300
  C      2.655920    9.392560   -3.023870
  C      2.338760   10.718980   -3.226220
  C      1.253820   11.602260   -2.833210
  C      1.709240   12.997520   -3.083190
  C      2.908220   12.955080   -3.825710
  C      3.344050   11.544330   -3.977290
  C      1.143730   14.238820   -2.770250
  C      1.782880   15.398790   -3.227240
  C      2.953110   15.339210   -3.996700
  C      3.530310   14.101910   -4.302140
  O      4.334410   11.139010   -4.551430
  C     -0.051890   11.254970   -2.512710
  C     -1.038280   12.216440   -2.128230
  C     -0.566060    9.934120   -2.667500
  N     -1.022390    8.873590   -2.805780
  N     -1.851120   12.976130   -1.790770
  C     -4.690950    7.149640    2.377810
  H     -2.685040   -0.369380    1.732860
  H     -1.933300    1.915280    1.453310
  H      0.195100   -3.968200    0.630830
  H     -3.588640   -8.922730   -0.151670
  H     -0.841600    3.913230    1.804700
  H      0.983270    9.403550   -0.600980
  H     -7.363420   -7.861060   -0.686250
  H     -4.576580  -13.419010   -1.899130
  H     -5.651700  -14.608440   -3.779820
  H     -7.738180  -13.760540   -4.814470
  H     -8.777610  -11.616610   -3.973170
  H      0.004330   -6.752350    1.761040
  H     -1.070940   -8.147010    1.757260
  H     -0.105040   -6.040850   -0.883840
  H     -1.545110   -6.677440   -1.637430
  H     -1.816330   -5.521590    3.116310
  H      0.171980   -8.165120   -2.011350
  H     -2.728640   -8.178230    4.183680
  H     -3.396080   -7.765560    2.634070
  H     -4.311210   -5.626620    3.472140
  H     -4.876060   -6.986450    4.469750
  H     -3.594860   -5.904640    5.071140
  H      0.362760   -6.237270    3.941690
  H     -0.203030   -7.889240    4.171420
  H     -1.194970   -5.448690    5.783790
  H     -0.048750   -6.690410    6.343600
  H     -1.736270   -7.124760    6.026810
  H      1.681480   -9.227620   -0.581580
  H      0.912300   -8.677910    0.893130
  H      2.341130   -6.834370   -1.136770
  H      3.048620   -7.459220    0.370090
  H      1.692510   -6.321740    0.434770
  H     -1.936420   -9.259610   -1.509530
  H     -1.528140   -9.402880    0.199110
  H      0.038420  -10.813530   -2.047350
  H     -1.210540  -11.563640   -1.014290
  H      0.304950  -11.004220   -0.301030
  H      0.115890    6.387240    2.786420
  H      0.675430    7.986840    2.307690
  H      2.413680    5.603300    1.608880
  H      3.579970    8.080650    2.841740
  H      2.761050    8.337540    1.312780
  H      5.046760    6.311120    1.705760
  H      5.175700    7.902430    0.928490
  H      4.188260    6.623770    0.186040
  H      1.672180    5.143270    3.899420
  H      2.215150    6.732190    4.435600
  H      4.067380    4.550780    3.263260
  H      3.851550    4.869930    4.999040
  H      4.606780    6.094470    3.959640
  H     -1.468520    7.412500   -0.543050
  H     -1.139550    8.301900    0.934870
  H     -2.034970    6.028270    2.105150
  H     -3.678150    8.264440    0.832050
  H     -2.868440    8.297870    2.393410
  H     -2.248650    5.120710   -0.400090
  H     -3.735820    6.048810   -0.421790
  H     -3.074100    3.811430    1.613350
  H     -4.068300    3.601320    0.157870
  H     -4.634310    4.629460    1.489000
  H      3.510890    9.087780   -3.643960
  H      0.228010   14.322220   -2.189720
  H      1.348960   16.369750   -2.977310
  H      3.416450   16.260640   -4.356290
  H      4.445160   14.015820   -4.891710
  H     -5.357310    6.622740    1.678550
  H     -5.256680    8.003800    2.782610
  H     -4.476910    6.468080    3.217460

----------------------------
CARTESIAN COORDINATES (A.U.)
----------------------------
  NO LB      ZA    FRAG     MASS         X           Y           Z
   0 S    16.0000    0    32.060    4.827305   -2.064034   -1.139732
   1 N     7.0000    0    14.007    2.366069   -3.641540   -0.105182
   2 C     6.0000    0    12.011    0.665316   -1.961611    0.693095
   3 C     6.0000    0    12.011    1.519151    0.640050    0.396956
   4 N     7.0000    0    14.007    3.820932    0.819536   -0.610589
   5 C     6.0000    0    12.011   -1.815517   -2.500542    1.682329
   6 C     6.0000    0    12.011   -3.198645   -0.402701    2.466055
   7 C     6.0000    0    12.011   -2.362460    2.113829    2.189531
   8 C     6.0000    0    12.011   -0.047111    2.742012    1.115959
   9 C     6.0000    0    12.011    0.679111    5.339497    0.650557
  10 C     6.0000    0    12.011   -2.876995   -5.022174    1.655854
  11 C     6.0000    0    12.011   -1.676641   -7.352112    1.357239
  12 C     6.0000    0    12.011   -3.401923   -9.370698    1.218817
  13 C     6.0000    0    12.011   -5.912707   -8.576295    1.370373
  14 S    16.0000    0    32.060   -6.201892   -5.361210    1.754441
  15 C     6.0000    0    12.011   -3.218997  -12.242118    0.955956
  16 C     6.0000    0    12.011   -6.041643  -12.890124    0.688654
  17 C     6.0000    0    12.011   -7.528612  -10.695718    1.001763
  18 C     6.0000    0    12.011   -7.520845  -14.996508    0.123701
  19 C     6.0000    0    12.011  -10.123849  -14.456292   -0.010034
  20 S    16.0000    0    32.060  -10.697891  -11.219814    0.643886
  21 C     6.0000    0    12.011   -0.299843    7.497526    1.811756
  22 C     6.0000    0    12.011    0.549948    9.747132    0.683363
  23 C     6.0000    0    12.011    2.225058    9.283525   -1.309864
  24 S    16.0000    0    32.060    2.794055    6.118064   -1.804405
  25 C     6.0000    0    12.011    0.353360   12.574653    1.237506
  26 C     6.0000    0    12.011    2.020646   13.616913   -0.879611
  27 C     6.0000    0    12.011    3.113040   11.639390   -2.278084
  28 C     6.0000    0    12.011    2.531307   15.987933   -1.911874
  29 C     6.0000    0    12.011    4.063667   15.863476   -4.080675
  30 S    16.0000    0    32.060    4.887871   12.684673   -4.774582
  31 C     6.0000    0    12.011  -12.180135  -15.917314   -0.883938
  32 C     6.0000    0    12.011  -12.359546  -18.397637   -1.673976
  33 C     6.0000    0    12.011  -10.759288  -20.608087   -1.463650
  34 C     6.0000    0    12.011  -11.463022  -22.353986   -3.547734
  35 C     6.0000    0    12.011  -13.687570  -21.442609   -4.704832
  36 C     6.0000    0    12.011  -14.425300  -19.000781   -3.517763
  37 C     6.0000    0    12.011  -10.369419  -24.597771   -4.417556
  38 C     6.0000    0    12.011  -11.534132  -25.868234   -6.428697
  39 C     6.0000    0    12.011  -13.755335  -24.956196   -7.545582
  40 C     6.0000    0    12.011  -14.861128  -22.716001   -6.676875
  41 C     6.0000    0    12.011   -9.148485  -21.195376    0.521546
  42 O     8.0000    0    15.999  -16.246561  -17.700347   -4.022887
  43 C     6.0000    0    12.011   -7.571811  -23.385909    0.537419
  44 C     6.0000    0    12.011   -9.120933  -19.758712    2.800763
  45 N     7.0000    0    14.007   -6.229614  -25.126177    0.555579
  46 N     7.0000    0    14.007   -9.123031  -18.631282    4.685973
  47 C     6.0000    0    12.011   -1.990581  -13.319886    3.406742
  48 C     6.0000    0    12.011   -1.646443  -12.892997   -1.469319
  49 C     6.0000    0    12.011   -3.062150  -12.485704    5.978338
  50 C     6.0000    0    12.011   -0.292095  -15.469865   -1.802081
  51 C     6.0000    0    12.011   -5.560368  -13.830320    6.662362
  52 C     6.0000    0    12.011   -7.530162  -12.116338    7.888870
  53 C     6.0000    0    12.011   -0.989234  -12.910798    7.984528
  54 C     6.0000    0    12.011   -1.700848  -12.293103   10.713179
  55 C     6.0000    0    12.011    2.164662  -15.823716   -0.263296
  56 C     6.0000    0    12.011    3.970522  -13.572183   -0.223158
  57 C     6.0000    0    12.011   -2.065452  -17.760156   -1.537217
  58 C     6.0000    0    12.011   -0.857199  -20.344149   -2.005188
  59 C     6.0000    0    12.011    1.462724   13.063563    3.922882
  60 C     6.0000    0    12.011    4.224747   12.201962    4.317382
  61 C     6.0000    0    12.011    6.156444   14.295495    3.625591
  62 C     6.0000    0    12.011    8.474080   13.366505    2.168404
  63 C     6.0000    0    12.011    4.597685   11.190032    7.021259
  64 C     6.0000    0    12.011    7.208927   10.075018    7.557979
  65 C     6.0000    0    12.011   -2.325402   13.761723    0.991785
  66 C     6.0000    0    12.011   -4.556791   12.398040    2.289479
  67 C     6.0000    0    12.011   -6.443683   14.423788    3.209624
  68 C     6.0000    0    12.011   -5.741952   10.432649    0.480161
  69 C     6.0000    0    12.011   -7.080539    8.191131    1.727777
  70 C     6.0000    0    12.011    5.018961   17.749366   -5.714286
  71 C     6.0000    0    12.011    4.419616   20.255937   -6.096672
  72 C     6.0000    0    12.011    2.369376   21.925094   -5.353991
  73 C     6.0000    0    12.011    3.229995   24.561753   -5.826385
  74 C     6.0000    0    12.011    5.495739   24.481553   -7.229544
  75 C     6.0000    0    12.011    6.319339   21.815622   -7.515989
  76 C     6.0000    0    12.011    2.161336   26.907470   -5.235014
  77 C     6.0000    0    12.011    3.369155   29.099496   -6.098600
  78 C     6.0000    0    12.011    5.580569   28.986906   -7.552668
  79 C     6.0000    0    12.011    6.671319   26.648748   -8.129866
  80 O     8.0000    0    15.999    8.190848   21.049678   -8.600956
  81 C     6.0000    0    12.011   -0.098058   21.268811   -4.748334
  82 C     6.0000    0    12.011   -1.962065   23.085726   -4.021772
  83 C     6.0000    0    12.011   -1.069698   18.772766   -5.040844
  84 N     7.0000    0    14.007   -1.932037   16.768655   -5.302156
  85 N     7.0000    0    14.007   -3.498110   24.521332   -3.384065
  86 C     6.0000    0    12.011   -8.864611   13.510862    4.493410
  87 H     1.0000    0     1.008   -5.073990   -0.698027    3.274631
  88 H     1.0000    0     1.008   -3.653408    3.619355    2.746358
  89 H     1.0000    0     1.008    0.368686   -7.498811    1.192096
  90 H     1.0000    0     1.008   -6.781547  -16.861516   -0.286615
  91 H     1.0000    0     1.008   -1.590394    7.394933    3.410389
  92 H     1.0000    0     1.008    1.858111   17.770134   -1.135688
  93 H     1.0000    0     1.008  -13.914847  -14.855251   -1.296825
  94 H     1.0000    0     1.008   -8.648483  -25.358254   -3.588836
  95 H     1.0000    0     1.008  -10.680165  -27.605951   -7.142825
  96 H     1.0000    0     1.008  -14.623041  -26.003652   -9.098030
  97 H     1.0000    0     1.008  -16.587279  -21.952212   -7.508203
  98 H     1.0000    0     1.008    0.008183  -12.760092    3.327883
  99 H     1.0000    0     1.008   -2.023783  -15.395618    3.320740
 100 H     1.0000    0     1.008   -0.198497  -11.415552   -1.670216
 101 H     1.0000    0     1.008   -2.919835  -12.618533   -3.094294
 102 H     1.0000    0     1.008   -3.432366  -10.434293    5.888972
 103 H     1.0000    0     1.008    0.324995  -15.429841   -3.800901
 104 H     1.0000    0     1.008   -5.156382  -15.454615    7.906009
 105 H     1.0000    0     1.008   -6.417661  -14.674782    4.977671
 106 H     1.0000    0     1.008   -8.147006  -10.632771    6.561394
 107 H     1.0000    0     1.008   -9.214418  -13.202477    8.446603
 108 H     1.0000    0     1.008   -6.793301  -11.158153    9.583066
 109 H     1.0000    0     1.008    0.685517  -11.786732    7.448715
 110 H     1.0000    0     1.008   -0.383671  -14.908503    7.882841
 111 H     1.0000    0     1.008   -2.258166  -10.296532   10.929779
 112 H     1.0000    0     1.008   -0.092124  -12.643043   11.987667
 113 H     1.0000    0     1.008   -3.281075  -13.463845   11.389020
 114 H     1.0000    0     1.008    3.177537  -17.437675   -1.099027
 115 H     1.0000    0     1.008    1.723997  -16.398873    1.687771
 116 H     1.0000    0     1.008    4.424095  -12.915088   -2.148184
 117 H     1.0000    0     1.008    5.761057  -14.095883    0.699369
 118 H     1.0000    0     1.008    3.198380  -11.946357    0.821596
 119 H     1.0000    0     1.008   -3.659303  -17.498127   -2.852598
 120 H     1.0000    0     1.008   -2.887766  -17.768868    0.376263
 121 H     1.0000    0     1.008    0.072603  -20.434610   -3.868931
 122 H     1.0000    0     1.008   -2.287589  -21.852113   -1.916730
 123 H     1.0000    0     1.008    0.576272  -20.794962   -0.568864
 124 H     1.0000    0     1.008    0.219000   12.070134    5.265571
 125 H     1.0000    0     1.008    1.276378   15.092940    4.360902
 126 H     1.0000    0     1.008    4.561194   10.588702    3.040343
 127 H     1.0000    0     1.008    6.765163   15.270215    5.370110
 128 H     1.0000    0     1.008    5.217628   15.755667    2.480795
 129 H     1.0000    0     1.008    9.536994   11.926288    3.223419
 130 H     1.0000    0     1.008    9.780656   14.933428    1.754592
 131 H     1.0000    0     1.008    7.914664   12.517111    0.351565
 132 H     1.0000    0     1.008    3.159962    9.719372    7.368836
 133 H     1.0000    0     1.008    4.186027   12.721995    8.382069
 134 H     1.0000    0     1.008    7.686234    8.599728    6.166668
 135 H     1.0000    0     1.008    7.278375    9.202834    9.446817
 136 H     1.0000    0     1.008    8.705553   11.516879    7.482635
 137 H     1.0000    0     1.008   -2.775101   14.007595   -1.026216
 138 H     1.0000    0     1.008   -2.153437   15.688317    1.766648
 139 H     1.0000    0     1.008   -3.845536   11.391779    3.978157
 140 H     1.0000    0     1.008   -6.950696   15.617528    1.572347
 141 H     1.0000    0     1.008   -5.420566   15.680702    4.522889
 142 H     1.0000    0     1.008   -4.249333    9.676740   -0.756061
 143 H     1.0000    0     1.008   -7.059677   11.430594   -0.797068
 144 H     1.0000    0     1.008   -5.809207    7.202559    3.048790
 145 H     1.0000    0     1.008   -7.687973    6.805509    0.298331
 146 H     1.0000    0     1.008   -8.757577    8.748412    2.813802
 147 H     1.0000    0     1.008    6.634621   17.173415   -6.886086
 148 H     1.0000    0     1.008    0.430876   27.065073   -4.137971
 149 H     1.0000    0     1.008    2.549165   30.934344   -5.626301
 150 H     1.0000    0     1.008    6.456155   30.728156   -8.232195
 151 H     1.0000    0     1.008    8.400135   26.486061   -9.243992
 152 H     1.0000    0     1.008  -10.123849   12.515165    3.172000
 153 H     1.0000    0     1.008   -9.933686   15.124990    5.258371
 154 H     1.0000    0     1.008   -8.460134   12.222900    6.080118

--------------------------------
INTERNAL COORDINATES (ANGSTROEM)
--------------------------------
 S      0   0   0     0.000000000000     0.00000000     0.00000000
 N      1   0   0     1.641003962488     0.00000000     0.00000000
 C      2   1   0     1.333691323095   107.58855448     0.00000000
 C      3   2   1     1.457436585447   112.72989494     0.00000000
 N      4   3   2     1.333018098827   113.17822242     0.03767581
 C      3   2   1     1.441807368028   126.69764136   177.95485615
 C      6   3   2     1.392873460225   115.39868116   177.96012269
 C      7   6   3     1.410889125729   123.81992049     4.02174237
 C      8   7   6     1.390841680926   122.97236242   359.47314316
 C      9   8   7     1.448334577817   122.00737040   174.53207438
 C      6   3   2     1.447864315570   122.14268246   352.77609479
 C     11   6   3     1.395928029269   129.68633170    17.78424898
 C     12  11   6     1.407099114846   112.40545931   185.25285995
 C     13  12  11     1.395873277522   112.70442970     0.97493595
 S     14  13  12     1.720266404078   112.91148762   358.64489482
 C     13  12  11     1.528911020988   135.89963478   181.38057168
 C     16  13  12     1.539050133361    99.69180782   185.57271227
 C     17  16  13     1.412470419478   110.28615328   355.22180259
 C     17  16  13     1.394465819481   137.95226929   171.75395769
 C     19  17  16     1.408580332214   113.42035839   183.66831915
 S     18  17  16     1.710403523178   113.57496705   178.20928494
 C     10   9   8     1.396448864943   127.07391702    21.24087888
 C     22  10   9     1.405674494362   112.76543696   188.52838543
 C     23  22  10     1.399458719184   111.98342868   358.71566858
 S     24  23  22     1.721939199885   113.31834136   359.50246018
 C     23  22  10     1.528268931209   136.54040827   187.05753221
 C     26  23  22     1.528977215200    99.97946859   175.74115473
 C     27  26  23     1.406023704672   110.75862717   356.36399268
 C     27  26  23     1.394869281151   136.32039126   168.70644108
 C     29  27  26     1.406786946947   112.89497490   186.48815364
 S     28  27  26     1.712699415455   113.02134791   177.11608223
 C     20  19  17     1.412676226777   131.19477476   169.19643599
 C     32  20  19     1.380771932435   132.24627803     6.65922053
 C     33  32  20     1.448356544778   134.76776988    15.27917509
 C     34  33  32     1.486113257662   107.37008983   203.23436469
 C     35  34  33     1.411832244603   108.56750591   350.29545920
 C     36  35  34     1.488851693957   109.39716279     3.25122192
 C     35  34  33     1.398783728029   131.93154457   171.74308961
 C     38  35  34     1.401602778286   118.36557840   178.50666716
 C     39  38  35     1.401369632146   121.59279778   359.30644966
 C     36  35  34     1.388797010545   122.20738558   181.97173230
 C     34  33  32     1.388078614056   126.72818040    32.54110218
 O     37  36  35     1.214028866420   127.38850503   180.74538093
 C     42  34  33     1.428247901451   123.01749923   182.04885471
 C     42  34  33     1.425795907905   121.80998458     7.75819675
 N     44  42  34     1.163029168938   178.09873050   120.12494602
 N     45  42  34     1.162398570328   178.51162853   108.75890674
 C     16  13  12     1.558778663377   108.32074801    66.64769044
 C     16  13  12     1.567876860758   109.05051878   304.16324532
 C     48  16  13     1.538916643714   118.49635405    49.77095534
 C     49  16  13     1.550519831734   122.10621853   157.58141404
 C     50  48  16     1.544343048840   112.98709112    77.16550807
 C     52  50  48     1.526576935009   114.23096058   220.56754629
 C     50  48  16     1.543028879509   107.73606317   201.85930684
 C     54  50  48     1.527616341036   116.35255702   182.25912791
 C     51  49  16     1.545408285923   115.82110984   284.40535094
 C     56  51  49     1.527493912787   116.04695104   316.81135437
 C     51  49  16     1.539203756135   113.59921819    55.65472909
 C     58  51  49     1.529669168840   115.74000470   176.48524171
 C     26  23  22     1.559140283137   108.16254684    57.36678812
 C     60  26  23     1.545230268018   115.48754354    57.44945942
 C     61  60  26     1.551212259170   112.37694066    89.15672230
 C     62  61  60     1.529848445337   114.69201583   221.83475679
 C     61  60  26     1.540445082273   110.44051281   215.70595523
 C     64  61  60     1.529121786549   114.98808034   175.06536335
 C     26  23  22     1.555932196916   116.18370442   292.31116086
 C     66  26  23     1.544865405464   118.07454903    48.20815130
 C     67  66  26     1.543772799605   108.07194471   146.22692304
 C     67  66  26     1.546519760527   110.42016355   271.00536894
 C     69  67  66     1.531212758633   116.20745050   153.58231839
 C     30  29  27     1.413790285792   132.21335925   179.50834930
 C     71  30  29     1.378740731429   133.36023117   344.62320375
 C     72  71  30     1.453181069963   135.79183318   347.75719265
 C     73  72  71     1.488841107842   107.20766243   165.14654144
 C     74  73  72     1.410918191959   108.66975458    10.52068208
 C     75  74  73     1.484297762513   109.38130615   354.77276754
 C     74  73  72     1.399485153083   132.07238219   187.47005456
 C     77  74  73     1.401029258617   118.49468120   184.30201809
 C     78  77  74     1.401804808417   121.64743938     0.83805571
 C     75  74  73     1.388956645076   122.43112810   175.10168236
 O     76  75  74     1.214386253051   127.22656227   180.39058273
 C     73  72  71     1.388599725695   127.76570209   334.42043257
 C     82  73  72     1.430110017936   122.85166499   179.54070469
 C     82  73  72     1.425824482712   123.07367124   352.94571309
 N     84  82  73     1.162790741363   177.91379590   217.12986687
 N     83  82  73     1.162633653951   178.27783631   222.02672580
 C     68  67  66     1.528436862451   117.57039687   178.18513229
 H      7   6   3     1.091944433064   118.69666374   181.45170665
 H      8   7   6     1.090054921231   117.72700121   175.73356210
 H     12  11   6     1.088633687059   121.63312719     3.28114903
 H     19  17  16     1.083609529166   124.63263151     0.29664486
 H     22  10   9     1.088572051175   122.26989013     8.15303559
 H     29  27  26     1.088600888848   124.61920806     7.36072833
 H     32  20  19     1.098304730664   115.39536284   197.38121819
 H     38  35  34     1.087936256818   121.84779314   357.95347285
 H     39  38  35     1.092068044400   118.99163333   179.04177727
 H     40  39  38     1.092231478854   119.67328651   180.58466218
 H     41  36  35     1.091450279399   119.82945747   179.52343048
 H     48  16  13     1.099191928555   105.72929898   288.41626219
 H     48  16  13     1.099512769321   108.93050337   174.37108282
 H     49  16  13     1.099842285694   107.02082571    34.02146954
 H     49  16  13     1.102087333245   106.57121675   282.22179199
 H     50  48  16     1.104109408437   108.03103006   317.59269222
 H     51  49  16     1.107192958702   103.17921844   170.37674488
 H     52  50  48     1.103458051808   109.44115192    96.78646838
 H     52  50  48     1.095569460372   110.58968683   342.37244117
 H     53  52  50     1.102882143386   110.74567611    64.33980721
 H     53  52  50     1.100826457758   110.89221107   183.75700318
 H     53  52  50     1.101322454279   112.20297109   304.60640431
 H     54  50  48     1.104372671746   108.38014573    59.09227302
 H     54  50  48     1.105951489985   108.17128646   304.99290033
 H     55  54  50     1.102901773686   111.66195226   300.45442731
 H     55  54  50     1.101752761422   110.62049835   180.52342323
 H     55  54  50     1.100448853378   111.96555177    61.18303712
 H     56  51  49     1.101047640886   106.96949698   196.45796075
 H     56  51  49     1.101356544131   110.44550359    82.27050658
 H     57  56  51     1.102827158353   111.66941370   307.12733881
 H     57  56  51     1.101315553963   110.37285192   187.54489193
 H     57  56  51     1.101276651028   112.59594098    67.98102699
 H     58  51  49     1.102322187657   108.05575427    53.62863123
 H     58  51  49     1.102122851365   109.12762253   298.59256032
 H     59  58  51     1.103210823143   111.71172321   304.98372396
 H     59  58  51     1.100866150538   110.71287952   184.25351965
 H     59  58  51     1.100013887231   111.73048790    65.45946671
 H     60  26  23     1.101980300595   106.47644237   295.41871398
 H     60  26  23     1.103046574810   108.62761927   181.65629974
 H     61  60  26     1.103259053894   107.35005977   331.09084048
 H     62  61  60     1.105457063843   109.15800348    98.28261796
 H     62  61  60     1.100387984349   109.50623990   343.49953287
 H     63  62  61     1.099500960391   112.14266449   301.14159046
 H     63  62  61     1.101607689198   111.19133507   180.67792348
 H     63  62  61     1.101822887854   110.82521832    61.05566891
 H     64  61  60     1.103775157629   108.15395705    53.45131129
 H     64  61  60     1.105990388792   108.94939802   298.87902653
 H     65  64  61     1.102423509818   110.87012315   305.78965797
 H     65  64  61     1.101557967154   111.12226407   186.22829674
 H     65  64  61     1.100450333863   112.09119596    66.01912145
 H     66  26  23     1.101783112686   108.99286693   283.58150807
 H     66  26  23     1.102639760620   105.48714474   170.58668798
 H     67  66  26     1.106230688690   108.89697341    29.82171333
 H     68  67  66     1.105303609014   107.85557276    54.53739338
 H     68  67  66     1.103847003665   107.44232578   301.17476214
 H     69  67  66     1.100835270193   108.74159436    31.71555072
 H     69  67  66     1.105411262201   108.24454261   277.87960244
 H     70  69  67     1.102244036954   111.02339817   304.92111002
 H     70  69  67     1.101431303396   110.76847101   185.78556780
 H     70  69  67     1.097640014987   113.05702721    64.92113447
 H     71  30  29     1.099261641922   115.29692603   161.33041031
 H     77  74  73     1.087434485061   121.84862808     4.10058132
 H     78  77  74     1.092481072101   118.68719326   180.53072146
 H     79  78  77     1.092255541803   119.93266576   178.69521395
 H     80  75  74     1.091766822861   119.69806160   181.39240165
 H     87  68  67     1.100283512191   112.11748006   292.59528292
 H     87  68  67     1.101591021432   110.40790903   173.28000764
 H     87  68  67     1.102428808450   111.78971233    53.77248058

---------------------------
INTERNAL COORDINATES (A.U.)
---------------------------
 S      0   0   0     0.000000000000     0.00000000     0.00000000
 N      1   0   0     3.101048073781     0.00000000     0.00000000
 C      2   1   0     2.520311347837   107.58855448     0.00000000
 C      3   2   1     2.754156004053   112.72989494     0.00000000
 N      4   3   2     2.519039138343   113.17822242     0.03767581
 C      3   2   1     2.724621063443   126.69764136   177.95485615
 C      6   3   2     2.632149379033   115.39868116   177.96012269
 C      7   6   3     2.666194052955   123.81992049     4.02174237
 C      8   7   6     2.628309872592   122.97236242   359.47314316
 C      9   8   7     2.736955702362   122.00737040   174.53207438
 C      6   3   2     2.736067035504   122.14268246   352.77609479
 C     11   6   3     2.637921677984   129.68633170    17.78424898
 C     12  11   6     2.659031970342   112.40545931   185.25285995
 C     13  12  11     2.637818212176   112.70442970     0.97493595
 S     14  13  12     3.250832381093   112.91148762   358.64489482
 C     13  12  11     2.889223112802   135.89963478   181.38057168
 C     16  13  12     2.908383258428    99.69180782   185.57271227
 C     17  16  13     2.669182265078   110.28615328   355.22180259
 C     17  16  13     2.635158501933   137.95226929   171.75395769
 C     19  17  16     2.661831065512   113.42035839   183.66831915
 S     18  17  16     3.232194237301   113.57496705   178.20928494
 C     10   9   8     2.638905914767   127.07391702    21.24087888
 C     22  10   9     2.656339827783   112.76543696   188.52838543
 C     23  22  10     2.644593714986   111.98342868   358.71566858
 S     24  23  22     3.253993507046   113.31834136   359.50246018
 C     23  22  10     2.888009738966   136.54040827   187.05753221
 C     26  23  22     2.889348201733    99.97946859   175.74115473
 C     27  26  23     2.656999739632   110.75862717   356.36399268
 C     27  26  23     2.635920933996   136.32039126   168.70644108
 C     29  27  26     2.658442058505   112.89497490   186.48815364
 S     28  27  26     3.236532844937   113.02134791   177.11608223
 C     20  19  17     2.669571184509   131.19477476   169.19643599
 C     32  20  19     2.609280805707   132.24627803     6.65922053
 C     33  32  20     2.736997213902   134.76776988    15.27917509
 C     34  33  32     2.808347060972   107.37008983   203.23436469
 C     35  34  33     2.667976289338   108.56750591   350.29545920
 C     36  35  34     2.813521955604   109.39716279     3.25122192
 C     35  34  33     2.643318166561   131.93154457   171.74308961
 C     38  35  34     2.648645399504   118.36557840   178.50666716
 C     39  38  35     2.648204817149   121.59279778   359.30644966
 C     36  35  34     2.624446005539   122.20738558   181.97173230
 C     34  33  32     2.623088432919   126.72818040    32.54110218
 O     37  36  35     2.294182076208   127.38850503   180.74538093
 C     42  34  33     2.698997385091   123.01749923   182.04885471
 C     42  34  33     2.694363788807   121.80998458     7.75819675
 N     44  42  34     2.197806615054   178.09873050   120.12494602
 N     45  42  34     2.196614956381   178.51162853   108.75890674
 C     16  13  12     2.945664777183   108.32074801    66.64769044
 C     16  13  12     2.962857878545   109.05051878   304.16324532
 C     48  16  13     2.908130999553   118.49635405    49.77095534
 C     49  16  13     2.930057847191   122.10621853   157.58141404
 C     50  48  16     2.918385419132   112.98709112    77.16550807
 C     52  50  48     2.884812329527   114.23096058   220.56754629
 C     50  48  16     2.915901999004   107.73606317   201.85930684
 C     54  50  48     2.886776522261   116.35255702   182.25912791
 C     51  49  16     2.920398425487   115.82110984   284.40535094
 C     56  51  49     2.886545166398   116.04695104   316.81135437
 C     51  49  16     2.908673563398   113.59921819    55.65472909
 C     58  51  49     2.890655804611   115.74000470   176.48524171
 C     26  23  22     2.946348139493   108.16254684    57.36678812
 C     60  26  23     2.920062020400   115.48754354    57.44945942
 C     61  60  26     2.931366345413   112.37694066    89.15672230
 C     62  61  60     2.890994588092   114.69201583   221.83475679
 C     61  60  26     2.911019329842   110.44051281   215.70595523
 C     64  61  60     2.889621401991   114.98808034   175.06536335
 C     26  23  22     2.940285735122   116.18370442   292.31116086
 C     66  26  23     2.919372530097   118.07454903    48.20815130
 C     67  66  26     2.917307804250   108.07194471   146.22692304
 C     67  66  26     2.922498808093   110.42016355   271.00536894
 C     69  67  66     2.893572766582   116.20745050   153.58231839
 C     30  29  27     2.671676450945   132.21335925   179.50834930
 C     71  30  29     2.605442392082   133.36023117   344.62320375
 C     72  71  30     2.746114245230   135.79183318   347.75719265
 C     73  72  71     2.813501950745   107.20766243   165.14654144
 C     74  73  72     2.666248980169   108.66975458    10.52068208
 C     75  74  73     2.804916272341   109.38130615   354.77276754
 C     74  73  72     2.644643667816   132.07238219   187.47005456
 C     77  74  73     2.647561604396   118.49468120   184.30201809
 C     78  77  74     2.649027181121   121.64743938     0.83805571
 C     75  74  73     2.624747671083   122.43112810   175.10168236
 O     76  75  74     2.294857439066   127.22656227   180.39058273
 C     73  72  71     2.624073191202   127.76570209   334.42043257
 C     82  73  72     2.702516275276   122.85166499   179.54070469
 C     82  73  72     2.694417787365   123.07367124   352.94571309
 N     84  82  73     2.197356052236   177.91379590   217.12986687
 N     83  82  73     2.197059200048   178.27783631   222.02672580
 C     68  67  66     2.888327083023   117.57039687   178.18513229
 H      7   6   3     2.063475931951   118.69666374   181.45170665
 H      8   7   6     2.059905272060   117.72700121   175.73356210
 H     12  11   6     2.057219528703   121.63312719     3.28114903
 H     19  17  16     2.047725246232   124.63263151     0.29664486
 H     22  10   9     2.057103053762   122.26989013     8.15303559
 H     29  27  26     2.057157549065   124.61920806     7.36072833
 H     32  20  19     2.075495152546   115.39536284   197.38121819
 H     38  35  34     2.055901576550   121.84779314   357.95347285
 H     39  38  35     2.063709523523   118.99163333   179.04177727
 H     40  39  38     2.064018369882   119.67328651   180.58466218
 H     41  36  35     2.062542116856   119.82945747   179.52343048
 H     48  16  13     2.077171713585   105.72929898   288.41626219
 H     48  16  13     2.077778014766   108.93050337   174.37108282
 H     49  16  13     2.078400710467   107.02082571    34.02146954
 H     49  16  13     2.082643235497   106.57121675   282.22179199
 H     50  48  16     2.086464403833   108.03103006   317.59269222
 H     51  49  16     2.092291469353   103.17921844   170.37674488
 H     52  50  48     2.085233518187   109.44115192    96.78646838
 H     52  50  48     2.070326240791   110.58968683   342.37244117
 H     53  52  50     2.084145208992   110.74567611    64.33980721
 H     53  52  50     2.080260526137   110.89221107   183.75700318
 H     53  52  50     2.081197823726   112.20297109   304.60640431
 H     54  50  48     2.086961899387   108.38014573    59.09227302
 H     54  50  48     2.089945433474   108.17128646   304.99290033
 H     55  54  50     2.084182304883   111.66195226   300.45442731
 H     55  54  50     2.082010986378   110.62049835   180.52342323
 H     55  54  50     2.079546957271   111.96555177    61.18303712
 H     56  51  49     2.080678501674   106.96949698   196.45796075
 H     56  51  49     2.081262244209   110.44550359    82.27050658
 H     57  56  51     2.084041302337   111.66941370   307.12733881
 H     57  56  51     2.081184784017   110.37285192   187.54489193
 H     57  56  51     2.081111268125   112.59594098    67.98102699
 H     58  51  49     2.083087046016   108.05575427    53.62863123
 H     58  51  49     2.082710355015   109.12762253   298.59256032
 H     59  58  51     2.084766323718   111.71172321   304.98372396
 H     59  58  51     2.080335534621   110.71287952   184.25351965
 H     59  58  51     2.078724990376   111.73048790    65.45946671
 H     60  26  23     2.082440973101   106.47644237   295.41871398
 H     60  26  23     2.084455939351   108.62761927   181.65629974
 H     61  60  26     2.084857466630   107.35005977   331.09084048
 H     62  61  60     2.089011103472   109.15800348    98.28261796
 H     62  61  60     2.079431931478   109.50623990   343.49953287
 H     63  62  61     2.077755699122   112.14266449   301.14159046
 H     63  62  61     2.081736839606   111.19133507   180.67792348
 H     63  62  61     2.082143506131   110.82521832    61.05566891
 H     64  61  60     2.085832761345   108.15395705    53.45131129
 H     64  61  60     2.090018941566   108.94939802   298.87902653
 H     65  64  61     2.083278517153   110.87012315   305.78965797
 H     65  64  61     2.081642878560   111.12226407   186.22829674
 H     65  64  61     2.079549754984   112.09119596    66.01912145
 H     66  26  23     2.082068341956   108.99286693   283.58150807
 H     66  26  23     2.083687171944   105.48714474   170.58668798
 H     67  66  26     2.090473042564   108.89697341    29.82171333
 H     68  67  66     2.088721115872   107.85557276    54.53739338
 H     68  67  66     2.085968530676   107.44232578   301.17476214
 H     69  67  66     2.080277179225   108.74159436    31.71555072
 H     69  67  66     2.088924550911   108.24454261   277.87960244
 H     70  69  67     2.082939362590   111.02339817   304.92111002
 H     70  69  67     2.081403518746   110.76847101   185.78556780
 H     70  69  67     2.074239021958   113.05702721    64.92113447
 H     71  30  29     2.077303452756   115.29692603   161.33041031
 H     77  74  73     2.054953365347   121.84862808     4.10058132
 H     78  77  74     2.064490032764   118.68719326   180.53072146
 H     79  78  77     2.064063842266   119.93266576   178.69521395
 H     80  75  74     2.063140297309   119.69806160   181.39240165
 H     87  68  67     2.079234507711   112.11748006   292.59528292
 H     87  68  67     2.081705342093   110.40790903   173.28000764
 H     87  68  67     2.083288530115   111.78971233    53.77248058

---------------------
BASIS SET INFORMATION
---------------------
There are 5 groups of distinct atoms

 Group   1 Type S   : 10s7p1d contracted to 4s3p1d pattern {5311/511/1}
 Group   2 Type N   : 7s4p1d contracted to 3s2p1d pattern {511/31/1}
 Group   3 Type C   : 7s4p1d contracted to 3s2p1d pattern {511/31/1}
 Group   4 Type O   : 7s4p1d contracted to 3s2p1d pattern {511/31/1}
 Group   5 Type H   : 4s1p contracted to 2s1p pattern {31/1}

Atom   0S    basis set group =>   1
Atom   1N    basis set group =>   2
Atom   2C    basis set group =>   3
Atom   3C    basis set group =>   3
Atom   4N    basis set group =>   2
Atom   5C    basis set group =>   3
Atom   6C    basis set group =>   3
Atom   7C    basis set group =>   3
Atom   8C    basis set group =>   3
Atom   9C    basis set group =>   3
Atom  10C    basis set group =>   3
Atom  11C    basis set group =>   3
Atom  12C    basis set group =>   3
Atom  13C    basis set group =>   3
Atom  14S    basis set group =>   1
Atom  15C    basis set group =>   3
Atom  16C    basis set group =>   3
Atom  17C    basis set group =>   3
Atom  18C    basis set group =>   3
Atom  19C    basis set group =>   3
Atom  20S    basis set group =>   1
Atom  21C    basis set group =>   3
Atom  22C    basis set group =>   3
Atom  23C    basis set group =>   3
Atom  24S    basis set group =>   1
Atom  25C    basis set group =>   3
Atom  26C    basis set group =>   3
Atom  27C    basis set group =>   3
Atom  28C    basis set group =>   3
Atom  29C    basis set group =>   3
Atom  30S    basis set group =>   1
Atom  31C    basis set group =>   3
Atom  32C    basis set group =>   3
Atom  33C    basis set group =>   3
Atom  34C    basis set group =>   3
Atom  35C    basis set group =>   3
Atom  36C    basis set group =>   3
Atom  37C    basis set group =>   3
Atom  38C    basis set group =>   3
Atom  39C    basis set group =>   3
Atom  40C    basis set group =>   3
Atom  41C    basis set group =>   3
Atom  42O    basis set group =>   4
Atom  43C    basis set group =>   3
Atom  44C    basis set group =>   3
Atom  45N    basis set group =>   2
Atom  46N    basis set group =>   2
Atom  47C    basis set group =>   3
Atom  48C    basis set group =>   3
Atom  49C    basis set group =>   3
Atom  50C    basis set group =>   3
Atom  51C    basis set group =>   3
Atom  52C    basis set group =>   3
Atom  53C    basis set group =>   3
Atom  54C    basis set group =>   3
Atom  55C    basis set group =>   3
Atom  56C    basis set group =>   3
Atom  57C    basis set group =>   3
Atom  58C    basis set group =>   3
Atom  59C    basis set group =>   3
Atom  60C    basis set group =>   3
Atom  61C    basis set group =>   3
Atom  62C    basis set group =>   3
Atom  63C    basis set group =>   3
Atom  64C    basis set group =>   3
Atom  65C    basis set group =>   3
Atom  66C    basis set group =>   3
Atom  67C    basis set group =>   3
Atom  68C    basis set group =>   3
Atom  69C    basis set group =>   3
Atom  70C    basis set group =>   3
Atom  71C    basis set group =>   3
Atom  72C    basis set group =>   3
Atom  73C    basis set group =>   3
Atom  74C    basis set group =>   3
Atom  75C    basis set group =>   3
Atom  76C    basis set group =>   3
Atom  77C    basis set group =>   3
Atom  78C    basis set group =>   3
Atom  79C    basis set group =>   3
Atom  80O    basis set group =>   4
Atom  81C    basis set group =>   3
Atom  82C    basis set group =>   3
Atom  83C    basis set group =>   3
Atom  84N    basis set group =>   2
Atom  85N    basis set group =>   2
Atom  86C    basis set group =>   3
Atom  87H    basis set group =>   5
Atom  88H    basis set group =>   5
Atom  89H    basis set group =>   5
Atom  90H    basis set group =>   5
Atom  91H    basis set group =>   5
Atom  92H    basis set group =>   5
Atom  93H    basis set group =>   5
Atom  94H    basis set group =>   5
Atom  95H    basis set group =>   5
Atom  96H    basis set group =>   5
Atom  97H    basis set group =>   5
Atom  98H    basis set group =>   5
Atom  99H    basis set group =>   5
Atom 100H    basis set group =>   5
Atom 101H    basis set group =>   5
Atom 102H    basis set group =>   5
Atom 103H    basis set group =>   5
Atom 104H    basis set group =>   5
Atom 105H    basis set group =>   5
Atom 106H    basis set group =>   5
Atom 107H    basis set group =>   5
Atom 108H    basis set group =>   5
Atom 109H    basis set group =>   5
Atom 110H    basis set group =>   5
Atom 111H    basis set group =>   5
Atom 112H    basis set group =>   5
Atom 113H    basis set group =>   5
Atom 114H    basis set group =>   5
Atom 115H    basis set group =>   5
Atom 116H    basis set group =>   5
Atom 117H    basis set group =>   5
Atom 118H    basis set group =>   5
Atom 119H    basis set group =>   5
Atom 120H    basis set group =>   5
Atom 121H    basis set group =>   5
Atom 122H    basis set group =>   5
Atom 123H    basis set group =>   5
Atom 124H    basis set group =>   5
Atom 125H    basis set group =>   5
Atom 126H    basis set group =>   5
Atom 127H    basis set group =>   5
Atom 128H    basis set group =>   5
Atom 129H    basis set group =>   5
Atom 130H    basis set group =>   5
Atom 131H    basis set group =>   5
Atom 132H    basis set group =>   5
Atom 133H    basis set group =>   5
Atom 134H    basis set group =>   5
Atom 135H    basis set group =>   5
Atom 136H    basis set group =>   5
Atom 137H    basis set group =>   5
Atom 138H    basis set group =>   5
Atom 139H    basis set group =>   5
Atom 140H    basis set group =>   5
Atom 141H    basis set group =>   5
Atom 142H    basis set group =>   5
Atom 143H    basis set group =>   5
Atom 144H    basis set group =>   5
Atom 145H    basis set group =>   5
Atom 146H    basis set group =>   5
Atom 147H    basis set group =>   5
Atom 148H    basis set group =>   5
Atom 149H    basis set group =>   5
Atom 150H    basis set group =>   5
Atom 151H    basis set group =>   5
Atom 152H    basis set group =>   5
Atom 153H    basis set group =>   5
Atom 154H    basis set group =>   5
------------------------------------------------------------------------------
                           ORCA GTO INTEGRAL CALCULATION
------------------------------------------------------------------------------

                         BASIS SET STATISTICS AND STARTUP INFO

 # of primitive gaussian shells          ... 1414
 # of primitive gaussian functions       ... 2624
 # of contracted shells                  ...  736
 # of contracted basis functions         ... 1578
 Highest angular momentum                ...    2
 Maximum contraction depth               ...    5
 Integral package used                   ... LIBINT
 Integral threshhold            Thresh   ...  2.500e-11
 Primitive cut-off              TCut     ...  2.500e-12


------------------------------ INTEGRAL EVALUATION ----------------------------


 * One electron integrals 
 Pre-screening matrix                    ... done
 Shell pair data                         ... done (   0.030 sec)

-------------------------------------------------------------------------------
                                 ORCA SCF
-------------------------------------------------------------------------------

------------
SCF SETTINGS
------------
Hamiltonian:
 Ab initio Hamiltonian  Method          .... Hartree-Fock(GTOs)


General Settings:
 Integral files         IntName         .... BTCIC
 Hartree-Fock type      HFTyp           .... RHF
 Total Charge           Charge          ....    0
 Multiplicity           Mult            ....    1
 Number of Electrons    NEL             ....  650
 Basis Dimension        Dim             .... 1578
 Nuclear Repulsion      ENuc            ....  15156.5601324835 Eh

Convergence Acceleration:
 DIIS                   CNVDIIS         .... on
   Start iteration      DIISMaxIt       ....    12
   Startup error        DIISStart       ....  0.200000
   # of expansion vecs  DIISMaxEq       ....     5
   Bias factor          DIISBfac        ....   1.050
   Max. coefficient     DIISMaxC        ....  10.000
 Newton-Raphson         CNVNR           .... off
 SOSCF                  CNVSOSCF        .... on
   Start iteration      SOSCFMaxIt      ....   150
   Startup grad/error   SOSCFStart      ....  0.003300
 Level Shifting         CNVShift        .... on
   Level shift para.    LevelShift      ....    0.2500
   Turn off err/grad.   ShiftErr        ....    0.0010
 Zerner damping         CNVZerner       .... off
 Static damping         CNVDamp         .... on
   Fraction old density DampFac         ....    0.7000
   Max. Damping (<1)    DampMax         ....    0.9800
   Min. Damping (>=0)   DampMin         ....    0.0000
   Turn off err/grad.   DampErr         ....    0.1000
 Fernandez-Rico         CNVRico         .... off

SCF Procedure:
 Maximum # iterations   MaxIter         ....   125
 SCF integral mode      SCFMode         .... Direct
   Integral package                     .... LIBINT
 Reset frequency        DirectResetFreq ....    20
 Integral Threshold     Thresh          ....  2.500e-11 Eh
 Primitive CutOff       TCut            ....  2.500e-12 Eh

Convergence Tolerance:
 Convergence Check Mode ConvCheckMode   .... Total+1el-Energy
 Convergence forced     ConvForced      .... 1
 Energy Change          TolE            ....  1.000e-08 Eh
 1-El. energy change                    ....  1.000e-05 Eh
 Orbital Gradient       TolG            ....  1.000e-05
 Orbital Rotation angle TolX            ....  1.000e-05
 DIIS Error             TolErr          ....  5.000e-07


Diagonalization of the overlap matrix:
Smallest eigenvalue                        ... 1.794e-04
Time for diagonalization                   ...    0.983 sec
Threshold for overlap eigenvalues          ... 1.000e-08
Number of eigenvalues below threshold      ... 0
Time for construction of square roots      ...    0.320 sec
Total time needed                          ...    1.310 sec

-------------------
DFT GRID GENERATION
-------------------

General Integration Accuracy     IntAcc      ...  4.340
Radial Grid Type                 RadialGrid  ... Gauss-Chebyshev
Angular Grid (max. acc.)         AngularGrid ... Lebedev-110
Angular grid pruning method      GridPruning ... 3 (G Style)
Weight generation scheme         WeightScheme... Becke
Basis function cutoff            BFCut       ...    1.0000e-11
Integration weight cutoff        WCut        ...    1.0000e-14
Grids for H and He will be reduced by one unit

# of grid points (after initial pruning)     ... 199210 (   0.5 sec)
# of grid points (after weights+screening)   ... 171028 (  11.2 sec)
nearest neighbour list constructed           ...    0.0 sec
Grid point re-assignment to atoms done       ...    0.0 sec
Grid point division into batches done        ...    0.1 sec
Reduced shell lists constructed in    3.5 sec

Total number of grid points                  ...   171028
Total number of batches                      ...     2745
Average number of points per batch           ...       62
Average number of grid points per atom       ...     1103
Average number of shells per batch           ...   133.03 (18.07%)
Average number of basis functions per batch  ...   260.20 (16.49%)
Average number of large shells per batch     ...    76.24 (57.31%)
Average number of large basis fcns per batch ...   151.51 (58.23%)
Maximum spatial batch extension              ...  21.26, 22.44, 22.92 au
Average spatial batch extension              ...   3.12,  2.93,  3.27 au

Time for grid setup =   15.292 sec

------------------------------
INITIAL GUESS: MODEL POTENTIAL
------------------------------
Loading Hartree-Fock densities                     ... done
Calculating cut-offs                               ... done
Setting up the integral package                    ... done
Initializing the effective Hamiltonian             ... done
Starting the Coulomb interaction                   ... done (  19.6 sec)
Reading the grid                                   ... done
Mapping shells                                     ... done
Starting the XC term evaluation                    ... done (   3.6 sec)
Transforming the Hamiltonian                       ... done (   0.3 sec)
Diagonalizing the Hamiltonian                      ... done (   0.8 sec)
Back transforming the eigenvectors                 ... done (   0.1 sec)
Now organizing SCF variables                       ... done
                      ------------------
                      INITIAL GUESS DONE (  40.2 sec)
                      ------------------
--------------
SCF ITERATIONS
--------------
ITER       Energy         Delta-E        Max-DP      RMS-DP      [F,P]     Damp
               ***  Starting incremental Fock matrix formation  ***
  0  -5299.3650598665   0.000000000000 0.19979347  0.00110759  0.2303618 0.7000
  1  -5300.4916429290  -1.126583062487 0.13762467  0.00085073  0.1391941 0.7000
                               ***Turning on DIIS***
  2  -5301.1555067467  -0.663863817717 0.28783540  0.00194372  0.0779555 0.0000
  3  -5296.5166309823   4.638875764438 0.08899332  0.00052042  0.0512100 0.0000
  4  -5302.6813568996  -6.164725917330 0.01268232  0.00017737  0.0155941 0.0000
  5  -5302.6538478917   0.027509007898 0.00846284  0.00008836  0.0107731 0.0000
  6  -5302.4938811191   0.159966772590 0.00792889  0.00005505  0.0035426 0.0000
  7  -5302.5651982809  -0.071317161783 0.00580856  0.00003554  0.0026740 0.0000
                      *** Initiating the SOSCF procedure ***
                           *** Shutting down DIIS ***
                      *** Re-Reading the Fockian *** 
                      *** Removing any level shift *** 
ITER      Energy       Delta-E        Grad      Rot      Max-DP    RMS-DP
  8  -5302.54386989   0.0213283884  0.003259  0.003259  0.005100  0.000030
               *** Restarting incremental Fock matrix formation ***
  9  -5302.56032473  -0.0164548381  0.001560  0.006484  0.003271  0.000016
 10  -5302.56048099  -0.0001562609  0.000683  0.008546  0.004668  0.000027
 11  -5302.56056388  -0.0000828848  0.000301  0.000800  0.000623  0.000006
 12  -5302.56057387  -0.0000099899  0.000132  0.000631  0.000256  0.000002
 13  -5302.56057649  -0.0000026230  0.000051  0.000263  0.000190  0.000001
 14  -5302.56057690  -0.0000004073  0.000028  0.000176  0.000137  0.000001
 15  -5302.56057706  -0.0000001674  0.000018  0.000167  0.000066  0.000001
 16  -5302.56057711  -0.0000000451  0.000006  0.000043  0.000025  0.000000
 17  -5302.56057711  -0.0000000001  0.000004  0.000020  0.000014  0.000000
                  ***Gradient check signals convergence***
              ***Rediagonalizing the Fockian in SOSCF/NRSCF***

               *****************************************************
               *                     SUCCESS                       *
               *           SCF CONVERGED AFTER  18 CYCLES          *
               *****************************************************


----------------
TOTAL SCF ENERGY
----------------

Total Energy       :        -5302.56057705 Eh         -144290.00886 eV

Components:
Nuclear Repulsion  :        15156.56013248 Eh          412430.96879 eV
Electronic Energy  :       -20459.12070953 Eh         -556720.97765 eV
One Electron Energy:       -37463.19582602 Eh        -1019425.38501 eV
Two Electron Energy:        17004.07511649 Eh          462704.40736 eV

Virial components:
Potential Energy   :       -10587.34727617 Eh         -288096.36592 eV
Kinetic Energy     :         5284.78669912 Eh          143806.35706 eV
Virial Ratio       :            2.00336322


---------------
SCF CONVERGENCE
---------------

  Last Energy change         ...    5.8077e-08  Tolerance :   1.0000e-08
  Last MAX-Density change    ...    8.6363e-06  Tolerance :   1.0000e-07
  Last RMS-Density change    ...    4.6142e-08  Tolerance :   5.0000e-09
  Last Orbital Gradient      ...    1.6316e-06  Tolerance :   1.0000e-05
  Last Orbital Rotation      ...    7.2671e-06  Tolerance :   1.0000e-05

             **** THE GBW FILE WAS UPDATED (BTCIC.gbw) ****
             **** DENSITY FILE WAS UPDATED (BTCIC.scfp) ****
             **** ENERGY FILE WAS UPDATED (BTCIC.en.tmp) ****
             **** THE GBW FILE WAS UPDATED (BTCIC.gbw) ****
             **** DENSITY FILE WAS UPDATED (BTCIC.scfp) ****
----------------
ORBITAL ENERGIES
----------------

  NO   OCC          E(Eh)            E(eV) 
   0   2.0000     -92.042970     -2504.6165 
   1   2.0000     -91.981933     -2502.9556 
   2   2.0000     -91.980250     -2502.9098 
   3   2.0000     -91.978516     -2502.8627 
   4   2.0000     -91.975181     -2502.7719 
   5   2.0000     -20.554847      -559.3258 
   6   2.0000     -20.552193      -559.2536 
   7   2.0000     -15.634214      -425.4286 
   8   2.0000     -15.633486      -425.4088 
   9   2.0000     -15.589082      -424.2005 
  10   2.0000     -15.588264      -424.1782 
  11   2.0000     -15.587789      -424.1653 
  12   2.0000     -15.585926      -424.1146 
  13   2.0000     -11.353348      -308.9403 
  14   2.0000     -11.351857      -308.8997 
  15   2.0000     -11.341555      -308.6194 
  16   2.0000     -11.337574      -308.5111 
  17   2.0000     -11.326610      -308.2127 
  18   2.0000     -11.324959      -308.1678 
  19   2.0000     -11.319335      -308.0148 
  20   2.0000     -11.316137      -307.9277 
  21   2.0000     -11.315746      -307.9171 
  22   2.0000     -11.314539      -307.8843 
  23   2.0000     -11.314275      -307.8771 
  24   2.0000     -11.309970      -307.7599 
  25   2.0000     -11.307880      -307.7031 
  26   2.0000     -11.305800      -307.6464 
  27   2.0000     -11.301510      -307.5297 
  28   2.0000     -11.301368      -307.5259 
  29   2.0000     -11.300350      -307.4982 
  30   2.0000     -11.298929      -307.4595 
  31   2.0000     -11.298074      -307.4362 
  32   2.0000     -11.297008      -307.4072 
  33   2.0000     -11.294392      -307.3360 
  34   2.0000     -11.292618      -307.2878 
  35   2.0000     -11.292369      -307.2810 
  36   2.0000     -11.290751      -307.2370 
  37   2.0000     -11.289132      -307.1929 
  38   2.0000     -11.288813      -307.1842 
  39   2.0000     -11.287573      -307.1505 
  40   2.0000     -11.287144      -307.1388 
  41   2.0000     -11.286748      -307.1280 
  42   2.0000     -11.285438      -307.0924 
  43   2.0000     -11.279994      -306.9442 
  44   2.0000     -11.276950      -306.8614 
  45   2.0000     -11.276323      -306.8443 
  46   2.0000     -11.275894      -306.8327 
  47   2.0000     -11.275321      -306.8171 
  48   2.0000     -11.274979      -306.8078 
  49   2.0000     -11.274545      -306.7960 
  50   2.0000     -11.274394      -306.7918 
  51   2.0000     -11.273626      -306.7710 
  52   2.0000     -11.272986      -306.7536 
  53   2.0000     -11.271449      -306.7117 
  54   2.0000     -11.271035      -306.7005 
  55   2.0000     -11.270313      -306.6808 
  56   2.0000     -11.269386      -306.6556 
  57   2.0000     -11.269247      -306.6518 
  58   2.0000     -11.268683      -306.6365 
  59   2.0000     -11.268289      -306.6257 
  60   2.0000     -11.265413      -306.5475 
  61   2.0000     -11.263591      -306.4979 
  62   2.0000     -11.262225      -306.4607 
  63   2.0000     -11.245828      -306.0145 
  64   2.0000     -11.245627      -306.0091 
  65   2.0000     -11.241304      -305.8914 
  66   2.0000     -11.239470      -305.8415 
  67   2.0000     -11.238996      -305.8286 
  68   2.0000     -11.238476      -305.8145 
  69   2.0000     -11.234276      -305.7002 
  70   2.0000     -11.233026      -305.6662 
  71   2.0000     -11.232261      -305.6454 
  72   2.0000     -11.231835      -305.6338 
  73   2.0000     -11.230985      -305.6106 
  74   2.0000     -11.230762      -305.6046 
  75   2.0000     -11.230463      -305.5964 
  76   2.0000     -11.229530      -305.5711 
  77   2.0000     -11.227487      -305.5155 
  78   2.0000     -11.227296      -305.5103 
  79   2.0000     -11.226083      -305.4772 
  80   2.0000     -11.224434      -305.4324 
  81   2.0000     -11.224246      -305.4273 
  82   2.0000     -11.223845      -305.4163 
  83   2.0000     -11.221559      -305.3541 
  84   2.0000     -11.219465      -305.2972 
  85   2.0000     -11.209911      -305.0372 
  86   2.0000     -11.207075      -304.9600 
  87   2.0000      -9.073702      -246.9080 
  88   2.0000      -9.016888      -245.3620 
  89   2.0000      -9.015062      -245.3123 
  90   2.0000      -9.013364      -245.2661 
  91   2.0000      -9.009436      -245.1592 
  92   2.0000      -6.760805      -183.9709 
  93   2.0000      -6.759058      -183.9233 
  94   2.0000      -6.757561      -183.8826 
  95   2.0000      -6.704350      -182.4346 
  96   2.0000      -6.703294      -182.4059 
  97   2.0000      -6.702543      -182.3855 
  98   2.0000      -6.701503      -182.3572 
  99   2.0000      -6.701489      -182.3568 
 100   2.0000      -6.700912      -182.3411 
 101   2.0000      -6.699913      -182.3139 
 102   2.0000      -6.699642      -182.3065 
 103   2.0000      -6.697978      -182.2612 
 104   2.0000      -6.696778      -182.2286 
 105   2.0000      -6.695751      -182.2006 
 106   2.0000      -6.693891      -182.1500 
 107   2.0000      -1.384096       -37.6632 
 108   2.0000      -1.381685       -37.5976 
 109   2.0000      -1.359120       -36.9835 
 110   2.0000      -1.236989       -33.6602 
 111   2.0000      -1.236751       -33.6537 
 112   2.0000      -1.233082       -33.5539 
 113   2.0000      -1.232797       -33.5461 
 114   2.0000      -1.214324       -33.0434 
 115   2.0000      -1.212665       -32.9983 
 116   2.0000      -1.211567       -32.9684 
 117   2.0000      -1.207488       -32.8574 
 118   2.0000      -1.205952       -32.8156 
 119   2.0000      -1.195288       -32.5254 
 120   2.0000      -1.183169       -32.1957 
 121   2.0000      -1.169080       -31.8123 
 122   2.0000      -1.147462       -31.2240 
 123   2.0000      -1.145308       -31.1654 
 124   2.0000      -1.131606       -30.7926 
 125   2.0000      -1.125666       -30.6309 
 126   2.0000      -1.102161       -29.9913 
 127   2.0000      -1.097466       -29.8636 
 128   2.0000      -1.093520       -29.7562 
 129   2.0000      -1.088834       -29.6287 
 130   2.0000      -1.084570       -29.5127 
 131   2.0000      -1.079319       -29.3698 
 132   2.0000      -1.067688       -29.0533 
 133   2.0000      -1.060825       -28.8665 
 134   2.0000      -1.058935       -28.8151 
 135   2.0000      -1.044380       -28.4190 
 136   2.0000      -1.041408       -28.3382 
 137   2.0000      -1.040790       -28.3213 
 138   2.0000      -1.039841       -28.2955 
 139   2.0000      -1.026536       -27.9335 
 140   2.0000      -1.013946       -27.5909 
 141   2.0000      -1.009689       -27.4750 
 142   2.0000      -1.007814       -27.4240 
 143   2.0000      -1.006631       -27.3918 
 144   2.0000      -1.002768       -27.2867 
 145   2.0000      -0.997770       -27.1507 
 146   2.0000      -0.993948       -27.0467 
 147   2.0000      -0.992882       -27.0177 
 148   2.0000      -0.982773       -26.7426 
 149   2.0000      -0.972624       -26.4664 
 150   2.0000      -0.969890       -26.3920 
 151   2.0000      -0.967897       -26.3378 
 152   2.0000      -0.942436       -25.6450 
 153   2.0000      -0.922533       -25.1034 
 154   2.0000      -0.920123       -25.0378 
 155   2.0000      -0.917018       -24.9533 
 156   2.0000      -0.914194       -24.8765 
 157   2.0000      -0.905521       -24.6405 
 158   2.0000      -0.893559       -24.3150 
 159   2.0000      -0.871905       -23.7257 
 160   2.0000      -0.867579       -23.6080 
 161   2.0000      -0.863739       -23.5035 
 162   2.0000      -0.858407       -23.3585 
 163   2.0000      -0.853936       -23.2368 
 164   2.0000      -0.843513       -22.9532 
 165   2.0000      -0.840948       -22.8834 
 166   2.0000      -0.838449       -22.8154 
 167   2.0000      -0.835341       -22.7308 
 168   2.0000      -0.832722       -22.6595 
 169   2.0000      -0.831726       -22.6324 
 170   2.0000      -0.828193       -22.5363 
 171   2.0000      -0.821008       -22.3408 
 172   2.0000      -0.820092       -22.3158 
 173   2.0000      -0.803976       -21.8773 
 174   2.0000      -0.803052       -21.8521 
 175   2.0000      -0.795815       -21.6552 
 176   2.0000      -0.780119       -21.2281 
 177   2.0000      -0.775851       -21.1120 
 178   2.0000      -0.771557       -20.9951 
 179   2.0000      -0.768080       -20.9005 
 180   2.0000      -0.766307       -20.8523 
 181   2.0000      -0.759604       -20.6699 
 182   2.0000      -0.754466       -20.5301 
 183   2.0000      -0.753985       -20.5170 
 184   2.0000      -0.748715       -20.3736 
 185   2.0000      -0.747088       -20.3293 
 186   2.0000      -0.737024       -20.0554 
 187   2.0000      -0.735392       -20.0110 
 188   2.0000      -0.732138       -19.9225 
 189   2.0000      -0.721317       -19.6280 
 190   2.0000      -0.717690       -19.5293 
 191   2.0000      -0.708240       -19.2722 
 192   2.0000      -0.702066       -19.1042 
 193   2.0000      -0.696947       -18.9649 
 194   2.0000      -0.693917       -18.8824 
 195   2.0000      -0.681849       -18.5541 
 196   2.0000      -0.675646       -18.3853 
 197   2.0000      -0.673360       -18.3231 
 198   2.0000      -0.664213       -18.0742 
 199   2.0000      -0.660419       -17.9709 
 200   2.0000      -0.659475       -17.9452 
 201   2.0000      -0.654623       -17.8132 
 202   2.0000      -0.653914       -17.7939 
 203   2.0000      -0.649409       -17.6713 
 204   2.0000      -0.643876       -17.5208 
 205   2.0000      -0.643021       -17.4975 
 206   2.0000      -0.640550       -17.4303 
[...]
   Maximum Energy change  :     0.000000974079 (vector 2)
   Maximum residual norm  :     0.000000141644

      *** CONVERGENCE OF RESIDUAL NORM REACHED ***

Storing the converged CI vectors               ... BTCIC.cis1

                 *** DAVIDSON DONE ***

Total time for solving the CIS problem: 41667.823sec

-----------------------------
CIS-EXCITED STATES (SINGLETS)
-----------------------------

the weight of the individual excitations are printed if larger than 1.0e-02

STATE  1:  E=   0.089677 au      2.440 eV    19681.7 cm**-1
   322a -> 327a  :     0.055673 (c=  0.23595105)
   323a -> 326a  :     0.182965 (c= -0.42774443)
   323a -> 328a  :     0.010641 (c=  0.10315426)
   324a -> 325a  :     0.656555 (c=  0.81028060)

STATE  2:  E=   0.107944 au      2.937 eV    23691.0 cm**-1
   319a -> 327a  :     0.010527 (c= -0.10260306)
   322a -> 326a  :     0.078531 (c=  0.28023431)
   323a -> 325a  :     0.337760 (c= -0.58117163)
   323a -> 327a  :     0.072637 (c= -0.26951222)
   324a -> 326a  :     0.361764 (c=  0.60146860)
   324a -> 328a  :     0.012597 (c= -0.11223512)

STATE  3:  E=   0.129402 au      3.521 eV    28400.4 cm**-1
   311a -> 327a  :     0.010049 (c=  0.10024644)
   319a -> 326a  :     0.016037 (c=  0.12663568)
   321a -> 326a  :     0.011630 (c= -0.10784336)
   322a -> 325a  :     0.179089 (c= -0.42318886)
   323a -> 326a  :     0.181202 (c=  0.42567797)
   324a -> 325a  :     0.037699 (c=  0.19416159)
   324a -> 327a  :     0.423881 (c= -0.65106145)
   324a -> 329a  :     0.010647 (c=  0.10318491)


----------------------
CIS-EXCITATION SPECTRA
----------------------

Center of mass = ( -2.1266,  0.0127, -0.5171)
Calculating the Dipole integrals                  ... done
Transforming integrals                            ... done
Calculating the Linear Momentum integrals         ... done
Transforming integrals                            ... done
Calculating angular momentum integrals            ... done
Transforming integrals                            ... done

-----------------------------------------------------------------------------
         ABSORPTION SPECTRUM VIA TRANSITION ELECTRIC DIPOLE MOMENTS
-----------------------------------------------------------------------------
State   Energy    Wavelength  fosc         T2        TX        TY        TZ  
        (cm-1)      (nm)                 (au**2)    (au)      (au)      (au) 
-----------------------------------------------------------------------------
   1   19681.7    508.1   2.831287232  47.35829   2.13769   6.52029  -0.52375
   2   23691.0    422.1   0.285679891   3.96983  -1.05855   0.66295  -1.55235
   3   28400.4    352.1   0.037203035   0.43125   0.55803  -0.22966   0.25905

-----------------------------------------------------------------------------
         ABSORPTION SPECTRUM VIA TRANSITION VELOCITY DIPOLE MOMENTS
-----------------------------------------------------------------------------
State   Energy    Wavelength   fosc        P2         PX        PY        PZ  
        (cm-1)      (nm)                 (au**2)     (au)      (au)      (au) 
-----------------------------------------------------------------------------
   1   19681.7    508.1   1.635285837   0.21997  -0.10401  -0.45731   0.00405
   2   23691.0    422.1   0.131010878   0.02121   0.04492  -0.08269   0.11116
   3   28400.4    352.1   0.029531267   0.00573   0.04458  -0.05611  -0.02442

-------------------------------------------------------------------
                             CD SPECTRUM
-------------------------------------------------------------------
State  Energy     Wavelength     R         MX        MY        MZ   
       (cm-1)       (nm)     (1e40*cgs)   (au)      (au)      (au)  
-------------------------------------------------------------------
   1   19681.7    508.1    809.21660  -0.53989   0.44457   0.05374
   2   23691.0    422.1    -858.03828   0.13619   0.17375   1.15374
   3   28400.4    352.1     42.04017   0.10747  -0.43384  -0.27191

Total run time:    41872.304 sec

           *** ORCA-CIS/TD-DFT FINISHED WITHOUT ERROR ***

-----------------------
CIS/TD-DFT TOTAL ENERGY
-----------------------

    E(SCF)  =  -5302.560577051 Eh
    DE(CIS) =      0.089676611 Eh (Root  1)
    ----------------------------- ---------
    E(tot)  =  -5302.470900440 Eh


-------------------------   --------------------
FINAL SINGLE POINT ENERGY     -5302.470900440035
-------------------------   --------------------

------------------------------------------------------------------------------
                         ORCA SCF GRADIENT CALCULATION
------------------------------------------------------------------------------


------------
CIS GRADIENT
------------

Reference wavefunction             ... RHF
State of interest                  ... 1
Basis dimension                    ... 1578
DFT-XC contribution needed         ... NO
RI-approximation                   ... OFF
CIS-vectors being read from        ... BTCIC.cis

 => Number of Vectors found: 3
 => Orbital Window: 107...324 -> 325...1577

Reading the CIS file                     ... done
Norm of the CI vector                    ... 1.000000000
Making the CIS (pseudo)densities         ... done
Making operators G(D) and Q(T)           ... done
Transforming the Fock operators          ... done
Making the frozen-core relaxed density   ... done
Constructing the G(H) operator           ... done
Transforming the G(H) operator           ... done
Calculating the CIS Lagrangian           ... done
Solving the Z-vector equations           ... done
Finalizing the relaxed density           ... done
Storing the relaxed density              ... done
Constructing the G(Z) operator           ... done
Transforming the G(Z) operator           ... done
Making the W-matrix                      ... done
Finalizing the W-matrix                  ... done
Transforming the W-matrix                ... done
Nuclear repulsion gradient               ... done
One-Electron gradient                    ... done
Prescreening matrices                    ... done
Two-Electron gradient (4-center)         ... done
                 ---------------------------
                 EXCITED STATE GRADIENT DONE
                 ---------------------------


------------------
CARTESIAN GRADIENT
------------------

   1   S   :    0.012556138   -0.005765648   -0.006182725
   2   N   :    0.010103132   -0.041542296   -0.006054200
   3   C   :   -0.030403657    0.016467026    0.012854007
   4   C   :   -0.031763476    0.006383126    0.015845213
   5   N   :    0.032158633    0.028487791   -0.013283545
   6   C   :    0.006610490    0.008797901   -0.001560007
   7   C   :    0.005152855   -0.006096400   -0.000175771
   8   C   :    0.004505235    0.003358922   -0.003765821
   9   C   :    0.003411111   -0.008761785   -0.002621897
  10   C   :    0.000468647   -0.000029979    0.001993159
  11   C   :    0.000916279   -0.005630034    0.001193587
  12   C   :    0.000891231    0.003165220    0.002303478
  13   C   :    0.006082375   -0.009597782    0.000008036
  14   C   :   -0.000341651    0.008912845    0.003416692
  15   S   :   -0.004146493    0.004607629   -0.000370364
  16   C   :   -0.003704649    0.002942191   -0.001617484
  17   C   :    0.011126371   -0.007610880    0.001935630
  18   C   :   -0.011498894   -0.000604360    0.001455787
  19   C   :   -0.000482081   -0.003120088    0.003012777
  20   C   :   -0.002535835   -0.007049082   -0.000475458
  21   S   :   -0.004338001    0.005226902   -0.000123269
  22   C   :   -0.001071394    0.001036806    0.002673811
  23   C   :   -0.010818719    0.007443852    0.009784691
  24   C   :    0.005845962   -0.003701156   -0.007681017
  25   S   :    0.003506215   -0.007182109   -0.005108597
  26   C   :    0.001560789   -0.002547939   -0.003537864
  27   C   :   -0.006625513    0.010854449    0.011084892
  28   C   :    0.008822833   -0.007297495   -0.004866469
  29   C   :   -0.006364422    0.000863009    0.004299837
  30   C   :    0.003727793    0.010367807   -0.007520198
  31   S   :    0.005234331   -0.004833088   -0.005374519
  32   C   :    0.003121099   -0.000317922    0.003869067
  33   C   :    0.004895903   -0.001755147    0.004955521
  34   C   :   -0.007762601    0.001505225   -0.016224699
  35   C   :    0.009307397    0.004666512    0.013060518
  36   C   :   -0.005403446    0.008418377    0.001262334
  37   C   :    0.028608853   -0.024714267    0.006465906
  38   C   :    0.001402717   -0.001723626    0.000492575
  39   C   :    0.002581685   -0.002743331    0.000863650
  40   C   :   -0.002509806    0.000451828   -0.002636429
  41   C   :   -0.001507723   -0.001155972   -0.002047920
  42   C   :    0.011593906   -0.004411234    0.015381976
  43   O   :   -0.036916920    0.027896137   -0.010366184
  44   C   :   -0.045640504    0.059575512   -0.001273124
  45   C   :    0.001179796   -0.036814814   -0.066023891
  46   N   :    0.043086490   -0.055875978   -0.000143824
  47   N   :    0.001040505    0.039211114    0.060182254
  48   C   :   -0.005491345    0.004649562    0.000734104
  49   C   :   -0.000189266   -0.006050627    0.004984144
  50   C   :    0.001071001   -0.007226989   -0.001682858
  51   C   :   -0.003046283    0.000823002    0.006460053
  52   C   :    0.001721253    0.008168811    0.001502828
  53   C   :    0.004709482   -0.004382328   -0.003951081
  54   C   :   -0.006122341    0.003377718    0.002110156
  55   C   :    0.001810902   -0.001785623   -0.005908709
  56   C   :   -0.001560059    0.006447923   -0.003230120
  57   C   :   -0.004656468   -0.005262209   -0.000238030
  58   C   :    0.005372155   -0.000900708   -0.002892079
  59   C   :   -0.002866941    0.005341838    0.001487289
  60   C   :    0.004189836   -0.002717751   -0.004435471
  61   C   :   -0.003085645    0.005445272    0.003519359
  62   C   :    0.001025193   -0.007446997   -0.002709447
  63   C   :   -0.004704443    0.002358633    0.003297499
  64   C   :    0.005551257   -0.000859750   -0.004230961
  65   C   :   -0.004618958    0.002076465   -0.001213910
  66   C   :    0.000875493   -0.005518583    0.003926049
  67   C   :   -0.001052912    0.002997897   -0.006256060
  68   C   :   -0.001927120   -0.006932750    0.001937003
  69   C   :    0.000147775   -0.001327846    0.007645730
  70   C   :    0.002945372    0.004150074   -0.003226752
  71   C   :   -0.004116912   -0.007584399    0.004396099
  72   C   :   -0.008722673    0.003265087    0.003668738
  73   C   :    0.019548071    0.007032086   -0.002571038
  74   C   :   -0.011050671   -0.011284511    0.005723919
  75   C   :    0.006619164   -0.007183057   -0.003130638
  76   C   :   -0.031339806    0.017566762    0.016524101
  77   C   :   -0.001234801    0.000987366    0.000986061
  78   C   :   -0.002220776    0.001630481    0.001165771
  79   C   :    0.002199354    0.001830611   -0.001625322
  80   C   :    0.001012689    0.001372623   -0.001766105
  81   O   :    0.039262167   -0.016276891   -0.021768729
  82   C   :   -0.021048002   -0.005672277    0.004150265
  83   C   :    0.053352956   -0.049677772   -0.022122358
  84   C   :    0.031546612    0.069531703    0.011045851
  85   N   :   -0.026032194   -0.067186031   -0.006719778
  86   N   :   -0.049181317    0.047330452    0.020577249
  87   C   :    0.004907364    0.001593797   -0.002493558
  88   H   :   -0.007497553   -0.002547372    0.003042723
  89   H   :   -0.005404249    0.007622121    0.001831655
  90   H   :    0.009266480    0.000119532   -0.001573649
  91   H   :    0.003686111   -0.008836429   -0.002161484
  92   H   :   -0.006433771   -0.000444986    0.006407256
  93   H   :   -0.003164495    0.006879629    0.002469861
  94   H   :   -0.008369580    0.004379006   -0.002960311
  95   H   :    0.007248425   -0.002382425    0.004292880
  96   H   :    0.003353282   -0.006214594   -0.002972982
  97   H   :   -0.003447355   -0.004080269   -0.005676322
  98   H   :   -0.006360163    0.003379151   -0.002788284
  99   H   :    0.007802694    0.002218673   -0.001100617
 100   H   :   -0.000326713   -0.008427923   -0.001211754
 101   H   :    0.005867609    0.006029808   -0.000332948
 102   H   :   -0.004644772    0.001414778   -0.005052877
 103   H   :   -0.002129642    0.007217716   -0.001774543
 104   H   :    0.002618812   -0.000225357   -0.006569684
 105   H   :    0.001733033   -0.005783793    0.003837462
 106   H   :   -0.004286533   -0.003818100   -0.009093800
 107   H   :   -0.001966146    0.005284011   -0.005426942
 108   H   :   -0.005484578   -0.003399018    0.002043005
 109   H   :    0.003375571    0.003560737    0.005608479
 110   H   :    0.005534179    0.003365576   -0.002677687
 111   H   :    0.002095196   -0.006419816   -0.000942654
 112   H   :   -0.002444391    0.006665554    0.000805469
 113   H   :    0.004802069   -0.001670973    0.004773380
 114   H   :   -0.005916932   -0.004094198    0.002123393
 115   H   :    0.002774935   -0.006029208   -0.003137469
 116   H   :   -0.003004927   -0.001988343    0.007052923
 117   H   :    0.001353903    0.002565020   -0.006071728
 118   H   :    0.005776473   -0.001595717    0.003272667
 119   H   :   -0.004075791    0.006051771    0.004024552
 120   H   :   -0.006118852    0.001939128   -0.002963062
 121   H   :   -0.003337060    0.001736132    0.007624258
 122   H   :    0.003824104   -0.000295031   -0.005798026
 123   H   :   -0.005124294   -0.005704328    0.001371587
 124   H   :    0.005124235   -0.001179817    0.004913912
 125   H   :   -0.004790738   -0.004347239    0.004080232
 126   H   :   -0.000953321    0.006824512    0.001086681
 127   H   :    0.000341394   -0.006161634   -0.005825203
 128   H   :    0.001962350    0.003270295    0.006037510
 129   H   :   -0.004668003    0.005273025   -0.004903822
 130   H   :    0.003203738   -0.005183290    0.003892841
 131   H   :    0.004499885    0.004691934   -0.001468335
 132   H   :   -0.002612411   -0.003740801   -0.006803418
 133   H   :   -0.005211196   -0.004374699    0.000993726
 134   H   :   -0.002019894    0.005258163    0.003916393
 135   H   :    0.001559449   -0.004381967   -0.005186294
 136   H   :    0.000920999   -0.003392749    0.006031380
 137   H   :    0.005153162    0.005061852   -0.001137179
 138   H   :   -0.001390068    0.001861081   -0.008067740
 139   H   :    0.001044380    0.006618661    0.003570719
 140   H   :    0.003359852   -0.003867269    0.005265643
 141   H   :   -0.001002757    0.003784710   -0.005773486
 142   H   :    0.004286815    0.004345729    0.003686614
 143   H   :    0.006906276   -0.002824740   -0.004257618
 144   H   :   -0.004011074    0.004422618   -0.004286719
 145   H   :    0.005552597   -0.004095811    0.004565004
 146   H   :   -0.001858197   -0.004815738   -0.004149860
 147   H   :   -0.005852099    0.002743686    0.004475624
 148   H   :    0.007717237   -0.001966235   -0.006083035
 149   H   :   -0.007687543   -0.000716061    0.004340400
 150   H   :   -0.003336334    0.006865728    0.002362527
 151   H   :    0.003489699    0.006328769   -0.003105213
 152   H   :    0.006606473   -0.001420472   -0.004321163
 153   H   :   -0.004164075   -0.004474122   -0.004867184
 154   H   :   -0.004148339    0.004966379    0.002796717
 155   H   :    0.001140282   -0.004303795    0.004896231

Difference to translation invariance:
           :    0.0000000000    0.0000000001   -0.0000000001

Norm of the cartesian gradient     ...    0.2614997979
RMS gradient                       ...    0.0121267628
MAX gradient                       ...    0.0695317033

-------
TIMINGS
-------

Total CIS gradient time            ...    49048.931 sec

Fock matrix formation       ....    3636.460 sec  (  7.4%)
  Coulomb formation         ....    3636.460 sec  (100.0% of F)
Z-vector equation           ....   41559.960 sec  ( 84.7%)
One electron gradient       ....      31.119 sec  (  0.1%)
Prescreening matrices       ....       1.547 sec  (  0.0%)
Two electron gradient       ....    3813.287 sec  (  7.8%)

                            ***************************************
                            *     ORCA property calculations      *
                            ***************************************

                                    ---------------------
                                    Active property flags
                                    ---------------------
   (+) Dipole Moment


------------------------------------------------------------------------------
                       ORCA ELECTRIC PROPERTIES CALCULATION
------------------------------------------------------------------------------

Dipole Moment Calculation                       ... on
Quadrupole Moment Calculation                   ... off
Polarizability Calculation                      ... off
GBWName                                         ... BTCIC.gbw
Electron density file                           ... BTCIC.scfp
The origin for moment calculation is the CENTER OF MASS  = (-2.126587,  0.012655 -0.517147)

-------------
DIPOLE MOMENT
-------------
                                X             Y             Z
Electronic contribution:    -19.91733      21.82448     -78.69183
Nuclear contribution   :     21.52158     -20.79905      78.61144
                        -----------------------------------------
Total Dipole Moment    :      1.60425       1.02543      -0.08039
                        -----------------------------------------
Magnitude (a.u.)       :      1.90568
Magnitude (Debye)      :      4.84384



--------------------
Rotational spectrum 
--------------------
 
Rotational constants in cm-1:     0.001418     0.000170     0.000167 
Rotational constants in MHz :    42.514128     5.106917     5.003133 

 Dipole components along the rotational axes: 
x,y,z [a.u.] :    -1.433229     1.104199     0.598499 
x,y,z [Debye]:    -3.642978     2.806652     1.521264 

 

                        *** CIS RELAXED DENSITY ***

------------------------------------------------------------------------------
                       ORCA ELECTRIC PROPERTIES CALCULATION
------------------------------------------------------------------------------

Dipole Moment Calculation                       ... on
Quadrupole Moment Calculation                   ... off
Polarizability Calculation                      ... off
GBWName                                         ... BTCIC.gbw
Electron density file                           ... BTCIC.cisp
The origin for moment calculation is the CENTER OF MASS  = (-2.126587,  0.012655 -0.517147)

-------------
DIPOLE MOMENT
-------------
                                X             Y             Z
Electronic contribution:    -19.84806      22.00033     -78.44195
Nuclear contribution   :     21.52158     -20.79905      78.61144
                        -----------------------------------------
Total Dipole Moment    :      1.67352       1.20128       0.16949
                        -----------------------------------------
Magnitude (a.u.)       :      2.06699
Magnitude (Debye)      :      5.25388



--------------------
Rotational spectrum 
--------------------
 
Rotational constants in cm-1:     0.001418     0.000170     0.000167 
Rotational constants in MHz :    42.514128     5.106917     5.003133 

 Dipole components along the rotational axes: 
x,y,z [a.u.] :    -1.603883     1.247730     0.378413 
x,y,z [Debye]:    -4.076748     3.171476     0.961849 

 

Timings for individual modules:

Sum of individual times         ...   105149.823 sec (=1752.497 min)
GTO integral calculation        ...        3.995 sec (=   0.067 min)   0.0 %
SCF iterations                  ...    14224.483 sec (= 237.075 min)  13.5 %
CIS module                      ...    41872.382 sec (= 697.873 min)  39.8 %
SCF Gradient evaluation         ...    49048.964 sec (= 817.483 min)  46.6 %
                             ****ORCA TERMINATED NORMALLY****
TOTAL RUN TIME: 1 days 5 hours 12 minutes 31 seconds 50 msec
