
                                 *****************
                                 * O   R   C   A *
                                 *****************

           --- An Ab Initio, DFT and Semiempirical electronic structure package ---

                  #######################################################
                  #                        -***-                        #
                  #          Department of theory and spectroscopy      #
                  #               Directorship: Frank Neese             #
                  #        Max Planck Institute fuer Kohlenforschung    #
                  #                Kaiser Wilhelm Platz 1               #
                  #                 D-45470 Muelheim/Ruhr               #
                  #                      Germany                        #
                  #                                                     #
                  #                  All rights reserved                #
                  #                        -***-                        #
                  #######################################################


                         Program Version 4.2.0 -  RELEASE  -


 With contributions from (in alphabetic order):
   Daniel Aravena         : Magnetic Suceptibility
   Michael Atanasov       : Ab Initio Ligand Field Theory (pilot matlab implementation)
   Alexander A. Auer      : GIAO ZORA, VPT2
   Ute Becker             : Parallelization
   Giovanni Bistoni       : ED, misc. LED, open-shell LED, HFLED
   Martin Brehm           : Molecular dynamics
   Dmytro Bykov           : SCF Hessian
   Vijay G. Chilkuri      : MRCI spin determinant printing, contributions to CSF-ICE
   Dipayan Datta          : RHF DLPNO-CCSD density
   Achintya Kumar Dutta   : EOM-CC, STEOM-CC
   Dmitry Ganyushin       : Spin-Orbit,Spin-Spin,Magnetic field MRCI
   Miquel Garcia          : C-PCM Hessian, Gaussian charge scheme
   Yang Guo               : DLPNO-NEVPT2, CIM, IAO-localization
   Andreas Hansen         : Spin unrestricted coupled pair/coupled cluster methods
   Benjamin Helmich-Paris : CASSCF linear response (MC-RPA)
   Lee Huntington         : MR-EOM, pCC
   Robert Izsak           : Overlap fitted RIJCOSX, COSX-SCS-MP3, EOM
   Christian Kollmar      : KDIIS, OOCD, Brueckner-CCSD(T), CCSD density
   Simone Kossmann        : Meta GGA functionals, TD-DFT gradient, OOMP2, MP2 Hessian
   Martin Krupicka        : AUTO-CI
   Lucas Lang             : DCDCAS
   Dagmar Lenk            : GEPOL surface, SMD
   Dimitrios Liakos       : Extrapolation schemes; Compound Job, initial MDCI parallelization
   Dimitrios Manganas     : Further ROCIS development; embedding schemes
   Dimitrios Pantazis     : SARC Basis sets
   Taras Petrenko         : DFT Hessian,TD-DFT gradient, ASA, ECA, R-Raman, ABS, FL, XAS/XES, NRVS
   Peter Pinski           : DLPNO-MP2, DLPNO-MP2 Gradient
   Christoph Reimann      : Effective Core Potentials
   Marius Retegan         : Local ZFS, SOC
   Christoph Riplinger    : Optimizer, TS searches, QM/MM, DLPNO-CCSD(T), (RO)-DLPNO pert. Triples
   Tobias Risthaus        : Range-separated hybrids, TD-DFT gradient, RPA, STAB
   Michael Roemelt        : Original ROCIS implementation
   Masaaki Saitow         : Open-shell DLPNO-CCSD energy and density
   Barbara Sandhoefer     : DKH picture change effects
   Avijit Sen             : IP-ROCIS
   Kantharuban Sivalingam : CASSCF convergence, NEVPT2, FIC-MRCI
   Bernardo de Souza      : ESD, SOC TD-DFT
   Georgi Stoychev        : AutoAux, RI-MP2 NMR
   Willem Van den Heuvel  : Paramagnetic NMR
   Boris Wezisla          : Elementary symmetry handling
   Frank Wennmohs         : Technical directorship


 We gratefully acknowledge several colleagues who have allowed us to
 interface, adapt or use parts of their codes:
   Stefan Grimme, W. Hujo, H. Kruse,             : VdW corrections, initial TS optimization,
                  C. Bannwarth                     DFT functionals, gCP, sTDA/sTD-DF
   Ed Valeev, F. Pavosevic, A. Kumar             : LibInt (2-el integral package), F12 methods
   Garnet Chan, S. Sharma, J. Yang, R. Olivares  : DMRG
   Ulf Ekstrom                                   : XCFun DFT Library
   Mihaly Kallay                                 : mrcc  (arbitrary order and MRCC methods)
   Andreas Klamt, Michael Diedenhofen            : otool_cosmo (COSMO solvation model)
   Jiri Pittner, Ondrej Demel                    : Mk-CCSD
   Frank Weinhold                                : gennbo (NPA and NBO analysis)
   Christopher J. Cramer and Donald G. Truhlar   : smd solvation model
   Lars Goerigk                                  : TD-DFT with DH, B97 family of functionals
   V. Asgeirsson, H. Jonsson                     : NEB implementation
   FAccTs GmbH                                   : IRC, NEB, NEB-TS, Multilevel, MM, QM/MM, CI optimization
   S Lehtola, MJT Oliveira, MAL Marques          : LibXC Library


 Your calculation uses the libint2 library for the computation of 2-el integrals
 For citations please refer to: http://libint.valeyev.net

 Your ORCA version has been built with support for libXC version: 4.2.3
 For citations please refer to: https://tddft.org/programs/libxc/

 This ORCA versions uses:
   CBLAS   interface :  Fast vector & matrix operations
   LAPACKE interface :  Fast linear algebra routines
   SCALAPACK package :  Parallel linear algebra routines


----- Orbital basis set information -----
Your calculation utilizes the basis: def2-SVP
   F. Weigend and R. Ahlrichs, Phys. Chem. Chem. Phys. 7, 3297 (2005).

================================================================================
                                        WARNINGS
                       Please study these warnings very carefully!
================================================================================

INFO   : Checking CIS options ...

WARNING: CIS/ROCIS methods need fully converged wavefunctions
  ===> : Setting SCFConvForced true
         You can overwrite this default with %scf ConvForced false 


INFO   : the flag for use of LIBINT has been found!

================================================================================
                                       INPUT FILE
================================================================================
NAME = BTCIC.inp
|  1> # ORCA input file
|  2> # BTCIC.out
|  3> ! Engrad Keepdens
|  4> %maxcore 1000
|  5> %tddft
|  6>   nroots 3 
|  7>   # nroots is the number of states to be computed
|  8>   Iroot 1
|  9>   # first excited state
| 10>   end
| 11> * xyz 0 1
| 12>    S        1.83815        -1.01111        -1.67392
| 13>    N        0.54069        -1.82731        -1.18541
| 14>    C       -0.37869        -0.96977        -0.74373
| 15>    C        0.07802         0.38945        -0.84380
| 16>    N        1.30478         0.46902        -1.35049
| 17>    C       -1.67168        -1.25782        -0.22652
| 18>    C       -2.43481        -0.15687         0.14772
| 19>    C       -1.98644         1.15439         0.05592
| 20>    C       -0.72419         1.48346        -0.42740
| 21>    C       -0.22484         2.81985        -0.50553
| 22>    C       -2.14692        -2.59823        -0.09028
| 23>    C       -1.45769        -3.76886        -0.35875
| 24>    C       -2.20564        -4.90332        -0.07542
| 25>    C       -3.48289        -4.60470         0.39466
| 26>    S       -3.76797        -2.91550         0.50583
| 27>    C       -1.98819        -6.39860        -0.17098
| 28>    C       -3.31051        -6.89334         0.38611
| 29>    C       -4.16257        -5.80837         0.66280
| 30>    C       -3.91321        -8.10447         0.67183
| 31>    C       -5.22552        -7.97345         1.12752
| 32>    S       -5.69861        -6.28234         1.23167
| 33>    C       -0.83465         3.98182        -0.04997
| 34>    C       -0.06378         5.11307        -0.27322
| 35>    C        1.15146         4.80557        -0.89522
| 36>    S        1.34010         3.13022        -1.21621
| 37>    C       -0.16301         6.59440         0.01174
| 38>    C        1.18384         7.05726        -0.49217
| 39>    C        1.90668         5.98704        -1.03676
| 40>    C        1.82611         8.26920        -0.64971
| 41>    C        3.05869         8.14522        -1.29040
| 42>    S        3.41204         6.46701        -1.68407
| 43>    C       -6.21017        -8.94940         1.35638
| 44>    C       -6.11641       -10.31439         1.39232
| 45>    C       -5.00838       -11.22392         1.53387
| 46>    C       -5.44275       -12.52693         1.03229
| 47>    C       -6.83333       -12.48440         0.82350
| 48>    C       -7.33271       -11.12268         1.11425
| 49>    C       -4.74200       -13.69703         0.79499
| 50>    C       -5.44748       -14.81113         0.35801
| 51>    C       -6.82090       -14.76855         0.16794
| 52>    C       -7.53071       -13.59745         0.39821
| 53>    C       -3.86281       -10.99330         2.25432
| 54>    O       -8.47705       -10.72897         1.08761
| 55>    C       -2.81596       -11.92163         2.40223
| 56>    C       -3.67645        -9.81470         3.00162
| 57>    N       -1.91559       -12.62466         2.52143
| 58>    N       -3.52736        -8.88301         3.65542
| 59>    C       -0.75160        -6.83228         0.63557
| 60>    C       -1.85945        -6.67787        -1.70002
| 61>    C       -0.52649        -6.10390         1.97222
| 62>    C       -1.33473        -8.00658        -2.28332
| 63>    C       -1.55121        -6.49783         3.04834
| 64>    C       -2.18075        -5.30027         3.75002
| 65>    C        0.91105        -6.38619         2.43457
| 66>    C        1.32768        -5.55478         3.64147
| 67>    C        0.17836        -8.23706        -2.15715
| 68>    C        1.03275        -7.09284        -2.69310
| 69>    C       -2.11739        -9.22644        -1.78818
| 70>    C       -1.98063       -10.44842        -2.69112
| 71>    C       -0.41563         6.87776         1.50052
| 72>    C        0.51830         6.13183         2.46873
| 73>    C        1.90406         6.79533         2.57665
| 74>    C        3.05159         5.80915         2.38977
| 75>    C       -0.16422         6.03135         3.84086
| 76>    C        0.58865         5.14547         4.82601
| 77>    C       -1.21431         7.27852        -0.89759
| 78>    C       -2.67684         6.84502        -0.69247
| 79>    C       -3.43680         7.81113         0.23746
| 80>    C       -3.34875         6.72964        -2.06925
| 81>    C       -4.77740         6.20126        -2.02583
| 82>    C        4.01994         9.12230        -1.59479
| 83>    C        3.90154        10.48480        -1.62735
| 84>    C        2.77246        11.38046        -1.66428
| 85>    C        3.25771        12.70725        -1.27809
| 86>    C        4.66337        12.67891        -1.23483
| 87>    C        5.13467        11.30948        -1.52854
| 88>    C        2.58352        13.88418        -0.99908
| 89>    C        3.32821        15.01562        -0.69039
| 90>    C        4.71469        14.98501        -0.66463
| 91>    C        5.39942        13.80804        -0.93583
| 92>    O        6.27672        10.92046        -1.62824
| 93>    C        1.53505        11.12789        -2.20324
| 94>    C        0.49529        12.07596        -2.27248
| 95>    C        1.17433         9.91571        -2.82251
| 96>    N        0.83272         8.96184        -3.36331
| 97>    N       -0.40091        12.79180        -2.33062
| 98>    C       -4.34059         7.10310         1.24270
| 99>    H       -3.42672        -0.33385         0.53806
|100>    H       -2.65030         1.94171         0.37526
|101>    H       -0.44923        -3.75500        -0.72849
|102>    H       -3.45648        -9.06530         0.53670
|103>    H       -1.78837         3.97424         0.44450
|104>    H        1.46065         9.20967        -0.27670
|105>    H       -7.23003        -8.57731         1.39758
|106>    H       -3.67375       -13.75105         0.93328
|107>    H       -4.91217       -15.72889         0.16559
|108>    H       -7.34126       -15.65460        -0.16331
|109>    H       -8.59897       -13.54566         0.25475
|110>    H        0.11844        -6.62980         0.01244
|111>    H       -0.80358        -7.90599         0.82136
|112>    H       -1.22549        -5.88794        -2.10471
|113>    H       -2.85908        -6.52095        -2.11759
|114>    H       -0.60487        -5.02713         1.79098
|115>    H       -1.53889        -7.91174        -3.35913
|116>    H       -1.07608        -7.13730         3.79355
|117>    H       -2.34967        -7.08933         2.60341
|118>    H       -2.71609        -4.67376         3.03897
|119>    H       -2.88853        -5.64323         4.50062
|120>    H       -1.42663        -4.68900         4.23972
|121>    H        1.59815        -6.16746         1.61255
|122>    H        1.00960        -7.44797         2.67240
|123>    H        1.21885        -4.49341         3.42698
|124>    H        2.36931        -5.74856         3.88850
|125>    H        0.72376        -5.79579         4.51154
|126>    H        0.41767        -9.12803        -2.74056
|127>    H        0.45008        -8.45072        -1.12422
|128>    H        0.72647        -6.82901        -3.70337
|129>    H        2.07727        -7.39515        -2.72268
|130>    H        0.96235        -6.20422        -2.07037
|131>    H       -3.17489        -8.95800        -1.73904
|132>    H       -1.77774        -9.49048        -0.78509
|133>    H       -2.25414       -10.20027        -3.71442
|134>    H       -2.63992       -11.24220        -2.34551
|135>    H       -0.96477       -10.83378        -2.68861
|136>    H       -1.44024         6.57500         1.71411
|137>    H       -0.34181         7.95277         1.67658
|138>    H        0.64969         5.11193         2.09267
|139>    H        2.00247         7.28002         3.54998
|140>    H        1.99829         7.57807         1.82362
|141>    H        3.01182         5.01868         3.13465
|142>    H        4.00823         6.31925         2.48188
|143>    H        3.00443         5.35035         1.40430
|144>    H       -1.16698         5.61762         3.70646
|145>    H       -0.27639         7.03368         4.26126
|146>    H        0.71691         4.14605         4.41528
|147>    H        0.03165         5.06336         5.75678
|148>    H        1.56928         5.55311         5.05505
|149>    H       -0.91704         7.07257        -1.92822
|150>    H       -1.12937         8.35800        -0.76011
|151>    H       -2.68789         5.85048        -0.24109
|152>    H       -4.03540         8.49531        -0.36659
|153>    H       -2.72601         8.42248         0.79562
|154>    H       -2.75187         6.05278        -2.68563
|155>    H       -3.33868         7.70956        -2.55163
|156>    H       -4.81503         5.24008        -1.51669
|157>    H       -5.15125         6.06333        -3.03798
|158>    H       -5.44108         6.89380        -1.51580
|159>    H        5.02875         8.75770        -1.76555
|160>    H        1.50643        13.93249        -1.00668
|161>    H        2.81240        15.93753        -0.46710
|162>    H        5.26440        15.88381        -0.42904
|163>    H        6.47741        13.76268        -0.91782
|164>    H       -5.07839         6.48129         0.74426
|165>    H       -4.86689         7.83343         1.85361
|166>    H       -3.75589         6.46902         1.90755
|167> *
|168> 
|169>                          ****END OF INPUT****
================================================================================

                     *******************************
                     * Energy+Gradient Calculation *
                     *******************************

---------------------------------
CARTESIAN COORDINATES (ANGSTROEM)
---------------------------------
  S      1.838150   -1.011110   -1.673920
  N      0.540690   -1.827310   -1.185410
  C     -0.378690   -0.969770   -0.743730
  C      0.078020    0.389450   -0.843800
  N      1.304780    0.469020   -1.350490
  C     -1.671680   -1.257820   -0.226520
  C     -2.434810   -0.156870    0.147720
  C     -1.986440    1.154390    0.055920
  C     -0.724190    1.483460   -0.427400
  C     -0.224840    2.819850   -0.505530
  C     -2.146920   -2.598230   -0.090280
  C     -1.457690   -3.768860   -0.358750
  C     -2.205640   -4.903320   -0.075420
  C     -3.482890   -4.604700    0.394660
  S     -3.767970   -2.915500    0.505830
  C     -1.988190   -6.398600   -0.170980
  C     -3.310510   -6.893340    0.386110
  C     -4.162570   -5.808370    0.662800
  C     -3.913210   -8.104470    0.671830
  C     -5.225520   -7.973450    1.127520
  S     -5.698610   -6.282340    1.231670
  C     -0.834650    3.981820   -0.049970
  C     -0.063780    5.113070   -0.273220
  C      1.151460    4.805570   -0.895220
  S      1.340100    3.130220   -1.216210
  C     -0.163010    6.594400    0.011740
  C      1.183840    7.057260   -0.492170
  C      1.906680    5.987040   -1.036760
  C      1.826110    8.269200   -0.649710
  C      3.058690    8.145220   -1.290400
  S      3.412040    6.467010   -1.684070
  C     -6.210170   -8.949400    1.356380
  C     -6.116410  -10.314390    1.392320
  C     -5.008380  -11.223920    1.533870
  C     -5.442750  -12.526930    1.032290
  C     -6.833330  -12.484400    0.823500
  C     -7.332710  -11.122680    1.114250
  C     -4.742000  -13.697030    0.794990
  C     -5.447480  -14.811130    0.358010
  C     -6.820900  -14.768550    0.167940
  C     -7.530710  -13.597450    0.398210
  C     -3.862810  -10.993300    2.254320
  O     -8.477050  -10.728970    1.087610
  C     -2.815960  -11.921630    2.402230
  C     -3.676450   -9.814700    3.001620
  N     -1.915590  -12.624660    2.521430
  N     -3.527360   -8.883010    3.655420
  C     -0.751600   -6.832280    0.635570
  C     -1.859450   -6.677870   -1.700020
  C     -0.526490   -6.103900    1.972220
  C     -1.334730   -8.006580   -2.283320
  C     -1.551210   -6.497830    3.048340
  C     -2.180750   -5.300270    3.750020
  C      0.911050   -6.386190    2.434570
  C      1.327680   -5.554780    3.641470
  C      0.178360   -8.237060   -2.157150
  C      1.032750   -7.092840   -2.693100
  C     -2.117390   -9.226440   -1.788180
  C     -1.980630  -10.448420   -2.691120
  C     -0.415630    6.877760    1.500520
  C      0.518300    6.131830    2.468730
  C      1.904060    6.795330    2.576650
  C      3.051590    5.809150    2.389770
  C     -0.164220    6.031350    3.840860
  C      0.588650    5.145470    4.826010
  C     -1.214310    7.278520   -0.897590
  C     -2.676840    6.845020   -0.692470
  C     -3.436800    7.811130    0.237460
  C     -3.348750    6.729640   -2.069250
  C     -4.777400    6.201260   -2.025830
  C      4.019940    9.122300   -1.594790
  C      3.901540   10.484800   -1.627350
  C      2.772460   11.380460   -1.664280
  C      3.257710   12.707250   -1.278090
  C      4.663370   12.678910   -1.234830
  C      5.134670   11.309480   -1.528540
  C      2.583520   13.884180   -0.999080
  C      3.328210   15.015620   -0.690390
  C      4.714690   14.985010   -0.664630
  C      5.399420   13.808040   -0.935830
  O      6.276720   10.920460   -1.628240
  C      1.535050   11.127890   -2.203240
  C      0.495290   12.075960   -2.272480
  C      1.174330    9.915710   -2.822510
  N      0.832720    8.961840   -3.363310
  N     -0.400910   12.791800   -2.330620
  C     -4.340590    7.103100    1.242700
  H     -3.426720   -0.333850    0.538060
  H     -2.650300    1.941710    0.375260
  H     -0.449230   -3.755000   -0.728490
  H     -3.456480   -9.065300    0.536700
  H     -1.788370    3.974240    0.444500
  H      1.460650    9.209670   -0.276700
  H     -7.230030   -8.577310    1.397580
  H     -3.673750  -13.751050    0.933280
  H     -4.912170  -15.728890    0.165590
  H     -7.341260  -15.654600   -0.163310
  H     -8.598970  -13.545660    0.254750
  H      0.118440   -6.629800    0.012440
  H     -0.803580   -7.905990    0.821360
  H     -1.225490   -5.887940   -2.104710
  H     -2.859080   -6.520950   -2.117590
  H     -0.604870   -5.027130    1.790980
  H     -1.538890   -7.911740   -3.359130
  H     -1.076080   -7.137300    3.793550
  H     -2.349670   -7.089330    2.603410
  H     -2.716090   -4.673760    3.038970
  H     -2.888530   -5.643230    4.500620
  H     -1.426630   -4.689000    4.239720
  H      1.598150   -6.167460    1.612550
  H      1.009600   -7.447970    2.672400
  H      1.218850   -4.493410    3.426980
  H      2.369310   -5.748560    3.888500
  H      0.723760   -5.795790    4.511540
  H      0.417670   -9.128030   -2.740560
  H      0.450080   -8.450720   -1.124220
  H      0.726470   -6.829010   -3.703370
  H      2.077270   -7.395150   -2.722680
  H      0.962350   -6.204220   -2.070370
  H     -3.174890   -8.958000   -1.739040
  H     -1.777740   -9.490480   -0.785090
  H     -2.254140  -10.200270   -3.714420
  H     -2.639920  -11.242200   -2.345510
  H     -0.964770  -10.833780   -2.688610
  H     -1.440240    6.575000    1.714110
  H     -0.341810    7.952770    1.676580
  H      0.649690    5.111930    2.092670
  H      2.002470    7.280020    3.549980
  H      1.998290    7.578070    1.823620
  H      3.011820    5.018680    3.134650
  H      4.008230    6.319250    2.481880
  H      3.004430    5.350350    1.404300
  H     -1.166980    5.617620    3.706460
  H     -0.276390    7.033680    4.261260
  H      0.716910    4.146050    4.415280
  H      0.031650    5.063360    5.756780
  H      1.569280    5.553110    5.055050
  H     -0.917040    7.072570   -1.928220
  H     -1.129370    8.358000   -0.760110
  H     -2.687890    5.850480   -0.241090
  H     -4.035400    8.495310   -0.366590
  H     -2.726010    8.422480    0.795620
  H     -2.751870    6.052780   -2.685630
  H     -3.338680    7.709560   -2.551630
  H     -4.815030    5.240080   -1.516690
  H     -5.151250    6.063330   -3.037980
  H     -5.441080    6.893800   -1.515800
  H      5.028750    8.757700   -1.765550
  H      1.506430   13.932490   -1.006680
  H      2.812400   15.937530   -0.467100
  H      5.264400   15.883810   -0.429040
  H      6.477410   13.762680   -0.917820
  H     -5.078390    6.481290    0.744260
  H     -4.866890    7.833430    1.853610
  H     -3.755890    6.469020    1.907550

----------------------------
CARTESIAN COORDINATES (A.U.)
----------------------------
  NO LB      ZA    FRAG     MASS         X           Y           Z
   0 S    16.0000    0    32.060    3.473600   -1.910721   -3.163250
   1 N     7.0000    0    14.007    1.021756   -3.453115   -2.240100
   2 C     6.0000    0    12.011   -0.715620   -1.832600   -1.405446
   3 C     6.0000    0    12.011    0.147436    0.735954   -1.594551
   4 N     7.0000    0    14.007    2.465677    0.886319   -2.552056
   5 C     6.0000    0    12.011   -3.159017   -2.376935   -0.428061
   6 C     6.0000    0    12.011   -4.601124   -0.296441    0.279150
   7 C     6.0000    0    12.011   -3.753828    2.181481    0.105673
   8 C     6.0000    0    12.011   -1.368521    2.803333   -0.807669
   9 C     6.0000    0    12.011   -0.424886    5.328744   -0.955313
  10 C     6.0000    0    12.011   -4.057091   -4.909943   -0.170604
  11 C     6.0000    0    12.011   -2.754635   -7.122113   -0.677939
  12 C     6.0000    0    12.011   -4.168056   -9.265932   -0.142523
  13 C     6.0000    0    12.011   -6.581708   -8.701622    0.745799
  14 S    16.0000    0    32.060   -7.120431   -5.509497    0.955880
  15 C     6.0000    0    12.011   -3.757135  -12.091602   -0.323105
  16 C     6.0000    0    12.011   -6.255957  -13.026525    0.729642
  17 C     6.0000    0    12.011   -7.866117  -10.976229    1.252510
  18 C     6.0000    0    12.011   -7.394895  -15.315229    1.269575
  19 C     6.0000    0    12.011   -9.874802  -15.067637    2.130704
  20 S    16.0000    0    32.060  -10.768812  -11.871902    2.327519
  21 C     6.0000    0    12.011   -1.577260    7.524549   -0.094430
  22 C     6.0000    0    12.011   -0.120527    9.662302   -0.516311
  23 C     6.0000    0    12.011    2.175944    9.081211   -1.691721
  24 S    16.0000    0    32.060    2.532422    5.915259   -2.298304
  25 C     6.0000    0    12.011   -0.308044   12.461610    0.022185
  26 C     6.0000    0    12.011    2.237133   13.336289   -0.930067
  27 C     6.0000    0    12.011    3.603103   11.313866   -1.959192
  28 C     6.0000    0    12.011    3.450848   15.626523   -1.227774
  29 C     6.0000    0    12.011    5.780086   15.392235   -2.438503
  30 S    16.0000    0    32.060    6.447821   12.220878   -3.182431
  31 C     6.0000    0    12.011  -11.735521  -16.911915    2.563187
  32 C     6.0000    0    12.011  -11.558340  -19.491372    2.631103
  33 C     6.0000    0    12.011   -9.464467  -21.210135    2.898594
  34 C     6.0000    0    12.011  -10.285307  -23.672467    1.950745
  35 C     6.0000    0    12.011  -12.913122  -23.592097    1.556189
  36 C     6.0000    0    12.011  -13.856814  -21.018819    2.105627
  37 C     6.0000    0    12.011   -8.961081  -25.883636    1.502313
  38 C     6.0000    0    12.011  -10.294245  -27.988979    0.676541
  39 C     6.0000    0    12.011  -12.889633  -27.908515    0.317361
  40 C     6.0000    0    12.011  -14.230979  -25.695457    0.752508
  41 C     6.0000    0    12.011   -7.299653  -20.774326    4.260047
  42 O     8.0000    0    15.999  -16.019303  -20.274815    2.055285
  43 C     6.0000    0    12.011   -5.321393  -22.528616    4.539557
  44 C     6.0000    0    12.011   -6.947484  -18.547095    5.672240
  45 N     7.0000    0    14.007   -3.619940  -23.857150    4.764812
  46 N     7.0000    0    14.007   -6.665744  -16.786456    6.907743
  47 C     6.0000    0    12.011   -1.420318  -12.911138    1.201053
  48 C     6.0000    0    12.011   -3.513851  -12.619345   -3.212572
  49 C     6.0000    0    12.011   -0.994922  -11.534699    3.726956
  50 C     6.0000    0    12.011   -2.522274  -15.130243   -4.314849
  51 C     6.0000    0    12.011   -2.931362  -12.279119    5.760528
  52 C     6.0000    0    12.011   -4.121020  -10.016059    7.086511
  53 C     6.0000    0    12.011    1.721635  -12.068150    4.600671
  54 C     6.0000    0    12.011    2.508952  -10.497013    6.881381
  55 C     6.0000    0    12.011    0.337052  -15.565788   -4.076423
  56 C     6.0000    0    12.011    1.951615  -13.403525   -5.089221
  57 C     6.0000    0    12.011   -4.001287  -17.435445   -3.379170
  58 C     6.0000    0    12.011   -3.742848  -19.744652   -5.085480
  59 C     6.0000    0    12.011   -0.785427   12.997083    2.835572
  60 C     6.0000    0    12.011    0.979445   11.587479    4.665224
  61 C     6.0000    0    12.011    3.598152   12.841313    4.869163
  62 C     6.0000    0    12.011    5.766669   10.977703    4.516011
  63 C     6.0000    0    12.011   -0.310331   11.397600    7.258174
  64 C     6.0000    0    12.011    1.112387    9.723529    9.119837
  65 C     6.0000    0    12.011   -2.294713   13.754409   -1.696199
  66 C     6.0000    0    12.011   -5.058495   12.935213   -1.308579
  67 C     6.0000    0    12.011   -6.494611   14.760896    0.448734
  68 C     6.0000    0    12.011   -6.328220   12.717177   -3.910316
  69 C     6.0000    0    12.011   -9.027978   11.718683   -3.828264
  70 C     6.0000    0    12.011    7.596586   17.238649   -3.013716
  71 C     6.0000    0    12.011    7.372842   19.813401   -3.075246
  72 C     6.0000    0    12.011    5.239190   21.505953   -3.145033
  73 C     6.0000    0    12.011    6.156180   24.013222   -2.415240
  74 C     6.0000    0    12.011    8.812492   23.959668   -2.333491
  75 C     6.0000    0    12.011    9.703120   21.371820   -2.888522
  76 C     6.0000    0    12.011    4.882145   26.237298   -1.887988
  77 C     6.0000    0    12.011    6.289405   28.375410   -1.304648
  78 C     6.0000    0    12.011    8.909473   28.317565   -1.255969
  79 C     6.0000    0    12.011   10.203425   26.093414   -1.768462
  80 O     8.0000    0    15.999   11.861282   20.636679   -3.076928
  81 C     6.0000    0    12.011    2.900824   21.028665   -4.163520
  82 C     6.0000    0    12.011    0.935962   22.820257   -4.294365
  83 C     6.0000    0    12.011    2.219162   18.737976   -5.333771
  84 N     7.0000    0    14.007    1.573613   16.935423   -6.355735
  85 N     7.0000    0    14.007   -0.757610   24.172999   -4.404234
  86 C     6.0000    0    12.011   -8.202526   13.422914    2.348363
  87 H     1.0000    0     1.008   -6.475562   -0.630885    1.016786
  88 H     1.0000    0     1.008   -5.008341    3.669300    0.709139
  89 H     1.0000    0     1.008   -0.848922   -7.095922   -1.376647
  90 H     1.0000    0     1.008   -6.531801  -17.130934    1.014216
  91 H     1.0000    0     1.008   -3.379530    7.510225    0.839983
  92 H     1.0000    0     1.008    2.760228   17.403754   -0.522887
  93 H     1.0000    0     1.008  -13.662777  -16.208767    2.641043
  94 H     1.0000    0     1.008   -6.942381  -25.985719    1.763644
  95 H     1.0000    0     1.008   -9.282656  -29.723294    0.312920
  96 H     1.0000    0     1.008  -13.872971  -29.582907   -0.308611
  97 H     1.0000    0     1.008  -16.249698  -25.597588    0.481408
  98 H     1.0000    0     1.008    0.223819  -12.528506    0.023508
  99 H     1.0000    0     1.008   -1.518546  -14.940156    1.552145
 100 H     1.0000    0     1.008   -2.315840  -11.126594   -3.977325
 101 H     1.0000    0     1.008   -5.402878  -12.322810   -4.001665
 102 H     1.0000    0     1.008   -1.143039   -9.499899    3.384462
 103 H     1.0000    0     1.008   -2.908081  -14.951022   -6.347836
 104 H     1.0000    0     1.008   -2.033496  -13.487542    7.168771
 105 H     1.0000    0     1.008   -4.440233  -13.396892    4.919732
 106 H     1.0000    0     1.008   -5.132666   -8.832126    5.742821
 107 H     1.0000    0     1.008   -5.458531  -10.664159    8.504939
 108 H     1.0000    0     1.008   -2.695940   -8.860926    8.011910
 109 H     1.0000    0     1.008    3.020066  -11.654810    3.047278
 110 H     1.0000    0     1.008    1.907868  -14.074624    5.050104
 111 H     1.0000    0     1.008    2.303293   -8.491314    6.476054
 112 H     1.0000    0     1.008    4.477347  -10.863204    7.348200
 113 H     1.0000    0     1.008    1.367708  -10.952456    8.525575
 114 H     1.0000    0     1.008    0.789282  -17.249477   -5.178908
 115 H     1.0000    0     1.008    0.850528  -15.969546   -2.124468
 116 H     1.0000    0     1.008    1.372829  -12.904959   -6.998355
 117 H     1.0000    0     1.008    3.925471  -13.974808   -5.145120
 118 H     1.0000    0     1.008    1.818578  -11.724277   -3.912432
 119 H     1.0000    0     1.008   -5.999673  -16.928167   -3.286309
 120 H     1.0000    0     1.008   -3.359442  -17.934408   -1.483605
 121 H     1.0000    0     1.008   -4.259707  -19.275717   -7.019237
 122 H     1.0000    0     1.008   -4.988726  -21.244679   -4.432372
 123 H     1.0000    0     1.008   -1.823151  -20.472877   -5.080737
 124 H     1.0000    0     1.008   -2.721659   12.424949    3.239198
 125 H     1.0000    0     1.008   -0.645927   15.028557    3.168277
 126 H     1.0000    0     1.008    1.227736    9.660148    3.954573
 127 H     1.0000    0     1.008    3.784120   13.757244    6.708490
 128 H     1.0000    0     1.008    3.776221   14.320477    3.446142
 129 H     1.0000    0     1.008    5.691515    9.483931    5.923630
 130 H     1.0000    0     1.008    7.574457   11.941652    4.690073
 131 H     1.0000    0     1.008    5.677550   10.110696    2.653742
 132 H     1.0000    0     1.008   -2.205273   10.615763    7.004194
 133 H     1.0000    0     1.008   -0.522301   13.291729    8.052614
 134 H     1.0000    0     1.008    1.354764    7.834899    8.343670
 135 H     1.0000    0     1.008    0.059810    9.568364   10.878738
 136 H     1.0000    0     1.008    2.965509   10.493857    9.552660
 137 H     1.0000    0     1.008   -1.732954   13.365220   -3.643808
 138 H     1.0000    0     1.008   -2.134200   15.794331   -1.436400
 139 H     1.0000    0     1.008   -5.079376   11.055805   -0.455594
 140 H     1.0000    0     1.008   -7.625801   16.053809   -0.692755
 141 H     1.0000    0     1.008   -5.151412   15.916181    1.503504
 142 H     1.0000    0     1.008   -5.200281   11.438097   -5.075105
 143 H     1.0000    0     1.008   -6.309191   14.568957   -4.821882
 144 H     1.0000    0     1.008   -9.099088    9.902316   -2.866129
 145 H     1.0000    0     1.008   -9.734452   11.458033   -5.740950
 146 H     1.0000    0     1.008  -10.282151   13.027394   -2.864447
 147 H     1.0000    0     1.008    9.502960   16.549655   -3.336406
 148 H     1.0000    0     1.008    2.846740   26.328590   -1.902350
 149 H     1.0000    0     1.008    5.314666   30.117567   -0.882691
 150 H     1.0000    0     1.008    9.948274   30.016051   -0.810768
 151 H     1.0000    0     1.008   12.240531   26.007696   -1.734428
 152 H     1.0000    0     1.008   -9.596766   12.247863    1.406448
 153 H     1.0000    0     1.008   -9.197089   14.803037    3.502815
 154 H     1.0000    0     1.008   -7.097603   12.224676    3.604747

--------------------------------
INTERNAL COORDINATES (ANGSTROEM)
--------------------------------
 S      0   0   0     0.000000000000     0.00000000     0.00000000
 N      1   0   0     1.608796727899     0.00000000     0.00000000
 C      2   1   0     1.332559814192   109.30388131     0.00000000
 C      3   2   1     1.437385486708   111.48390416     0.00000000
 N      4   3   2     1.329663957021   112.10247280   359.96365429
 C      3   2   1     1.422076695084   128.13426794   179.78470701
 C      6   3   2     1.390868030045   115.87398504   180.82077785
 C      7   6   3     1.388836089861   123.53351207   359.00334394
 C      8   7   6     1.391100409676   122.63201662     0.22463985
 C      9   8   7     1.428773233057   123.87487229   181.45011886
 C      6   3   2     1.428675387658   121.81465631     1.39350818
 C     11   6   3     1.384734173298   127.52423302     3.13702403
 C     12  11   6     1.388057845697   112.52921251   178.03007396
 C     13  12  11     1.393383175333   112.80777493     0.88304269
 S     14  13  12     1.716690425004   112.64070940   359.44947428
 C     13  12  11     1.514027243645   135.79960182   179.63984870
 C     16  13  12     1.517777031747    99.99911362   178.38314739
 C     17  16  13     1.407026474733   110.39041839     3.43579750
 C     17  16  13     1.382649299461   137.82888708   181.94925931
 C     19  17  16     1.395341231599   113.27845411   183.19042279
 S     18  17  16     1.705191930370   113.37654432   177.54318335
 C     10   9   8     1.389092304564   127.66524143     4.72793925
 C     22  10   9     1.387013944378   112.67321838   179.30533578
 C     23  22  10     1.399374327191   112.02231610   359.46789824
 S     24  23  22     1.716221795748   113.14714927     0.46228313
 C     23  22  10     1.511749768778   137.08533712   181.76626325
 C     26  23  22     1.510685139332   100.30157420   175.77949676
 C     27  26  23     1.401587236707   110.82116597     2.32459951
 C     27  26  23     1.380626005876   136.20067196   175.67437588
 C     29  27  26     1.394671349423   112.67605360   185.51842335
 S     28  27  26     1.707480648968   112.78918983   177.50620354
 C     20  19  17     1.405130216243   130.31789167   171.01993622
 C     32  20  19     1.368678311840   130.46344052    11.02460098
 C     33  32  20     1.440490091705   133.23368391    17.38294823
 C     34  33  32     1.462222573140   107.48434979   199.86409365
 C     35  34  33     1.406810151158   108.51810393   349.55372894
 C     36  35  34     1.479255659208   109.41162363     3.10869405
 C     35  34  33     1.384375621896   131.42345599   171.53667824
 C     38  35  34     1.389198459832   118.34011256   177.49133209
 C     39  38  35     1.387163349321   121.41845149   359.60855379
 C     36  35  34     1.380612455036   121.37529199   182.53118115
 C     34  33  32     1.372794380743   125.97158398    32.20125104
 O     37  36  35     1.210467384649   127.89612042   182.73287182
 C     42  34  33     1.406971527608   124.41748540   178.07806888
 C     42  34  33     1.407936539621   121.98104158     2.74877080
 N     44  42  34     1.148532088276   176.43621491   144.38329570
 N     45  42  34     1.147923570714   177.33761522   111.69509241
 C     16  13  12     1.538751465637   111.14236418    56.98660829
 C     16  13  12     1.559656706490   104.51148898   294.31320833
 C     48  16  13     1.538780412859   116.06960276    38.04238768
 C     49  16  13     1.543061966513   123.56262867   166.55613835
 C     50  48  16     1.537291832314   112.90779379    71.13007563
 C     52  50  48     1.524081817882   113.34507437   228.78982622
 C     50  48  16     1.536221474332   108.14029447   194.94800693
 C     54  50  48     1.523624217122   113.20436229   171.44231298
 C     51  49  16     1.535734758153   115.67150924   286.38382906
 C     56  51  49     1.525275084370   114.23264688   307.51210006
 C     51  49  16     1.531593521402   112.94511673    55.73527556
 C     58  51  49     1.525529108736   113.62982826   159.01552193
 C     26  23  22     1.536416493793   111.97259061    54.02280540
 C     60  26  23     1.538202656967   114.87630046    48.83527185
 C     61  60  26     1.540197959355   112.42510690    78.92725433
 C     62  61  60     1.524565586552   112.95266726   230.20785409
 C     61  60  26     1.535796378984   108.92111519   202.93935103
 C     64  61  60     1.523849445910   113.33237046   172.10853129
 C     26  23  22     1.549236235472   111.50626710   287.54787879
 C     66  26  23     1.539152515282   116.24538716    65.15540425
 C     67  66  26     1.541323307616   111.86231691    96.38518159
 C     67  66  26     1.536326384887   108.49972327   220.23687669
 C     69  67  66     1.523847611574   114.23829211   175.49098926
 C     30  29  27     1.404044216184   130.00018253   182.21602392
 C     71  30  29     1.368022281836   129.71738497   343.45115808
 C     72  71  30     1.441663035144   133.40518278   344.07198875
 C     73  72  71     1.464575700570   107.25225819   163.00244787
 C     74  73  72     1.406611040338   108.72087141     9.85195841
 C     75  74  73     1.477744152078   109.34616271   357.24772581
 C     74  73  72     1.384753754680   131.43571202   188.60943321
 C     77  74  73     1.389247704983   118.42373895   181.79392404
 C     78  77  74     1.387057078890   121.46441484     0.31690984
 C     75  74  73     1.380617673145   121.53056516   178.05820288
 O     76  75  74     1.210601029613   127.95424265   176.96234351
 C     73  72  71     1.373117982768   126.98133064   331.33264964
 C     82  73  72     1.408805082366   124.09791592   183.68199948
 C     82  73  72     1.408188412003   124.17962475   359.90083843
 N     84  82  73     1.148490317330   176.56722298   205.10031275
 N     83  82  73     1.148469244342   176.26075903   204.79377158
 C     68  67  66     1.525991580121   113.49298514   221.97216167
 H      7   6   3     1.080542772916   118.11343354   179.51022443
 H      8   7   6     1.078221182133   118.10362477   180.27556879
 H     12  11   6     1.074193343305   121.54057443   359.04230139
 H     19  17  16     1.072406965056   124.96848348     1.25290154
 H     22  10   9     1.074309022442   122.32813499     0.96506313
 H     29  27  26     1.075723613481   124.73882567     8.86278062
 H     32  20  19     1.086399018639   115.22187062   199.12069029
 H     38  35  34     1.078517661886   121.44780612   356.89965714
 H     39  38  35     1.079752596709   119.07425862   179.76413251
 H     40  39  38     1.079622940938   119.60754915   180.59482199
 H     41  36  35     1.079093324648   120.15312878   179.32636060
 H     48  16  13     1.089155061917   106.83878982   278.84399881
 H     48  16  13     1.090904674387   109.17006656   161.61839973
 H     49  16  13     1.090719341811   106.38226813    43.02166794
 H     49  16  13     1.094645480601   105.83870402   289.90241131
 H     50  48  16     1.094725990785   108.13762622   310.84965971
 H     51  49  16     1.099110134290   103.44636643   170.90321136
 H     52  50  48     1.090875034960   109.76025624   106.62594044
 H     52  50  48     1.088748513891   109.99861804   350.04346193
 H     53  52  50     1.088437319371   110.77400206    60.89953829
 H     53  52  50     1.087186483544   109.80977904   180.35780436
 H     53  52  50     1.087269091486   111.26131965   300.54184948
 H     54  50  48     1.093465181567   108.96524931    50.83528172
 H     54  50  48     1.092543811387   109.17809192   293.64714534
 H     55  54  50     1.088281308256   110.40904832   303.02774200
 H     55  54  50     1.087918915269   110.15009904   183.44711977
 H     55  54  50     1.086198412538   111.18606137    63.61675131
 H     56  51  49     1.091542049167   107.13340644   188.50031218
 H     56  51  49     1.089232178601   110.67888254    72.20373090
 H     57  56  51     1.088144834202   110.51492469   308.68556351
 H     57  56  51     1.087790578604   109.81264662   189.38720627
 H     57  56  51     1.087379564504   112.05853443    69.67694090
 H     58  51  49     1.092145147496   108.27520514    38.93650967
 H     58  51  49     1.091452606484   109.31536525   280.75880853
 H     59  58  51     1.087901205349   110.57837998   305.50868967
 H     59  58  51     1.088207822339   109.99884468   186.02298618
 H     59  58  51     1.086499042475   111.50350081    66.38357976
 H     60  26  23     1.089545757552   107.05750106   288.63960487
 H     60  26  23     1.091830122363   109.07004219   172.26385603
 H     61  60  26     1.094934000614   107.96145183   319.27715431
 H     62  61  60     1.091778463380   109.56115862   108.25681331
 H     62  61  60     1.090236387854   109.79489625   351.24810820
 H     63  62  61     1.086862773399   111.03303693   300.65154831
 H     63  62  61     1.088047035610   110.37413876   180.45573054
 H     63  62  61     1.088059109837   110.55814060    60.76763844
 H     64  61  60     1.093052373173   108.82061565    51.65822849
 H     64  61  60     1.092695610772   109.22883168   294.59758831
 H     65  64  61     1.088113090124   110.37508623   302.89057925
 H     65  64  61     1.087806896926   110.12467072   183.36332536
 H     65  64  61     1.086399966909   111.35348227    63.50265749
 H     66  26  23     1.092237635453   106.61219997   302.97945128
 H     66  26  23     1.091509333171   108.05815942   188.82723447
 H     67  66  26     1.092234323989   108.73216105   336.64493520
 H     68  67  66     1.091467193689   109.23344771    99.73434856
 H     68  67  66     1.091106700648   109.79410605   342.92312795
 H     69  67  66     1.092853832129   108.24533955    54.80917611
 H     69  67  66     1.092261450249   108.92691432   298.15028636
 H     70  69  67     1.088350379657   110.60785642   304.40625186
 H     70  69  67     1.087766578775   109.85673089   185.09568979
 H     70  69  67     1.086376267644   111.41280261    65.55478388
 H     71  30  29     1.086181271105   115.87117864   158.75017741
 H     77  74  73     1.078199649508   121.53549666     2.48471593
 H     78  77  74     1.079739055652   119.02918319   180.25751444
 H     79  78  77     1.079594911159   119.64667267   179.49066487
 H     80  75  74     1.079094217295   120.12059252   180.56403965
 H     87  68  67     1.086019774083   111.44939321   301.54708286
 H     87  68  67     1.087926756266   110.17895190   181.33712406
 H     87  68  67     1.089016555843   110.75235794    62.00210646

---------------------------
INTERNAL COORDINATES (A.U.)
---------------------------
 S      0   0   0     0.000000000000     0.00000000     0.00000000
 N      1   0   0     3.040185220879     0.00000000     0.00000000
 C      2   1   0     2.518173105892   109.30388131     0.00000000
 C      3   2   1     2.716264918752   111.48390416     0.00000000
 N      4   3   2     2.512700728915   112.10247280   359.96365429
 C      3   2   1     2.687335495140   128.13426794   179.78470701
 C      6   3   2     2.628359665211   115.87398504   180.82077785
 C      7   6   3     2.624519854743   123.53351207   359.00334394
 C      8   7   6     2.628798799073   122.63201662     0.22463985
 C      9   8   7     2.699990117955   123.87487229   181.45011886
 C      6   3   2     2.699805216948   121.81465631     1.39350818
 C     11   6   3     2.616768355816   127.52423302     3.13702403
 C     12  11   6     2.623049186407   112.52921251   178.03007396
 C     13  12  11     2.633112600992   112.80777493     0.88304269
 S     14  13  12     3.244074759982   112.64070940   359.44947428
 C     13  12  11     2.861096849785   135.79960182   179.63984870
 C     16  13  12     2.868182922359    99.99911362   178.38314739
 C     17  16  13     2.658894700422   110.39041839     3.43579750
 C     17  16  13     2.612828515239   137.82888708   181.94925931
 C     19  17  16     2.636812791090   113.27845411   183.19042279
 S     18  17  16     3.222345754172   113.37654432   177.54318335
 C     10   9   8     2.625004030364   127.66524143     4.72793925
 C     22  10   9     2.621076498805   112.67321838   179.30533578
 C     23  22  10     2.644434237230   112.02231610   359.46789824
 S     24  23  22     3.243189179030   113.14714927     0.46228313
 C     23  22  10     2.856793046009   137.08533712   181.76626325
 C     26  23  22     2.854781187923   100.30157420   175.77949676
 C     27  26  23     2.648616030176   110.82116597     2.32459951
 C     27  26  23     2.609005044474   136.20067196   175.67437588
 C     29  27  26     2.635546897235   112.67605360   185.51842335
 S     28  27  26     3.226670805520   112.78918983   177.50620354
 C     20  19  17     2.655311291197   130.31789167   171.01993622
 C     32  20  19     2.586427174814   130.46344052    11.02460098
 C     33  32  20     2.722131771949   133.23368391    17.38294823
 C     34  33  32     2.763200210072   107.48434979   199.86409365
 C     35  34  33     2.658485908108   108.51810393   349.55372894
 C     36  35  34     2.795388077957   109.41162363     3.10869405
 C     35  34  33     2.616090791860   131.42345599   171.53667824
 C     38  35  34     2.625204634748   118.34011256   177.49133209
 C     39  38  35     2.621358833230   121.41845149   359.60855379
 C     36  35  34     2.608979437098   121.37529199   182.53118115
 C     34  33  32     2.594205417791   125.97158398    32.20125104
 O     37  36  35     2.287451851031   127.89612042   182.73287182
 C     42  34  33     2.658790865404   124.41748540   178.07806888
 C     42  34  33     2.660614473824   121.98104158     2.74877080
 N     44  42  34     2.170411102863   176.43621491   144.38329570
 N     45  42  34     2.169261171322   177.33761522   111.69509241
 C     16  13  12     2.907818858224   111.14236418    56.98660829
 C     16  13  12     2.947324038200   104.51148898   294.31320833
 C     48  16  13     2.907873560547   116.06960276    38.04238768
 C     49  16  13     2.915964524380   123.56262867   166.55613835
 C     50  48  16     2.905060550988   112.90779379    71.13007563
 C     52  50  48     2.880097241487   113.34507437   228.78982622
 C     50  48  16     2.903037867537   108.14029447   194.94800693
 C     54  50  48     2.879232501370   113.20436229   171.44231298
 C     51  49  16     2.902118107253   115.67150924   286.38382906
 C     56  51  49     2.882352188353   114.23264688   307.51210006
 C     51  49  16     2.894292303937   112.94511673    55.73527556
 C     58  51  49     2.882832224835   113.62982826   159.01552193
 C     26  23  22     2.903406400909   111.97259061    54.02280540
 C     60  26  23     2.906781760137   114.87630046    48.83527185
 C     61  60  26     2.910552335205   112.42510690    78.92725433
 C     62  61  60     2.881011431785   112.95266726   230.20785409
 C     61  60  26     2.902234553747   108.92111519   202.93935103
 C     64  61  60     2.879658122097   113.33237046   172.10853129
 C     26  23  22     2.927632201790   111.50626710   287.54787879
 C     66  26  23     2.908576732220   116.24538716    65.15540425
 C     67  66  26     2.912678935224   111.86231691    96.38518159
 C     67  66  26     2.903236119754   108.49972327   220.23687669
 C     69  67  66     2.879654655705   114.23829211   175.49098926
 C     30  29  27     2.653259048504   130.00018253   182.21602392
 C     71  30  29     2.585187457772   129.71738497   343.45115808
 C     72  71  30     2.724348313819   133.40518278   344.07198875
 C     73  72  71     2.767646976473   107.25225819   163.00244787
 C     74  73  72     2.658109643188   108.72087141     9.85195841
 C     75  74  73     2.792531743431   109.34616271   357.24772581
 C     74  73  72     2.616805359264   131.43571202   188.60943321
 C     77  74  73     2.625297694596   118.42373895   181.79392404
 C     78  77  74     2.621158011220   121.46441484     0.31690984
 C     75  74  73     2.608989297895   121.53056516   178.05820288
 O     76  75  74     2.287704403412   127.95424265   176.96234351
 C     73  72  71     2.594816936993   126.98133064   331.33264964
 C     82  73  72     2.662255781748   124.09791592   183.68199948
 C     82  73  72     2.661090443647   124.17962475   359.90083843
 N     84  82  73     2.170332167213   176.56722298   205.10031275
 N     83  82  73     2.170292345038   176.26075903   204.79377158
 C     68  67  66     2.883706169098   113.49298514   221.97216167
 H      7   6   3     2.041929916798   118.11343354   179.51022443
 H      8   7   6     2.037542746024   118.10362477   180.27556879
 H     12  11   6     2.029931233727   121.54057443   359.04230139
 H     19  17  16     2.026555468065   124.96848348     1.25290154
 H     22  10   9     2.030149835616   122.32813499     0.96506313
 H     29  27  26     2.032823025271   124.73882567     8.86278062
 H     32  20  19     2.052996617389   115.22187062   199.12069029
 H     38  35  34     2.038103011562   121.44780612   356.89965714
 H     39  38  35     2.040436700170   119.07425862   179.76413251
 H     40  39  38     2.040191686272   119.60754915   180.59482199
 H     41  36  35     2.039190856527   120.15312878   179.32636060
 H     48  16  13     2.058204784398   106.83878982   278.84399881
 H     48  16  13     2.061511072806   109.17006656   161.61839973
 H     49  16  13     2.061160844993   106.38226813    43.02166794
 H     49  16  13     2.068580172070   105.83870402   289.90241131
 H     50  48  16     2.068732314269   108.13762622   310.84965971
 H     51  49  16     2.077017144826   103.44636643   170.90321136
 H     52  50  48     2.061455062407   109.76025624   106.62594044
 H     52  50  48     2.057436519968   109.99861804   350.04346193
 H     53  52  50     2.056848447551   110.77400206    60.89953829
 H     53  52  50     2.054484710398   109.80977904   180.35780436
 H     53  52  50     2.054640816785   111.26131965   300.54184948
 H     54  50  48     2.066349730141   108.96524931    50.83528172
 H     54  50  48     2.064608592832   109.17809192   293.64714534
 H     55  54  50     2.056553629270   110.40904832   303.02774200
 H     55  54  50     2.055868805771   110.15009904   183.44711977
 H     55  54  50     2.052617526797   111.18606137    63.61675131
 H     56  51  49     2.062715536585   107.13340644   188.50031218
 H     56  51  49     2.058350513810   110.67888254    72.20373090
 H     57  56  51     2.056295730682   110.51492469   308.68556351
 H     57  56  51     2.055626284622   109.81264662   189.38720627
 H     57  56  51     2.054849580534   112.05853443    69.67694090
 H     58  51  49     2.063855227259   108.27520514    38.93650967
 H     58  51  49     2.062546514409   109.31536525   280.75880853
 H     59  58  51     2.055835338873   110.57837998   305.50868967
 H     59  58  51     2.056414761012   109.99884468   186.02298618
 H     59  58  51     2.053185635046   111.50350081    66.38357976
 H     60  26  23     2.058943092149   107.05750106   288.63960487
 H     60  26  23     2.063259916032   109.07004219   172.26385603
 H     61  60  26     2.069125395879   107.96145183   319.27715431
 H     62  61  60     2.063162294701   109.56115862   108.25681331
 H     62  61  60     2.060248194279   109.79489625   351.24810820
 H     63  62  61     2.053872986878   111.03303693   300.65154831
 H     63  62  61     2.056110918128   110.37413876   180.45573054
 H     63  62  61     2.056133735111   110.55814060    60.76763844
 H     64  61  60     2.065569635330   108.82061565    51.65822849
 H     64  61  60     2.064895452097   109.22883168   294.59758831
 H     65  64  61     2.056235743070   110.37508623   302.89057925
 H     65  64  61     2.055657121781   110.12467072   183.36332536
 H     65  64  61     2.052998409359   111.35348227    63.50265749
 H     66  26  23     2.064030004168   106.61219997   302.97945128
 H     66  26  23     2.062653712313   108.05815942   188.82723447
 H     67  66  26     2.064023746408   108.73216105   336.64493520
 H     68  67  66     2.062574080232   109.23344771    99.73434856
 H     68  67  66     2.061892847112   109.79410605   342.92312795
 H     69  67  66     2.065194447131   108.24533955    54.80917611
 H     69  67  66     2.064075007610   108.92691432   298.15028636
 H     70  69  67     2.056684155301   110.60785642   304.40625186
 H     70  69  67     2.055580931517   109.85673089   185.09568979
 H     70  69  67     2.052953624239   111.41280261    65.55478388
 H     71  30  29     2.052585134184   115.87117864   158.75017741
 H     77  74  73     2.037502055261   121.53549666     2.48471593
 H     78  77  74     2.040411111281   119.02918319   180.25751444
 H     79  78  77     2.040138717665   119.64667267   179.49066487
 H     80  75  74     2.039192543386   120.12059252   180.56403965
 H     87  68  67     2.052279949041   111.44939321   301.54708286
 H     87  68  67     2.055883623109   110.17895190   181.33712406
 H     87  68  67     2.057943045849   110.75235794    62.00210646

---------------------
BASIS SET INFORMATION
---------------------
There are 5 groups of distinct atoms

 Group   1 Type S   : 10s7p1d contracted to 4s3p1d pattern {5311/511/1}
 Group   2 Type N   : 7s4p1d contracted to 3s2p1d pattern {511/31/1}
 Group   3 Type C   : 7s4p1d contracted to 3s2p1d pattern {511/31/1}
 Group   4 Type O   : 7s4p1d contracted to 3s2p1d pattern {511/31/1}
 Group   5 Type H   : 4s1p contracted to 2s1p pattern {31/1}

Atom   0S    basis set group =>   1
Atom   1N    basis set group =>   2
Atom   2C    basis set group =>   3
Atom   3C    basis set group =>   3
Atom   4N    basis set group =>   2
Atom   5C    basis set group =>   3
Atom   6C    basis set group =>   3
Atom   7C    basis set group =>   3
Atom   8C    basis set group =>   3
Atom   9C    basis set group =>   3
Atom  10C    basis set group =>   3
Atom  11C    basis set group =>   3
Atom  12C    basis set group =>   3
Atom  13C    basis set group =>   3
Atom  14S    basis set group =>   1
Atom  15C    basis set group =>   3
Atom  16C    basis set group =>   3
Atom  17C    basis set group =>   3
Atom  18C    basis set group =>   3
Atom  19C    basis set group =>   3
Atom  20S    basis set group =>   1
Atom  21C    basis set group =>   3
Atom  22C    basis set group =>   3
Atom  23C    basis set group =>   3
Atom  24S    basis set group =>   1
Atom  25C    basis set group =>   3
Atom  26C    basis set group =>   3
Atom  27C    basis set group =>   3
Atom  28C    basis set group =>   3
Atom  29C    basis set group =>   3
Atom  30S    basis set group =>   1
Atom  31C    basis set group =>   3
Atom  32C    basis set group =>   3
Atom  33C    basis set group =>   3
Atom  34C    basis set group =>   3
Atom  35C    basis set group =>   3
Atom  36C    basis set group =>   3
Atom  37C    basis set group =>   3
Atom  38C    basis set group =>   3
Atom  39C    basis set group =>   3
Atom  40C    basis set group =>   3
Atom  41C    basis set group =>   3
Atom  42O    basis set group =>   4
Atom  43C    basis set group =>   3
Atom  44C    basis set group =>   3
Atom  45N    basis set group =>   2
Atom  46N    basis set group =>   2
Atom  47C    basis set group =>   3
Atom  48C    basis set group =>   3
Atom  49C    basis set group =>   3
Atom  50C    basis set group =>   3
Atom  51C    basis set group =>   3
Atom  52C    basis set group =>   3
Atom  53C    basis set group =>   3
Atom  54C    basis set group =>   3
Atom  55C    basis set group =>   3
Atom  56C    basis set group =>   3
Atom  57C    basis set group =>   3
Atom  58C    basis set group =>   3
Atom  59C    basis set group =>   3
Atom  60C    basis set group =>   3
Atom  61C    basis set group =>   3
Atom  62C    basis set group =>   3
Atom  63C    basis set group =>   3
Atom  64C    basis set group =>   3
Atom  65C    basis set group =>   3
Atom  66C    basis set group =>   3
Atom  67C    basis set group =>   3
Atom  68C    basis set group =>   3
Atom  69C    basis set group =>   3
Atom  70C    basis set group =>   3
Atom  71C    basis set group =>   3
Atom  72C    basis set group =>   3
Atom  73C    basis set group =>   3
Atom  74C    basis set group =>   3
Atom  75C    basis set group =>   3
Atom  76C    basis set group =>   3
Atom  77C    basis set group =>   3
Atom  78C    basis set group =>   3
Atom  79C    basis set group =>   3
Atom  80O    basis set group =>   4
Atom  81C    basis set group =>   3
Atom  82C    basis set group =>   3
Atom  83C    basis set group =>   3
Atom  84N    basis set group =>   2
Atom  85N    basis set group =>   2
Atom  86C    basis set group =>   3
Atom  87H    basis set group =>   5
Atom  88H    basis set group =>   5
Atom  89H    basis set group =>   5
Atom  90H    basis set group =>   5
Atom  91H    basis set group =>   5
Atom  92H    basis set group =>   5
Atom  93H    basis set group =>   5
Atom  94H    basis set group =>   5
Atom  95H    basis set group =>   5
Atom  96H    basis set group =>   5
Atom  97H    basis set group =>   5
Atom  98H    basis set group =>   5
Atom  99H    basis set group =>   5
Atom 100H    basis set group =>   5
Atom 101H    basis set group =>   5
Atom 102H    basis set group =>   5
Atom 103H    basis set group =>   5
Atom 104H    basis set group =>   5
Atom 105H    basis set group =>   5
Atom 106H    basis set group =>   5
Atom 107H    basis set group =>   5
Atom 108H    basis set group =>   5
Atom 109H    basis set group =>   5
Atom 110H    basis set group =>   5
Atom 111H    basis set group =>   5
Atom 112H    basis set group =>   5
Atom 113H    basis set group =>   5
Atom 114H    basis set group =>   5
Atom 115H    basis set group =>   5
Atom 116H    basis set group =>   5
Atom 117H    basis set group =>   5
Atom 118H    basis set group =>   5
Atom 119H    basis set group =>   5
Atom 120H    basis set group =>   5
Atom 121H    basis set group =>   5
Atom 122H    basis set group =>   5
Atom 123H    basis set group =>   5
Atom 124H    basis set group =>   5
Atom 125H    basis set group =>   5
Atom 126H    basis set group =>   5
Atom 127H    basis set group =>   5
Atom 128H    basis set group =>   5
Atom 129H    basis set group =>   5
Atom 130H    basis set group =>   5
Atom 131H    basis set group =>   5
Atom 132H    basis set group =>   5
Atom 133H    basis set group =>   5
Atom 134H    basis set group =>   5
Atom 135H    basis set group =>   5
Atom 136H    basis set group =>   5
Atom 137H    basis set group =>   5
Atom 138H    basis set group =>   5
Atom 139H    basis set group =>   5
Atom 140H    basis set group =>   5
Atom 141H    basis set group =>   5
Atom 142H    basis set group =>   5
Atom 143H    basis set group =>   5
Atom 144H    basis set group =>   5
Atom 145H    basis set group =>   5
Atom 146H    basis set group =>   5
Atom 147H    basis set group =>   5
Atom 148H    basis set group =>   5
Atom 149H    basis set group =>   5
Atom 150H    basis set group =>   5
Atom 151H    basis set group =>   5
Atom 152H    basis set group =>   5
Atom 153H    basis set group =>   5
Atom 154H    basis set group =>   5
------------------------------------------------------------------------------
                           ORCA GTO INTEGRAL CALCULATION
------------------------------------------------------------------------------

                         BASIS SET STATISTICS AND STARTUP INFO

 # of primitive gaussian shells          ... 1414
 # of primitive gaussian functions       ... 2624
 # of contracted shells                  ...  736
 # of contracted basis functions         ... 1578
 Highest angular momentum                ...    2
 Maximum contraction depth               ...    5
 Integral package used                   ... LIBINT
 Integral threshhold            Thresh   ...  2.500e-11
 Primitive cut-off              TCut     ...  2.500e-12


------------------------------ INTEGRAL EVALUATION ----------------------------


 * One electron integrals 
 Pre-screening matrix                    ... done
 Shell pair data                         ... done (   0.032 sec)

-------------------------------------------------------------------------------
                                 ORCA SCF
-------------------------------------------------------------------------------

------------
SCF SETTINGS
------------
Hamiltonian:
 Ab initio Hamiltonian  Method          .... Hartree-Fock(GTOs)


General Settings:
 Integral files         IntName         .... BTCIC
 Hartree-Fock type      HFTyp           .... RHF
 Total Charge           Charge          ....    0
 Multiplicity           Mult            ....    1
 Number of Electrons    NEL             ....  650
 Basis Dimension        Dim             .... 1578
 Nuclear Repulsion      ENuc            ....  15344.4219991284 Eh

Convergence Acceleration:
 DIIS                   CNVDIIS         .... on
   Start iteration      DIISMaxIt       ....    12
   Startup error        DIISStart       ....  0.200000
   # of expansion vecs  DIISMaxEq       ....     5
   Bias factor          DIISBfac        ....   1.050
   Max. coefficient     DIISMaxC        ....  10.000
 Newton-Raphson         CNVNR           .... off
 SOSCF                  CNVSOSCF        .... on
   Start iteration      SOSCFMaxIt      ....   150
   Startup grad/error   SOSCFStart      ....  0.003300
 Level Shifting         CNVShift        .... on
   Level shift para.    LevelShift      ....    0.2500
   Turn off err/grad.   ShiftErr        ....    0.0010
 Zerner damping         CNVZerner       .... off
 Static damping         CNVDamp         .... on
   Fraction old density DampFac         ....    0.7000
   Max. Damping (<1)    DampMax         ....    0.9800
   Min. Damping (>=0)   DampMin         ....    0.0000
   Turn off err/grad.   DampErr         ....    0.1000
 Fernandez-Rico         CNVRico         .... off

SCF Procedure:
 Maximum # iterations   MaxIter         ....   125
 SCF integral mode      SCFMode         .... Direct
   Integral package                     .... LIBINT
 Reset frequency        DirectResetFreq ....    20
 Integral Threshold     Thresh          ....  2.500e-11 Eh
 Primitive CutOff       TCut            ....  2.500e-12 Eh

Convergence Tolerance:
 Convergence Check Mode ConvCheckMode   .... Total+1el-Energy
 Convergence forced     ConvForced      .... 1
 Energy Change          TolE            ....  1.000e-08 Eh
 1-El. energy change                    ....  1.000e-05 Eh
 Orbital Gradient       TolG            ....  1.000e-05
 Orbital Rotation angle TolX            ....  1.000e-05
 DIIS Error             TolErr          ....  5.000e-07


Diagonalization of the overlap matrix:
Smallest eigenvalue                        ... 1.549e-04
Time for diagonalization                   ...    0.764 sec
Threshold for overlap eigenvalues          ... 1.000e-08
Number of eigenvalues below threshold      ... 0
Time for construction of square roots      ...    0.291 sec
Total time needed                          ...    1.062 sec

-------------------
DFT GRID GENERATION
-------------------

General Integration Accuracy     IntAcc      ...  4.340
Radial Grid Type                 RadialGrid  ... Gauss-Chebyshev
Angular Grid (max. acc.)         AngularGrid ... Lebedev-110
Angular grid pruning method      GridPruning ... 3 (G Style)
Weight generation scheme         WeightScheme... Becke
Basis function cutoff            BFCut       ...    1.0000e-11
Integration weight cutoff        WCut        ...    1.0000e-14
Grids for H and He will be reduced by one unit

# of grid points (after initial pruning)     ... 199210 (   0.4 sec)
# of grid points (after weights+screening)   ... 170679 (  11.0 sec)
nearest neighbour list constructed           ...    0.0 sec
Grid point re-assignment to atoms done       ...    0.0 sec
Grid point division into batches done        ...    0.1 sec
Reduced shell lists constructed in    3.3 sec

Total number of grid points                  ...   170679
Total number of batches                      ...     2741
Average number of points per batch           ...       62
Average number of grid points per atom       ...     1101
Average number of shells per batch           ...   136.36 (18.53%)
Average number of basis functions per batch  ...   266.34 (16.88%)
Average number of large shells per batch     ...    77.53 (56.86%)
Average number of large basis fcns per batch ...   154.04 (57.84%)
Maximum spatial batch extension              ...  21.56, 23.43, 24.36 au
Average spatial batch extension              ...   3.04,  2.97,  3.34 au

Time for grid setup =   14.716 sec

------------------------------
INITIAL GUESS: MODEL POTENTIAL
------------------------------
Loading Hartree-Fock densities                     ... done
Calculating cut-offs                               ... done
Setting up the integral package                    ... done
Initializing the effective Hamiltonian             ... done
Starting the Coulomb interaction                   ... done (  19.6 sec)
Reading the grid                                   ... done
Mapping shells                                     ... done
Starting the XC term evaluation                    ... done (   3.2 sec)
Transforming the Hamiltonian                       ... done (   0.3 sec)
Diagonalizing the Hamiltonian                      ... done (   0.7 sec)
Back transforming the eigenvectors                 ... done (   0.1 sec)
Now organizing SCF variables                       ... done
                      ------------------
                      INITIAL GUESS DONE (  39.0 sec)
                      ------------------
--------------
SCF ITERATIONS
--------------
ITER       Energy         Delta-E        Max-DP      RMS-DP      [F,P]     Damp
               ***  Starting incremental Fock matrix formation  ***
  0  -5299.2689776072   0.000000000000 0.21865372  0.00120089  0.2421355 0.7000
  1  -5300.4280928186  -1.159115211431 0.15215112  0.00091971  0.1499629 0.7000
                               ***Turning on DIIS***
  2  -5301.1135414244  -0.685448605822 0.31660257  0.00210328  0.0870000 0.0000
  3  -5296.3064594668   4.807081957653 0.08816342  0.00053944  0.0488590 0.0000
  4  -5302.6259747995  -6.319515332754 0.01348391  0.00018451  0.0141150 0.0000
  5  -5302.6201674502   0.005807349375 0.00834289  0.00009141  0.0091042 0.0000
  6  -5302.4977203084   0.122447141792 0.00741332  0.00005560  0.0032865 0.0000
  7  -5302.5611846440  -0.063464335628 0.00545464  0.00003570  0.0025194 0.0000
  8  -5302.5397074592   0.021477184790 0.00472358  0.00003028  0.0015184 0.0000
                      *** Initiating the SOSCF procedure ***
                           *** Shutting down DIIS ***
                      *** Re-Reading the Fockian *** 
                      *** Removing any level shift *** 
ITER      Energy       Delta-E        Grad      Rot      Max-DP    RMS-DP
  9  -5302.54086599  -0.0011585309  0.002656  0.002656  0.005272  0.000030
               *** Restarting incremental Fock matrix formation ***
 10  -5302.56047344  -0.0196074508  0.000477  0.002020  0.001193  0.000007
 11  -5302.56049050  -0.0000170565  0.000344  0.003918  0.001373  0.000010
 12  -5302.56050305  -0.0000125484  0.000117  0.000481  0.000184  0.000002
 13  -5302.56050422  -0.0000011771  0.000062  0.000416  0.000124  0.000001
 14  -5302.56050469  -0.0000004656  0.000022  0.000227  0.000108  0.000001
 15  -5302.56050483  -0.0000001370  0.000019  0.000157  0.000063  0.000001
 16  -5302.56050487  -0.0000000469  0.000006  0.000073  0.000025  0.000000
 17  -5302.56050488  -0.0000000104  0.000004  0.000027  0.000014  0.000000
                  ***Gradient check signals convergence***
              ***Rediagonalizing the Fockian in SOSCF/NRSCF***

               *****************************************************
               *                     SUCCESS                       *
               *           SCF CONVERGED AFTER  18 CYCLES          *
               *****************************************************


----------------
TOTAL SCF ENERGY
----------------

Total Energy       :        -5302.56050484 Eh         -144290.00690 eV

Components:
Nuclear Repulsion  :        15344.42199913 Eh          417542.95007 eV
Electronic Energy  :       -20646.98250396 Eh         -561832.95697 eV
One Electron Energy:       -37838.62764487 Eh        -1029641.40417 eV
Two Electron Energy:        17191.64514091 Eh          467808.44721 eV

Virial components:
Potential Energy   :       -10591.35637954 Eh         -288205.45917 eV
Kinetic Energy     :         5288.79587470 Eh          143915.45227 eV
Virial Ratio       :            2.00260260


---------------
SCF CONVERGENCE
---------------

  Last Energy change         ...    4.7010e-08  Tolerance :   1.0000e-08
  Last MAX-Density change    ...    1.0010e-05  Tolerance :   1.0000e-07
  Last RMS-Density change    ...    6.4320e-08  Tolerance :   5.0000e-09
  Last Orbital Gradient      ...    2.2098e-06  Tolerance :   1.0000e-05
  Last Orbital Rotation      ...    1.8757e-05  Tolerance :   1.0000e-05

             **** THE GBW FILE WAS UPDATED (BTCIC.gbw) ****
             **** DENSITY FILE WAS UPDATED (BTCIC.scfp) ****
             **** ENERGY FILE WAS UPDATED (BTCIC.en.tmp) ****
             **** THE GBW FILE WAS UPDATED (BTCIC.gbw) ****
             **** DENSITY FILE WAS UPDATED (BTCIC.scfp) ****
----------------
ORBITAL ENERGIES
----------------

  NO   OCC          E(Eh)            E(eV) 
   0   2.0000     -92.050887     -2504.8320 
   1   2.0000     -91.979346     -2502.8852 
   2   2.0000     -91.977051     -2502.8228 
   3   2.0000     -91.976605     -2502.8107 
   4   2.0000     -91.971441     -2502.6701 
   5   2.0000     -20.551785      -559.2425 
   6   2.0000     -20.550544      -559.2087 
   7   2.0000     -15.627888      -425.2565 
   8   2.0000     -15.627801      -425.2541 
   9   2.0000     -15.581846      -424.0036 
  10   2.0000     -15.581582      -423.9964 
  11   2.0000     -15.581464      -423.9932 
  12   2.0000     -15.580327      -423.9623 
  13   2.0000     -11.349466      -308.8347 
  14   2.0000     -11.348671      -308.8130 
  15   2.0000     -11.331703      -308.3513 
  16   2.0000     -11.329627      -308.2948 
  17   2.0000     -11.320682      -308.0514 
  18   2.0000     -11.318433      -307.9902 
  19   2.0000     -11.309936      -307.7590 
  20   2.0000     -11.308732      -307.7262 
  21   2.0000     -11.308623      -307.7233 
  22   2.0000     -11.308427      -307.7179 
  23   2.0000     -11.308209      -307.7120 
  24   2.0000     -11.302839      -307.5659 
  25   2.0000     -11.301350      -307.5254 
  26   2.0000     -11.299302      -307.4696 
  27   2.0000     -11.293517      -307.3122 
  28   2.0000     -11.293427      -307.3098 
  29   2.0000     -11.293148      -307.3022 
  30   2.0000     -11.292448      -307.2831 
  31   2.0000     -11.291000      -307.2437 
  32   2.0000     -11.289968      -307.2156 
  33   2.0000     -11.288036      -307.1631 
  34   2.0000     -11.286402      -307.1186 
  35   2.0000     -11.286098      -307.1103 
  36   2.0000     -11.282699      -307.0178 
  37   2.0000     -11.282364      -307.0087 
  38   2.0000     -11.281426      -306.9832 
  39   2.0000     -11.281381      -306.9820 
  40   2.0000     -11.281248      -306.9784 
  41   2.0000     -11.281105      -306.9745 
  42   2.0000     -11.280757      -306.9650 
  43   2.0000     -11.271881      -306.7235 
  44   2.0000     -11.271542      -306.7142 
  45   2.0000     -11.271173      -306.7042 
  46   2.0000     -11.271014      -306.6999 
  47   2.0000     -11.270437      -306.6842 
  48   2.0000     -11.270015      -306.6727 
  49   2.0000     -11.269514      -306.6591 
  50   2.0000     -11.268979      -306.6445 
  51   2.0000     -11.268380      -306.6282 
  52   2.0000     -11.266930      -306.5887 
  53   2.0000     -11.266658      -306.5814 
  54   2.0000     -11.266141      -306.5673 
  55   2.0000     -11.266064      -306.5652 
  56   2.0000     -11.264735      -306.5290 
  57   2.0000     -11.261624      -306.4444 
  58   2.0000     -11.260817      -306.4224 
  59   2.0000     -11.259936      -306.3984 
  60   2.0000     -11.259246      -306.3797 
  61   2.0000     -11.258149      -306.3498 
  62   2.0000     -11.254889      -306.2611 
  63   2.0000     -11.242259      -305.9174 
  64   2.0000     -11.239082      -305.8310 
  65   2.0000     -11.236806      -305.7690 
  66   2.0000     -11.235278      -305.7275 
  67   2.0000     -11.232039      -305.6393 
  68   2.0000     -11.230598      -305.6001 
  69   2.0000     -11.229090      -305.5591 
  70   2.0000     -11.228051      -305.5308 
  71   2.0000     -11.227069      -305.5041 
  72   2.0000     -11.226432      -305.4867 
  73   2.0000     -11.226213      -305.4808 
  74   2.0000     -11.224898      -305.4450 
  75   2.0000     -11.224775      -305.4417 
  76   2.0000     -11.223544      -305.4081 
  77   2.0000     -11.221807      -305.3609 
  78   2.0000     -11.221018      -305.3394 
  79   2.0000     -11.220705      -305.3309 
  80   2.0000     -11.219344      -305.2939 
  81   2.0000     -11.218621      -305.2742 
  82   2.0000     -11.217487      -305.2433 
  83   2.0000     -11.216106      -305.2058 
  84   2.0000     -11.213094      -305.1238 
  85   2.0000     -11.202601      -304.8383 
  86   2.0000     -11.200832      -304.7901 
  87   2.0000      -9.081845      -247.1296 
  88   2.0000      -9.014724      -245.3031 
  89   2.0000      -9.012287      -245.2368 
  90   2.0000      -9.011696      -245.2207 
  91   2.0000      -9.005773      -245.0595 
  92   2.0000      -6.769070      -184.1958 
  93   2.0000      -6.767210      -184.1452 
  94   2.0000      -6.765886      -184.1091 
  95   2.0000      -6.702203      -182.3762 
  96   2.0000      -6.701170      -182.3481 
  97   2.0000      -6.699779      -182.3103 
  98   2.0000      -6.699352      -182.2986 
  99   2.0000      -6.699311      -182.2975 
 100   2.0000      -6.698772      -182.2829 
 101   2.0000      -6.698355      -182.2715 
 102   2.0000      -6.696903      -182.2320 
 103   2.0000      -6.696362      -182.2173 
 104   2.0000      -6.693049      -182.1271 
 105   2.0000      -6.691916      -182.0963 
 106   2.0000      -6.690074      -182.0462 
 107   2.0000      -1.383962       -37.6595 
 108   2.0000      -1.382815       -37.6283 
 109   2.0000      -1.374687       -37.4071 
 110   2.0000      -1.244108       -33.8539 
 111   2.0000      -1.243744       -33.8440 
 112   2.0000      -1.240048       -33.7434 
 113   2.0000      -1.238541       -33.7024 
 114   2.0000      -1.218617       -33.1603 
 115   2.0000      -1.218373       -33.1536 
 116   2.0000      -1.215974       -33.0883 
 117   2.0000      -1.214363       -33.0445 
 118   2.0000      -1.213715       -33.0269 
 119   2.0000      -1.202734       -32.7280 
 120   2.0000      -1.187432       -32.3117 
 121   2.0000      -1.175789       -31.9948 
 122   2.0000      -1.154014       -31.4023 
 123   2.0000      -1.152116       -31.3507 
 124   2.0000      -1.137688       -30.9581 
 125   2.0000      -1.131796       -30.7977 
 126   2.0000      -1.107083       -30.1252 
 127   2.0000      -1.101981       -29.9864 
 128   2.0000      -1.098215       -29.8839 
 129   2.0000      -1.094663       -29.7873 
 130   2.0000      -1.090044       -29.6616 
 131   2.0000      -1.085584       -29.5402 
 132   2.0000      -1.072730       -29.1905 
 133   2.0000      -1.065677       -28.9985 
 134   2.0000      -1.064022       -28.9535 
 135   2.0000      -1.055498       -28.7216 
 136   2.0000      -1.046293       -28.4711 
 137   2.0000      -1.045801       -28.4577 
 138   2.0000      -1.044692       -28.4275 
 139   2.0000      -1.029977       -28.0271 
 140   2.0000      -1.020111       -27.7586 
 141   2.0000      -1.012314       -27.5465 
 142   2.0000      -1.011431       -27.5224 
 143   2.0000      -1.009704       -27.4754 
 144   2.0000      -1.008075       -27.4311 
 145   2.0000      -1.000279       -27.2190 
 146   2.0000      -0.997329       -27.1387 
 147   2.0000      -0.996310       -27.1110 
 148   2.0000      -0.985623       -26.8202 
 149   2.0000      -0.975291       -26.5390 
 150   2.0000      -0.972872       -26.4732 
 151   2.0000      -0.971102       -26.4250 
 152   2.0000      -0.947882       -25.7932 
 153   2.0000      -0.926917       -25.2227 
 154   2.0000      -0.923722       -25.1358 
 155   2.0000      -0.919165       -25.0117 
 156   2.0000      -0.917840       -24.9757 
 157   2.0000      -0.908438       -24.7199 
 158   2.0000      -0.898846       -24.4588 
 159   2.0000      -0.875305       -23.8182 
 160   2.0000      -0.871295       -23.7091 
 161   2.0000      -0.868001       -23.6195 
 162   2.0000      -0.865154       -23.5420 
 163   2.0000      -0.857021       -23.3207 
 164   2.0000      -0.847274       -23.0555 
 165   2.0000      -0.841310       -22.8932 
 166   2.0000      -0.839233       -22.8367 
 167   2.0000      -0.837426       -22.7875 
 168   2.0000      -0.836349       -22.7582 
 169   2.0000      -0.834151       -22.6984 
 170   2.0000      -0.829411       -22.5694 
 171   2.0000      -0.822713       -22.3872 
 172   2.0000      -0.820095       -22.3159 
 173   2.0000      -0.807568       -21.9751 
 174   2.0000      -0.807012       -21.9599 
 175   2.0000      -0.799334       -21.7510 
 176   2.0000      -0.784702       -21.3528 
 177   2.0000      -0.780031       -21.2257 
 178   2.0000      -0.776682       -21.1346 
 179   2.0000      -0.772039       -21.0082 
 180   2.0000      -0.768851       -20.9215 
 181   2.0000      -0.763103       -20.7651 
 182   2.0000      -0.762620       -20.7519 
 183   2.0000      -0.757774       -20.6201 
 184   2.0000      -0.750298       -20.4167 
 185   2.0000      -0.749719       -20.4009 
 186   2.0000      -0.743491       -20.2314 
 187   2.0000      -0.738575       -20.0977 
 188   2.0000      -0.735396       -20.0111 
 189   2.0000      -0.726601       -19.7718 
 190   2.0000      -0.724156       -19.7053 
 191   2.0000      -0.713082       -19.4040 
 192   2.0000      -0.705495       -19.1975 
 193   2.0000      -0.700159       -19.0523 
 194   2.0000      -0.697075       -18.9684 
 195   2.0000      -0.683767       -18.6062 
 196   2.0000      -0.677924       -18.4473 
 197   2.0000      -0.674371       -18.3506 
 198   2.0000      -0.665957       -18.1216 
 199   2.0000      -0.662648       -18.0316 
 200   2.0000      -0.661683       -18.0053 
 201   2.0000      -0.657625       -17.8949 
 202   2.0000      -0.656086       -17.8530 
 203   2.0000      -0.653320       -17.7777 
 204   2.0000      -0.649643       -17.6777 
 205   2.0000      -0.647737       -17.6258 
 206   2.0000      -0.644181       -17.5291 
[...]
   Size of expansion space: 6
   Lowest Energy          :     0.083125834190
   Maximum Energy change  :     0.000000699069 (vector 2)
   Maximum residual norm  :     0.000000093868

      *** CONVERGENCE OF RESIDUAL NORM REACHED ***

Storing the converged CI vectors               ... BTCIC.cis1

                 *** DAVIDSON DONE ***

Total time for solving the CIS problem: 45791.154sec

-----------------------------
CIS-EXCITED STATES (SINGLETS)
-----------------------------

the weight of the individual excitations are printed if larger than 1.0e-02

STATE  1:  E=   0.083126 au      2.262 eV    18244.0 cm**-1
   322a -> 327a  :     0.047739 (c= -0.21849262)
   323a -> 326a  :     0.153036 (c=  0.39119859)
   323a -> 328a  :     0.010837 (c=  0.10410041)
   324a -> 325a  :     0.712058 (c= -0.84383501)

STATE  2:  E=   0.105608 au      2.874 eV    23178.3 cm**-1
   319a -> 327a  :     0.012392 (c=  0.11131755)
   322a -> 326a  :     0.081646 (c= -0.28573713)
   323a -> 325a  :     0.326986 (c=  0.57182652)
   323a -> 327a  :     0.094003 (c=  0.30659990)
   324a -> 326a  :     0.366109 (c= -0.60506931)
   324a -> 328a  :     0.011989 (c= -0.10949502)

STATE  3:  E=   0.125867 au      3.425 eV    27624.7 cm**-1
   319a -> 326a  :     0.016437 (c=  0.12820569)
   321a -> 326a  :     0.010994 (c=  0.10485134)
   322a -> 325a  :     0.153685 (c= -0.39202718)
   323a -> 326a  :     0.204632 (c=  0.45236311)
   324a -> 325a  :     0.039660 (c=  0.19914923)
   324a -> 327a  :     0.430301 (c= -0.65597322)
   324a -> 329a  :     0.015072 (c= -0.12276998)


----------------------
CIS-EXCITATION SPECTRA
----------------------

Center of mass = ( -1.8290, -0.1270,  0.0069)
Calculating the Dipole integrals                  ... done
Transforming integrals                            ... done
Calculating the Linear Momentum integrals         ... done
Transforming integrals                            ... done
Calculating angular momentum integrals            ... done
Transforming integrals                            ... done

-----------------------------------------------------------------------------
         ABSORPTION SPECTRUM VIA TRANSITION ELECTRIC DIPOLE MOMENTS
-----------------------------------------------------------------------------
State   Energy    Wavelength  fosc         T2        TX        TY        TZ  
        (cm-1)      (nm)                 (au**2)    (au)      (au)      (au) 
-----------------------------------------------------------------------------
   1   18244.0    548.1   3.009541830  54.30698   2.41994   6.88904  -0.99598
   2   23178.3    431.4   0.003355483   0.04766  -0.17272  -0.07113   0.11300
   3   27624.7    362.0   0.070951519   0.84555  -0.29172   0.46305  -0.73894

-----------------------------------------------------------------------------
         ABSORPTION SPECTRUM VIA TRANSITION VELOCITY DIPOLE MOMENTS
-----------------------------------------------------------------------------
State   Energy    Wavelength   fosc        P2         PX        PY        PZ  
        (cm-1)      (nm)                 (au**2)     (au)      (au)      (au) 
-----------------------------------------------------------------------------
   1   18244.0    548.1   1.757204632   0.21910  -0.08921  -0.45917   0.01764
   2   23178.3    431.4   0.012149079   0.00192   0.03095  -0.01446   0.02753
   3   27624.7    362.0   0.057865984   0.01093  -0.09301   0.02959   0.03740

-------------------------------------------------------------------
                             CD SPECTRUM
-------------------------------------------------------------------
State  Energy     Wavelength     R         MX        MY        MZ   
       (cm-1)       (nm)     (1e40*cgs)   (au)      (au)      (au)  
-------------------------------------------------------------------
   1   18244.0    548.1     40.46254   0.18786  -0.08637  -0.22713
   2   23178.3    431.4     43.73517   0.11122   0.30110   1.18050
   3   27624.7    362.0    -36.89715  -0.27906   0.11410   0.28757

Total run time:    45984.893 sec

           *** ORCA-CIS/TD-DFT FINISHED WITHOUT ERROR ***

-----------------------
CIS/TD-DFT TOTAL ENERGY
-----------------------

    E(SCF)  =  -5302.560504836 Eh
    DE(CIS) =      0.083125834 Eh (Root  1)
    ----------------------------- ---------
    E(tot)  =  -5302.477379002 Eh


-------------------------   --------------------
FINAL SINGLE POINT ENERGY     -5302.477379001584
-------------------------   --------------------

------------------------------------------------------------------------------
                         ORCA SCF GRADIENT CALCULATION
------------------------------------------------------------------------------


------------
CIS GRADIENT
------------

Reference wavefunction             ... RHF
State of interest                  ... 1
Basis dimension                    ... 1578
DFT-XC contribution needed         ... NO
RI-approximation                   ... OFF
CIS-vectors being read from        ... BTCIC.cis

 => Number of Vectors found: 3
 => Orbital Window: 107...324 -> 325...1577

Reading the CIS file                     ... done
Norm of the CI vector                    ... 1.000000000
Making the CIS (pseudo)densities         ... done
Making operators G(D) and Q(T)           ... done
Transforming the Fock operators          ... done
Making the frozen-core relaxed density   ... done
Constructing the G(H) operator           ... done
Transforming the G(H) operator           ... done
Calculating the CIS Lagrangian           ... done
Solving the Z-vector equations           ... done
Finalizing the relaxed density           ... done
Storing the relaxed density              ... done
Constructing the G(Z) operator           ... done
Transforming the G(Z) operator           ... done
Making the W-matrix                      ... done
Finalizing the W-matrix                  ... done
Transforming the W-matrix                ... done
Nuclear repulsion gradient               ... done
One-Electron gradient                    ... done
Prescreening matrices                    ... done
Two-Electron gradient (4-center)         ... done
                 ---------------------------
                 EXCITED STATE GRADIENT DONE
                 ---------------------------


------------------
CARTESIAN GRADIENT
------------------

   1   S   :    0.005707396   -0.001144628   -0.002419297
   2   N   :    0.018016554   -0.014529117   -0.008569763
   3   C   :   -0.037422848    0.012115341    0.016722615
   4   C   :   -0.035147683    0.015841117    0.015771385
   5   N   :    0.024691214    0.005024660   -0.009576719
   6   C   :    0.010605802    0.013548260   -0.003663514
   7   C   :    0.004447031   -0.004191592   -0.001857878
   8   C   :    0.005689428    0.000110992   -0.002616303
   9   C   :    0.001324064   -0.017240232   -0.001820169
  10   C   :   -0.002184390    0.012699642    0.001972467
  11   C   :    0.001776227   -0.008130388   -0.001003103
  12   C   :   -0.002120017    0.003967820    0.002422794
  13   C   :    0.017868127   -0.005421343   -0.004529664
  14   C   :   -0.007124727   -0.000145046    0.003720792
  15   S   :    0.001423510    0.003494095   -0.000059926
  16   C   :   -0.006995943    0.001810892    0.005599782
  17   C   :    0.013859163   -0.009843817   -0.001846760
  18   C   :   -0.001710037    0.006597452    0.001881548
  19   C   :    0.003407189   -0.001763070    0.001962078
  20   C   :    0.001310009   -0.009913427    0.001405953
  21   S   :   -0.003303181    0.001451997    0.000521497
  22   C   :    0.001102491   -0.004094812   -0.000418060
  23   C   :   -0.009142278    0.005234899    0.008215881
  24   C   :    0.007634352    0.002358517   -0.002033002
  25   S   :   -0.006484867   -0.016735497    0.000857490
  26   C   :    0.007813981   -0.010587551   -0.001194341
  27   C   :   -0.010118153    0.011201823    0.007912373
  28   C   :    0.002860671   -0.007562622   -0.002266873
  29   C   :   -0.005455013    0.004402608   -0.003376816
  30   C   :    0.000560604    0.009966528   -0.002345711
  31   S   :    0.002230452   -0.001149544    0.000476509
  32   C   :    0.003540151    0.002149115    0.001268985
  33   C   :    0.007459011   -0.003282126    0.000318935
  34   C   :   -0.012062953   -0.009630930   -0.015253986
  35   C   :    0.015247706    0.011340014    0.007559013
  36   C   :   -0.007573175    0.010368023    0.001062394
  37   C   :    0.035525434   -0.018533812    0.000607115
  38   C   :   -0.003468797   -0.000861885   -0.000009014
  39   C   :   -0.000121990    0.001632496    0.000673938
  40   C   :    0.000534827    0.001693325    0.000659571
  41   C   :    0.001257272   -0.004463898   -0.001952234
  42   C   :    0.019326212    0.000792983    0.015884411
  43   O   :   -0.036819654    0.014851844   -0.000350037
  44   C   :   -0.046493668    0.037926727   -0.004035225
  45   C   :   -0.005633560   -0.043810012   -0.038146887
  46   N   :    0.027299129   -0.019589476    0.003177219
  47   N   :    0.005878669    0.032316680    0.016938681
  48   C   :   -0.002327812   -0.007082807   -0.004721582
  49   C   :   -0.000059023    0.000619171    0.007199840
  50   C   :   -0.006298959    0.006777570    0.001069875
  51   C   :    0.001414633    0.001892720   -0.005289093
  52   C   :    0.003957620   -0.004377815    0.001610028
  53   C   :    0.000456114    0.004725620   -0.000740507
  54   C   :    0.001841534   -0.006814088   -0.001277557
  55   C   :   -0.001588041    0.004414419    0.003181871
  56   C   :    0.000167792   -0.002749103    0.005555591
  57   C   :   -0.000483858    0.004898088   -0.002674209
  58   C   :    0.000213636    0.000338553    0.008857464
  59   C   :    0.000847492   -0.001287109   -0.004744389
  60   C   :   -0.003150245    0.007076789   -0.001704384
  61   C   :    0.006520868   -0.006143355   -0.003997866
  62   C   :   -0.003588495    0.002992162    0.001861154
  63   C   :   -0.000136207   -0.004697506   -0.000858328
  64   C   :   -0.003940225    0.006395350    0.001420342
  65   C   :    0.004281069   -0.003796417    0.000328610
  66   C   :    0.001233348    0.004852135    0.003355648
  67   C   :   -0.002240439   -0.006070959    0.005600475
  68   C   :    0.001376609    0.004988669   -0.005340956
  69   C   :    0.003184622    0.005998838   -0.004148795
  70   C   :   -0.004090955   -0.002798984    0.003674666
  71   C   :   -0.003855476   -0.003194389    0.000007632
  72   C   :   -0.008127889    0.005168378   -0.000839664
  73   C   :    0.015006143    0.009618077    0.012999713
  74   C   :   -0.016112275   -0.011463101   -0.004974391
  75   C   :    0.007472540   -0.009937774   -0.001410559
  76   C   :   -0.035836930    0.017842482    0.002912924
  77   C   :    0.003526589    0.000614098   -0.000587988
  78   C   :    0.000153348   -0.001526807   -0.000560763
  79   C   :   -0.000681844   -0.001542939   -0.000463663
  80   C   :   -0.001040317    0.004378486    0.001898751
  81   O   :    0.036993200   -0.014659851   -0.003668230
  82   C   :   -0.020096176   -0.002887867   -0.012859553
  83   C   :    0.045206577   -0.039383594    0.000658289
  84   C   :    0.014979281    0.047567202    0.034079870
  85   N   :   -0.009696369   -0.031644029   -0.013885423
  86   N   :   -0.027044834    0.020204079   -0.001460092
  87   C   :   -0.000558608   -0.005082714    0.001746433
  88   H   :    0.000007434   -0.003184458   -0.000342163
  89   H   :    0.001258695    0.000059555   -0.000383146
  90   H   :   -0.000007767    0.001215618    0.000198878
  91   H   :   -0.000315891   -0.000597062    0.000724070
  92   H   :    0.002130192    0.000120875   -0.001089815
  93   H   :    0.001104128   -0.001355248   -0.000063913
  94   H   :   -0.000499505    0.002402204    0.000269388
  95   H   :    0.000969449    0.001689211    0.000318825
  96   H   :   -0.000692123    0.001332157    0.000346943
  97   H   :    0.000668423    0.001386384    0.000724635
  98   H   :    0.001611806   -0.000039378    0.000214047
  99   H   :    0.000800855    0.003025995   -0.001177070
 100   H   :   -0.003175927    0.000484913    0.002109160
 101   H   :    0.003198122    0.000717423    0.000590832
 102   H   :   -0.002926721   -0.002027777    0.001093632
 103   H   :   -0.002235501    0.003658233   -0.000721631
 104   H   :   -0.000170880   -0.000282692   -0.002381600
 105   H   :    0.001490998    0.002169574    0.000598703
 106   H   :   -0.005609869   -0.002564722   -0.005842556
 107   H   :    0.000438206   -0.001875532   -0.001090038
 108   H   :    0.002219969   -0.000998386   -0.002743479
 109   H   :   -0.000517662   -0.002844946   -0.001918971
 110   H   :   -0.000946239    0.001758355    0.000078269
 111   H   :   -0.001396041    0.001409208    0.001490276
 112   H   :   -0.000481419   -0.003113417   -0.001161226
 113   H   :   -0.002436915   -0.000700933   -0.002227279
 114   H   :    0.000026041   -0.000899547   -0.003353899
 115   H   :   -0.001239853    0.000265738   -0.002128137
 116   H   :   -0.000921422    0.002344582    0.001111887
 117   H   :   -0.000539151   -0.002052464    0.002830848
 118   H   :   -0.003008846   -0.001106292    0.000799993
 119   H   :   -0.001427452   -0.002427056    0.000575766
 120   H   :   -0.001329061    0.001938346   -0.001390289
 121   H   :    0.002554586   -0.000056744   -0.001267956
 122   H   :    0.000700542    0.000812930    0.003124094
 123   H   :    0.000744400    0.002991966    0.000626412
 124   H   :   -0.001427958    0.002547545    0.001385752
 125   H   :   -0.000760469   -0.002623779   -0.000363106
 126   H   :    0.002786694   -0.000838744   -0.000723557
 127   H   :    0.000963630   -0.002547172   -0.002459683
 128   H   :   -0.000265038   -0.002219341    0.000361528
 129   H   :   -0.001237163    0.000533596   -0.005662390
 130   H   :   -0.001447772    0.002676471   -0.001213978
 131   H   :   -0.003530311    0.000607741   -0.000088337
 132   H   :   -0.001662287    0.001323045   -0.000364160
 133   H   :    0.001052397   -0.001553160   -0.000777213
 134   H   :    0.002302345   -0.001076911   -0.000118584
 135   H   :   -0.001132943    0.003107419   -0.000571043
 136   H   :   -0.000140672    0.001295834   -0.003115238
 137   H   :   -0.002602264    0.000765222   -0.002152234
 138   H   :    0.000013378   -0.002521958   -0.002282856
 139   H   :   -0.000160757    0.000028802    0.001738611
 140   H   :    0.001012610   -0.001396112    0.000951139
 141   H   :   -0.001046141   -0.002708162   -0.000520573
 142   H   :    0.001992340   -0.001524540    0.001102197
 143   H   :   -0.000373724   -0.001894677    0.001277012
 144   H   :   -0.001880717   -0.000225580    0.001877023
 145   H   :    0.002121486    0.002642931   -0.001057037
 146   H   :    0.002599531    0.000825105    0.001755171
 147   H   :    0.003502473   -0.000029619   -0.000742849
 148   H   :    0.000272449   -0.002122258   -0.000167112
 149   H   :   -0.001186328   -0.001723191   -0.000187511
 150   H   :    0.000674572   -0.001341250   -0.000353361
 151   H   :   -0.000744240   -0.001426763   -0.000568145
 152   H   :   -0.001610839    0.000007505   -0.000011180
 153   H   :    0.002308533    0.001842462   -0.000862534
 154   H   :    0.002476755   -0.000245703   -0.002705775
 155   H   :    0.000193039    0.001663925   -0.001982798

Difference to translation invariance:
           :   -0.0000000000    0.0000000000    0.0000000001

Norm of the cartesian gradient     ...    0.1979836414
RMS gradient                       ...    0.0091812715
MAX gradient                       ...    0.0475672023

-------
TIMINGS
-------

Total CIS gradient time            ...    48286.665 sec

Fock matrix formation       ....    3764.316 sec  (  7.8%)
  Coulomb formation         ....    3764.316 sec  (100.0% of F)
Z-vector equation           ....   40515.874 sec  ( 83.9%)
One electron gradient       ....      31.469 sec  (  0.1%)
Prescreening matrices       ....       1.566 sec  (  0.0%)
Two electron gradient       ....    3966.864 sec  (  8.2%)

                            ***************************************
                            *     ORCA property calculations      *
                            ***************************************

                                    ---------------------
                                    Active property flags
                                    ---------------------
   (+) Dipole Moment


------------------------------------------------------------------------------
                       ORCA ELECTRIC PROPERTIES CALCULATION
------------------------------------------------------------------------------

Dipole Moment Calculation                       ... on
Quadrupole Moment Calculation                   ... off
Polarizability Calculation                      ... off
GBWName                                         ... BTCIC.gbw
Electron density file                           ... BTCIC.scfp
The origin for moment calculation is the CENTER OF MASS  = (-1.829014, -0.127005  0.006889)

-------------
DIPOLE MOMENT
-------------
                                X             Y             Z
Electronic contribution:      4.59469       9.87026     -34.19475
Nuclear contribution   :     -4.47228      -9.74897      33.94139
                        -----------------------------------------
Total Dipole Moment    :      0.12241       0.12129      -0.25336
                        -----------------------------------------
Magnitude (a.u.)       :      0.30641
Magnitude (Debye)      :      0.77883



--------------------
Rotational spectrum 
--------------------
 
Rotational constants in cm-1:     0.001860     0.000170     0.000166 
Rotational constants in MHz :    55.753794     5.100701     4.972653 

 Dipole components along the rotational axes: 
x,y,z [a.u.] :    -0.172819     0.120006     0.222753 
x,y,z [Debye]:    -0.439271     0.305030     0.566194 

 

                        *** CIS RELAXED DENSITY ***

------------------------------------------------------------------------------
                       ORCA ELECTRIC PROPERTIES CALCULATION
------------------------------------------------------------------------------

Dipole Moment Calculation                       ... on
Quadrupole Moment Calculation                   ... off
Polarizability Calculation                      ... off
GBWName                                         ... BTCIC.gbw
Electron density file                           ... BTCIC.cisp
The origin for moment calculation is the CENTER OF MASS  = (-1.829014, -0.127005  0.006889)

-------------
DIPOLE MOMENT
-------------
                                X             Y             Z
Electronic contribution:      4.45554       9.97718     -34.07209
Nuclear contribution   :     -4.47228      -9.74897      33.94139
                        -----------------------------------------
Total Dipole Moment    :     -0.01674       0.22821      -0.13070
                        -----------------------------------------
Magnitude (a.u.)       :      0.26352
Magnitude (Debye)      :      0.66981



--------------------
Rotational spectrum 
--------------------
 
Rotational constants in cm-1:     0.001860     0.000170     0.000166 
Rotational constants in MHz :    55.753794     5.100701     4.972653 

 Dipole components along the rotational axes: 
x,y,z [a.u.] :    -0.222941    -0.063844     0.125149 
x,y,z [Debye]:    -0.566672    -0.162279     0.318104 

 

Timings for individual modules:

Sum of individual times         ...   108670.333 sec (=1811.172 min)
GTO integral calculation        ...        2.604 sec (=   0.043 min)   0.0 %
SCF iterations                  ...    14396.063 sec (= 239.934 min)  13.2 %
CIS module                      ...    45984.971 sec (= 766.416 min)  42.3 %
SCF Gradient evaluation         ...    48286.696 sec (= 804.778 min)  44.4 %
                             ****ORCA TERMINATED NORMALLY****
TOTAL RUN TIME: 1 days 6 hours 11 minutes 11 seconds 609 msec
