
                                 *****************
                                 * O   R   C   A *
                                 *****************

           --- An Ab Initio, DFT and Semiempirical electronic structure package ---

                  #######################################################
                  #                        -***-                        #
                  #          Department of theory and spectroscopy      #
                  #               Directorship: Frank Neese             #
                  #        Max Planck Institute fuer Kohlenforschung    #
                  #                Kaiser Wilhelm Platz 1               #
                  #                 D-45470 Muelheim/Ruhr               #
                  #                      Germany                        #
                  #                                                     #
                  #                  All rights reserved                #
                  #                        -***-                        #
                  #######################################################


                         Program Version 4.2.0 -  RELEASE  -


 With contributions from (in alphabetic order):
   Daniel Aravena         : Magnetic Suceptibility
   Michael Atanasov       : Ab Initio Ligand Field Theory (pilot matlab implementation)
   Alexander A. Auer      : GIAO ZORA, VPT2
   Ute Becker             : Parallelization
   Giovanni Bistoni       : ED, misc. LED, open-shell LED, HFLED
   Martin Brehm           : Molecular dynamics
   Dmytro Bykov           : SCF Hessian
   Vijay G. Chilkuri      : MRCI spin determinant printing, contributions to CSF-ICE
   Dipayan Datta          : RHF DLPNO-CCSD density
   Achintya Kumar Dutta   : EOM-CC, STEOM-CC
   Dmitry Ganyushin       : Spin-Orbit,Spin-Spin,Magnetic field MRCI
   Miquel Garcia          : C-PCM Hessian, Gaussian charge scheme
   Yang Guo               : DLPNO-NEVPT2, CIM, IAO-localization
   Andreas Hansen         : Spin unrestricted coupled pair/coupled cluster methods
   Benjamin Helmich-Paris : CASSCF linear response (MC-RPA)
   Lee Huntington         : MR-EOM, pCC
   Robert Izsak           : Overlap fitted RIJCOSX, COSX-SCS-MP3, EOM
   Christian Kollmar      : KDIIS, OOCD, Brueckner-CCSD(T), CCSD density
   Simone Kossmann        : Meta GGA functionals, TD-DFT gradient, OOMP2, MP2 Hessian
   Martin Krupicka        : AUTO-CI
   Lucas Lang             : DCDCAS
   Dagmar Lenk            : GEPOL surface, SMD
   Dimitrios Liakos       : Extrapolation schemes; Compound Job, initial MDCI parallelization
   Dimitrios Manganas     : Further ROCIS development; embedding schemes
   Dimitrios Pantazis     : SARC Basis sets
   Taras Petrenko         : DFT Hessian,TD-DFT gradient, ASA, ECA, R-Raman, ABS, FL, XAS/XES, NRVS
   Peter Pinski           : DLPNO-MP2, DLPNO-MP2 Gradient
   Christoph Reimann      : Effective Core Potentials
   Marius Retegan         : Local ZFS, SOC
   Christoph Riplinger    : Optimizer, TS searches, QM/MM, DLPNO-CCSD(T), (RO)-DLPNO pert. Triples
   Tobias Risthaus        : Range-separated hybrids, TD-DFT gradient, RPA, STAB
   Michael Roemelt        : Original ROCIS implementation
   Masaaki Saitow         : Open-shell DLPNO-CCSD energy and density
   Barbara Sandhoefer     : DKH picture change effects
   Avijit Sen             : IP-ROCIS
   Kantharuban Sivalingam : CASSCF convergence, NEVPT2, FIC-MRCI
   Bernardo de Souza      : ESD, SOC TD-DFT
   Georgi Stoychev        : AutoAux, RI-MP2 NMR
   Willem Van den Heuvel  : Paramagnetic NMR
   Boris Wezisla          : Elementary symmetry handling
   Frank Wennmohs         : Technical directorship


 We gratefully acknowledge several colleagues who have allowed us to
 interface, adapt or use parts of their codes:
   Stefan Grimme, W. Hujo, H. Kruse,             : VdW corrections, initial TS optimization,
                  C. Bannwarth                     DFT functionals, gCP, sTDA/sTD-DF
   Ed Valeev, F. Pavosevic, A. Kumar             : LibInt (2-el integral package), F12 methods
   Garnet Chan, S. Sharma, J. Yang, R. Olivares  : DMRG
   Ulf Ekstrom                                   : XCFun DFT Library
   Mihaly Kallay                                 : mrcc  (arbitrary order and MRCC methods)
   Andreas Klamt, Michael Diedenhofen            : otool_cosmo (COSMO solvation model)
   Jiri Pittner, Ondrej Demel                    : Mk-CCSD
   Frank Weinhold                                : gennbo (NPA and NBO analysis)
   Christopher J. Cramer and Donald G. Truhlar   : smd solvation model
   Lars Goerigk                                  : TD-DFT with DH, B97 family of functionals
   V. Asgeirsson, H. Jonsson                     : NEB implementation
   FAccTs GmbH                                   : IRC, NEB, NEB-TS, Multilevel, MM, QM/MM, CI optimization
   S Lehtola, MJT Oliveira, MAL Marques          : LibXC Library


 Your calculation uses the libint2 library for the computation of 2-el integrals
 For citations please refer to: http://libint.valeyev.net

 Your ORCA version has been built with support for libXC version: 4.2.3
 For citations please refer to: https://tddft.org/programs/libxc/

 This ORCA versions uses:
   CBLAS   interface :  Fast vector & matrix operations
   LAPACKE interface :  Fast linear algebra routines
   SCALAPACK package :  Parallel linear algebra routines


----- Orbital basis set information -----
Your calculation utilizes the basis: def2-SVP
   F. Weigend and R. Ahlrichs, Phys. Chem. Chem. Phys. 7, 3297 (2005).

================================================================================
                                        WARNINGS
                       Please study these warnings very carefully!
================================================================================

INFO   : Checking CIS options ...

WARNING: CIS/ROCIS methods need fully converged wavefunctions
  ===> : Setting SCFConvForced true
         You can overwrite this default with %scf ConvForced false 


INFO   : the flag for use of LIBINT has been found!

================================================================================
                                       INPUT FILE
================================================================================
NAME = BTDT2R.inp
|  1> # ORCA input file
|  2> # BTDT2R.out
|  3> ! Engrad Keepdens
|  4> %maxcore 1000
|  5> %tddft
|  6>   nroots 3 
|  7>   # nroots is the number of states to be computed
|  8>   Iroot 1
|  9>   end
| 10> * xyz 0 1
| 11>    C        1.06622         1.91889        -0.01797
| 12>    C        2.28948         1.24158        -0.14673
| 13>    C        2.35738        -0.17822        -0.15810
| 14>    C        1.22552        -0.99446        -0.15792
| 15>    C       -0.01907        -0.32231        -0.06716
| 16>    C       -0.09171         1.10415         0.02443
| 17>    N       -1.22235        -0.88546        -0.03816
| 18>    S       -2.33868         0.25810         0.09811
| 19>    N       -1.34955         1.52863         0.12363
| 20>    O        3.40778         2.00682        -0.21691
| 21>    O        3.61264        -0.76062        -0.12632
| 22>    C        4.06782        -1.02261         1.18978
| 23>    C        4.51087         1.60269        -1.01186
| 24>    C        0.92259         3.34394         0.05948
| 25>    C        1.25176        -2.42893        -0.22113
| 26>    S       -0.66138         4.04829         0.05312
| 27>    C       -0.00013         5.65972         0.15107
| 28>    C        1.38467         5.61789         0.19721
| 29>    C        1.89533         4.32841         0.14876
| 30>    C        2.30754        -3.25617        -0.58093
| 31>    C        1.97318        -4.59660        -0.54526
| 32>    C        0.65502        -4.83470        -0.15834
| 33>    S       -0.17739        -3.33694         0.14827
| 34>    C       -0.88511         6.75736         0.18388
| 35>    C       -0.59114         8.08094         0.25885
| 36>    C        0.11548        -6.13323        -0.06476
| 37>    C       -1.14345        -6.54007         0.25844
| 38>    C       -1.64321         9.09550         0.29173
| 39>    N       -1.08255        10.36144         0.37515
| 40>    C        0.26978        10.44456         0.40673
| 41>    S        0.98387         8.83646         0.33267
| 42>    S       -1.57023        -8.24410         0.28078
| 43>    C       -3.23074        -7.88087         0.72036
| 44>    N       -3.39848        -6.53842         0.83629
| 45>    C       -2.29801        -5.73040         0.60648
| 46>    O       -2.83669         8.89547         0.25478
| 47>    C       -1.91058        11.54069         0.42745
| 48>    S        1.12084        11.83206         0.50046
| 49>    S       -4.40306        -8.98953         0.95794
| 50>    C       -4.67708        -5.97107         1.18703
| 51>    O       -2.34588        -4.51891         0.69925
| 52>    H        3.39113        -1.70516         1.71283
| 53>    H        4.16103        -0.09734         1.76805
| 54>    H        5.04559        -1.48848         1.08361
| 55>    H        4.95744         2.52823        -1.37933
| 56>    H        4.19587         0.98871        -1.85581
| 57>    H        5.25059         1.05639        -0.42368
| 58>    H        2.00147         6.49543         0.26760
| 59>    H        2.94366         4.10588         0.18912
| 60>    H        3.27107        -2.88540        -0.87713
| 61>    H        2.65346        -5.39163        -0.79588
| 62>    H       -1.94427         6.52936         0.14628
| 63>    H        0.82089        -6.92416        -0.29584
| 64>    H       -2.94701        11.20872         0.39080
| 65>    H       -1.68981        12.19081        -0.41984
| 66>    H       -1.72004        12.09017         1.35001
| 67>    H       -5.00196        -6.35271         2.15548
| 68>    H       -5.42215        -6.23972         0.43733
| 69>    H       -4.55154        -4.89020         1.22691
| 70> *
| 71> 
| 72>                          ****END OF INPUT****
================================================================================

                     *******************************
                     * Energy+Gradient Calculation *
                     *******************************

---------------------------------
CARTESIAN COORDINATES (ANGSTROEM)
---------------------------------
  C      1.066220    1.918890   -0.017970
  C      2.289480    1.241580   -0.146730
  C      2.357380   -0.178220   -0.158100
  C      1.225520   -0.994460   -0.157920
  C     -0.019070   -0.322310   -0.067160
  C     -0.091710    1.104150    0.024430
  N     -1.222350   -0.885460   -0.038160
  S     -2.338680    0.258100    0.098110
  N     -1.349550    1.528630    0.123630
  O      3.407780    2.006820   -0.216910
  O      3.612640   -0.760620   -0.126320
  C      4.067820   -1.022610    1.189780
  C      4.510870    1.602690   -1.011860
  C      0.922590    3.343940    0.059480
  C      1.251760   -2.428930   -0.221130
  S     -0.661380    4.048290    0.053120
  C     -0.000130    5.659720    0.151070
  C      1.384670    5.617890    0.197210
  C      1.895330    4.328410    0.148760
  C      2.307540   -3.256170   -0.580930
  C      1.973180   -4.596600   -0.545260
  C      0.655020   -4.834700   -0.158340
  S     -0.177390   -3.336940    0.148270
  C     -0.885110    6.757360    0.183880
  C     -0.591140    8.080940    0.258850
  C      0.115480   -6.133230   -0.064760
  C     -1.143450   -6.540070    0.258440
  C     -1.643210    9.095500    0.291730
  N     -1.082550   10.361440    0.375150
  C      0.269780   10.444560    0.406730
  S      0.983870    8.836460    0.332670
  S     -1.570230   -8.244100    0.280780
  C     -3.230740   -7.880870    0.720360
  N     -3.398480   -6.538420    0.836290
  C     -2.298010   -5.730400    0.606480
  O     -2.836690    8.895470    0.254780
  C     -1.910580   11.540690    0.427450
  S      1.120840   11.832060    0.500460
  S     -4.403060   -8.989530    0.957940
  C     -4.677080   -5.971070    1.187030
  O     -2.345880   -4.518910    0.699250
  H      3.391130   -1.705160    1.712830
  H      4.161030   -0.097340    1.768050
  H      5.045590   -1.488480    1.083610
  H      4.957440    2.528230   -1.379330
  H      4.195870    0.988710   -1.855810
  H      5.250590    1.056390   -0.423680
  H      2.001470    6.495430    0.267600
  H      2.943660    4.105880    0.189120
  H      3.271070   -2.885400   -0.877130
  H      2.653460   -5.391630   -0.795880
  H     -1.944270    6.529360    0.146280
  H      0.820890   -6.924160   -0.295840
  H     -2.947010   11.208720    0.390800
  H     -1.689810   12.190810   -0.419840
  H     -1.720040   12.090170    1.350010
  H     -5.001960   -6.352710    2.155480
  H     -5.422150   -6.239720    0.437330
  H     -4.551540   -4.890200    1.226910

----------------------------
CARTESIAN COORDINATES (A.U.)
----------------------------
  NO LB      ZA    FRAG     MASS         X           Y           Z
   0 C     6.0000    0    12.011    2.014864    3.626177   -0.033958
   1 C     6.0000    0    12.011    4.326490    2.346246   -0.277280
   2 C     6.0000    0    12.011    4.454803   -0.336787   -0.298766
   3 C     6.0000    0    12.011    2.315897   -1.879257   -0.298426
   4 C     6.0000    0    12.011   -0.036037   -0.609078   -0.126914
   5 C     6.0000    0    12.011   -0.173307    2.086541    0.046166
   6 N     7.0000    0    14.007   -2.309907   -1.673277   -0.072112
   7 S    16.0000    0    32.060   -4.419465    0.487738    0.185401
   8 N     7.0000    0    14.007   -2.550280    2.888692    0.233627
   9 O     8.0000    0    15.999    6.439771    3.792340   -0.409900
  10 O     8.0000    0    15.999    6.826900   -1.437363   -0.238710
  11 C     6.0000    0    12.011    7.687066   -1.932453    2.248358
  12 C     6.0000    0    12.011    8.524309    3.028645   -1.912138
  13 C     6.0000    0    12.011    1.743442    6.319131    0.112401
  14 C     6.0000    0    12.011    2.365484   -4.590012   -0.417875
  15 S    16.0000    0    32.060   -1.249827    7.650159    0.100382
  16 C     6.0000    0    12.011   -0.000246   10.695321    0.285481
  17 C     6.0000    0    12.011    2.616647   10.616274    0.372673
  18 C     6.0000    0    12.011    3.581655    8.179509    0.281116
  19 C     6.0000    0    12.011    4.360619   -6.153270   -1.097799
  20 C     6.0000    0    12.011    3.728770   -8.686315   -1.030392
  21 C     6.0000    0    12.011    1.237808   -9.136259   -0.299219
  22 S    16.0000    0    32.060   -0.335219   -6.305903    0.280190
  23 C     6.0000    0    12.011   -1.672615   12.769560    0.347483
  24 C     6.0000    0    12.011   -1.117093   15.270764    0.489156
  25 C     6.0000    0    12.011    0.218226  -11.590125   -0.122379
  26 C     6.0000    0    12.011   -2.160807  -12.358941    0.488381
  27 C     6.0000    0    12.011   -3.105217   17.188004    0.551290
  28 N     7.0000    0    14.007   -2.045723   19.580284    0.708931
  29 C     6.0000    0    12.011    0.509810   19.737358    0.768608
  30 S    16.0000    0    32.060    1.859245   16.698489    0.628655
  31 S    16.0000    0    32.060   -2.967305  -15.579091    0.530597
  32 C     6.0000    0    12.011   -6.105214  -14.892686    1.361283
  33 N     7.0000    0    14.007   -6.422196  -12.355823    1.580359
  34 C     6.0000    0    12.011   -4.342610  -10.828887    1.146081
  35 O     8.0000    0    15.999   -5.360567   16.810002    0.481464
  36 C     6.0000    0    12.011   -3.610473   21.808743    0.807763
  37 S    16.0000    0    32.060    2.118081   22.359353    0.945732
  38 S    16.0000    0    32.060   -8.320578  -16.987750    1.810244
  39 C     6.0000    0    12.011   -8.838400  -11.283687    2.243162
  40 O     8.0000    0    15.999   -4.433071   -8.539502    1.321391
  41 H     1.0000    0     1.008    6.408307   -3.222285    3.236780
  42 H     1.0000    0     1.008    7.863207   -0.183946    3.341130
  43 H     1.0000    0     1.008    9.534783   -2.812820    2.047726
  44 H     1.0000    0     1.008    9.368204    4.777662   -2.606556
  45 H     1.0000    0     1.008    7.929045    1.868391   -3.506973
  46 H     1.0000    0     1.008    9.922177    1.996288   -0.800639
  47 H     1.0000    0     1.008    3.782230   12.274584    0.505691
  48 H     1.0000    0     1.008    5.562711    7.758989    0.357385
  49 H     1.0000    0     1.008    6.181426   -5.452616   -1.657535
  50 H     1.0000    0     1.008    5.014313  -10.188704   -1.503995
  51 H     1.0000    0     1.008   -3.674138   12.338702    0.276429
  52 H     1.0000    0     1.008    1.551257  -13.084766   -0.559057
  53 H     1.0000    0     1.008   -5.569042   21.181411    0.738505
  54 H     1.0000    0     1.008   -3.193278   23.037292   -0.793383
  55 H     1.0000    0     1.008   -3.250405   22.847110    2.551149
  56 H     1.0000    0     1.008   -9.452335  -12.004882    4.073267
  57 H     1.0000    0     1.008  -10.246379  -11.791362    0.826434
  58 H     1.0000    0     1.008   -8.601164   -9.241139    2.318524

--------------------------------
INTERNAL COORDINATES (ANGSTROEM)
--------------------------------
 C      0   0   0     0.000000000000     0.00000000     0.00000000
 C      1   0   0     1.404169861983     0.00000000     0.00000000
 C      2   1   0     1.421468158947   121.61015400     0.00000000
 C      3   2   1     1.395476560032   123.05795979     5.59066047
 C      4   3   2     1.417401590305   115.77479731   356.47763313
 C      1   2   3     1.416474818873   115.94135330   356.64081837
 N      5   4   3     1.328857283872   126.55064044   180.60150801
 S      7   5   4     1.603898891888   109.26499311   178.91719267
 N      6   1   2     1.331234530802   126.24422993   180.97518932
 O      2   1   3     1.356875963381   116.78832385   182.03784502
 O      3   2   1     1.384152230067   117.60704098   187.62227212
 C     11   3   2     1.417020395936   112.98123994    90.81884488
 C     10   2   1     1.418475980586   120.61275367   214.01953103
 C      1   2   3     1.434362430455   124.84859425   177.18010969
 C      4   3   2     1.436101745212   124.71035917   177.47722013
 S     14   1   2     1.733525405929   119.66783187   173.73434202
 C     16  14   1     1.744578003386    91.64823548   180.45680140
 C     17  16  14     1.386199728935   110.64915691   359.47627693
 C     14   1   2     1.386858034155   129.67925177   353.51221607
 C     15   4   3     1.388687677629   128.33933779   344.55203657
 C     20  15   4     1.381962931268   112.77816439   180.71984270
 C     21  20  15     1.394254095206   113.67473093     0.00000000
 S     15   4   3     1.733034403178   119.92707231   166.00153209
 C     17  16  14     1.410347356540   118.83866176   180.05324206
 C     24  17  16     1.357903854549   128.61204734   179.95451181
 C     22  21  20     1.409269594116   122.52969796   179.71549219
 C     26  22  21     1.361940443081   130.15813596   181.92860587
 C     25  24  17     1.461938566733   121.45904342   180.39642563
 N     28  25  24     1.387048166287   110.11189682   179.72173740
 C     29  28  25     1.355250035861   117.43345958     0.17431244
 S     25  24  17     1.748403947290   128.21007033     0.23231342
 S     27  26  22     1.756803484998   121.15271614   179.09448455
 C     32  27  26     1.755693614900    91.84933002   181.15810334
 N     33  32  27     1.357846999849   110.04474177   359.75311648
 C     34  33  32     1.384464942640   117.68757715   359.81600547
 O     28  25  24     1.210690635051   126.44595187   359.79418466
 C     29  28  25     1.441873619080   121.09797353   180.23848367
 S     30  29  28     1.630412428344   125.05760072   179.89740215
 S     33  32  27     1.630921651828   125.14688876   179.83680752
 C     34  33  32     1.442124311597   121.28146099   179.84267029
 O     35  34  33     1.215979370672   122.51515809   180.75579663
 H     12  11   3     1.094241820212   111.13937084    60.08815688
 H     12  11   3     1.095083955640   111.19698156   298.33328864
 H     12  11   3     1.088274367382   106.08976917   179.13954946
 H     13  10   2     1.091367608737   105.38414270   147.24381284
 H     13  10   2     1.090159641016   111.69158190    28.32322084
 H     13  10   2     1.091597490287   111.56714786   265.61491275
 H     18  17  16     1.074929506386   123.41988833   180.51866082
 H     19  14   1     1.072447816633   122.73500715   358.84551545
 H     20  15   4     1.074055349505   123.21961049   359.32786790
 H     21  20  15     1.075947937263   123.89821624   179.63268759
 H     24  17  16     1.084074566439   116.65245303     0.04594726
 H     26  22  21     1.084698805844   114.12617975     1.41168318
 H     37  29  28     1.088914343877   107.21980230     0.10781002
 H     37  29  28     1.090548371875   110.06720663   240.01508197
 H     37  29  28     1.090573571842   110.02463116   120.18341663
 H     40  34  33     1.090454724645   110.02680263    59.19510137
 H     40  34  33     1.090574260378   109.97550551   299.47558263
 H     40  34  33     1.088866687386   107.29012172   179.37805444

---------------------------
INTERNAL COORDINATES (A.U.)
---------------------------
 C      0   0   0     0.000000000000     0.00000000     0.00000000
 C      1   0   0     2.653496484653     0.00000000     0.00000000
 C      2   1   0     2.686185528499   121.61015400     0.00000000
 C      3   2   1     2.637068524768   123.05795979     5.59066047
 C      4   3   2     2.678500827461   115.77479731   356.47763313
 C      1   2   3     2.676749483265   115.94135330   356.64081837
 N      5   4   3     2.511176337585   126.55064044   180.60150801
 S      7   5   4     3.030929652168   109.26499311   178.91719267
 N      6   1   2     2.515668683235   126.24422993   180.97518932
 O      2   1   3     2.564123968490   116.78832385   182.03784502
 O      3   2   1     2.615668642483   117.60704098   187.62227212
 C     11   3   2     2.677780474501   112.98123994    90.81884488
 C     10   2   1     2.680531130853   120.61275367   214.01953103
 C      1   2   3     2.710552170345   124.84859425   177.18010969
 C      4   3   2     2.713838998896   124.71035917   177.47722013
 S     14   1   2     3.275888263400   119.66783187   173.73434202
 C     16  14   1     3.296774645664    91.64823548   180.45680140
 C     17  16  14     2.619537854603   110.64915691   359.47627693
 C     14   1   2     2.620781871181   129.67925177   353.51221607
 C     15   4   3     2.624239396271   128.33933779   344.55203657
 C     20  15   4     2.611531467328   112.77816439   180.71984270
 C     21  20  15     2.634758401038   113.67473093     0.00000000
 S     15   4   3     3.274960402671   119.92707231   166.00153209
 C     17  16  14     2.665170257561   118.83866176   180.05324206
 C     24  17  16     2.566066401294   128.61204734   179.95451181
 C     22  21  20     2.663133581742   122.52969796   179.71549219
 C     26  22  21     2.573694448135   130.15813596   181.92860587
 C     25  24  17     2.762663515742   121.45904342   180.39642563
 N     28  25  24     2.621141168840   110.11189682   179.72173740
 C     29  28  25     2.561051410763   117.43345958     0.17431244
 S     25  24  17     3.304004631845   128.21007033     0.23231342
 S     27  26  22     3.319877457764   121.15271614   179.09448455
 C     32  27  26     3.317780107235    91.84933002   181.15810334
 N     33  32  27     2.565958961482   110.04474177   359.75311648
 C     34  33  32     2.616259583605   117.68757715   359.81600547
 O     28  25  24     2.287873733149   126.44595187   359.79418466
 C     29  28  25     2.724746259788   121.09797353   180.23848367
 S     30  29  28     3.081032974912   125.05760072   179.89740215
 S     33  32  27     3.081995267837   125.14688876   179.83680752
 C     34  33  32     2.725219999989   121.28146099   179.84267029
 O     35  34  33     2.297867995068   122.51515809   180.75579663
 H     12  11   3     2.067817364483   111.13937084    60.08815688
 H     12  11   3     2.069408769811   111.19698156   298.33328864
 H     12  11   3     2.056540512918   106.08976917   179.13954946
 H     13  10   2     2.062385891945   105.38414270   147.24381284
 H     13  10   2     2.060103163774   111.69158190    28.32322084
 H     13  10   2     2.062820305117   111.56714786   265.61491275
 H     18  17  16     2.031322380341   123.41988833   180.51866082
 H     19  14   1     2.026632666357   122.73500715   358.84551545
 H     20  15   4     2.029670463237   123.21961049   359.32786790
 H     21  20  15     2.033246935784   123.89821624   179.63268759
 H     24  17  16     2.048604039319   116.65245303     0.04594726
 H     26  22  21     2.049783680837   114.12617975     1.41168318
 H     37  29  28     2.057749893225   107.21980230     0.10781002
 H     37  29  28     2.060837758638   110.06720663   240.01508197
 H     37  29  28     2.060885379673   110.02463116   120.18341663
 H     40  34  33     2.060660791019   110.02680263    59.19510137
 H     40  34  33     2.060886680819   109.97550551   299.47558263
 H     40  34  33     2.057659835510   107.29012172   179.37805444

---------------------
BASIS SET INFORMATION
---------------------
There are 5 groups of distinct atoms

 Group   1 Type C   : 7s4p1d contracted to 3s2p1d pattern {511/31/1}
 Group   2 Type N   : 7s4p1d contracted to 3s2p1d pattern {511/31/1}
 Group   3 Type S   : 10s7p1d contracted to 4s3p1d pattern {5311/511/1}
 Group   4 Type O   : 7s4p1d contracted to 3s2p1d pattern {511/31/1}
 Group   5 Type H   : 4s1p contracted to 2s1p pattern {31/1}

Atom   0C    basis set group =>   1
Atom   1C    basis set group =>   1
Atom   2C    basis set group =>   1
Atom   3C    basis set group =>   1
Atom   4C    basis set group =>   1
Atom   5C    basis set group =>   1
Atom   6N    basis set group =>   2
Atom   7S    basis set group =>   3
Atom   8N    basis set group =>   2
Atom   9O    basis set group =>   4
Atom  10O    basis set group =>   4
Atom  11C    basis set group =>   1
Atom  12C    basis set group =>   1
Atom  13C    basis set group =>   1
Atom  14C    basis set group =>   1
Atom  15S    basis set group =>   3
Atom  16C    basis set group =>   1
Atom  17C    basis set group =>   1
Atom  18C    basis set group =>   1
Atom  19C    basis set group =>   1
Atom  20C    basis set group =>   1
Atom  21C    basis set group =>   1
Atom  22S    basis set group =>   3
Atom  23C    basis set group =>   1
Atom  24C    basis set group =>   1
Atom  25C    basis set group =>   1
Atom  26C    basis set group =>   1
Atom  27C    basis set group =>   1
Atom  28N    basis set group =>   2
Atom  29C    basis set group =>   1
Atom  30S    basis set group =>   3
Atom  31S    basis set group =>   3
Atom  32C    basis set group =>   1
Atom  33N    basis set group =>   2
Atom  34C    basis set group =>   1
Atom  35O    basis set group =>   4
Atom  36C    basis set group =>   1
Atom  37S    basis set group =>   3
Atom  38S    basis set group =>   3
Atom  39C    basis set group =>   1
Atom  40O    basis set group =>   4
Atom  41H    basis set group =>   5
Atom  42H    basis set group =>   5
Atom  43H    basis set group =>   5
Atom  44H    basis set group =>   5
Atom  45H    basis set group =>   5
Atom  46H    basis set group =>   5
Atom  47H    basis set group =>   5
Atom  48H    basis set group =>   5
Atom  49H    basis set group =>   5
Atom  50H    basis set group =>   5
Atom  51H    basis set group =>   5
Atom  52H    basis set group =>   5
Atom  53H    basis set group =>   5
Atom  54H    basis set group =>   5
Atom  55H    basis set group =>   5
Atom  56H    basis set group =>   5
Atom  57H    basis set group =>   5
Atom  58H    basis set group =>   5
------------------------------------------------------------------------------
                           ORCA GTO INTEGRAL CALCULATION
------------------------------------------------------------------------------

                         BASIS SET STATISTICS AND STARTUP INFO

 # of primitive gaussian shells          ...  624
 # of primitive gaussian functions       ... 1194
 # of contracted shells                  ...  314
 # of contracted basis functions         ...  692
 Highest angular momentum                ...    2
 Maximum contraction depth               ...    5
 Integral package used                   ... LIBINT
 Integral threshhold            Thresh   ...  2.500e-11
 Primitive cut-off              TCut     ...  2.500e-12


------------------------------ INTEGRAL EVALUATION ----------------------------


 * One electron integrals 
 Pre-screening matrix                    ... done
 Shell pair data                         ... done (   0.007 sec)

-------------------------------------------------------------------------------
                                 ORCA SCF
-------------------------------------------------------------------------------

------------
SCF SETTINGS
------------
Hamiltonian:
 Ab initio Hamiltonian  Method          .... Hartree-Fock(GTOs)


General Settings:
 Integral files         IntName         .... BTDT2R
 Hartree-Fock type      HFTyp           .... RHF
 Total Charge           Charge          ....    0
 Multiplicity           Mult            ....    1
 Number of Electrons    NEL             ....  346
 Basis Dimension        Dim             ....  692
 Nuclear Repulsion      ENuc            ....   5679.0847895488 Eh

Convergence Acceleration:
 DIIS                   CNVDIIS         .... on
   Start iteration      DIISMaxIt       ....    12
   Startup error        DIISStart       ....  0.200000
   # of expansion vecs  DIISMaxEq       ....     5
   Bias factor          DIISBfac        ....   1.050
   Max. coefficient     DIISMaxC        ....  10.000
 Newton-Raphson         CNVNR           .... off
 SOSCF                  CNVSOSCF        .... on
   Start iteration      SOSCFMaxIt      ....   150
   Startup grad/error   SOSCFStart      ....  0.003300
 Level Shifting         CNVShift        .... on
   Level shift para.    LevelShift      ....    0.2500
   Turn off err/grad.   ShiftErr        ....    0.0010
 Zerner damping         CNVZerner       .... off
 Static damping         CNVDamp         .... on
   Fraction old density DampFac         ....    0.7000
   Max. Damping (<1)    DampMax         ....    0.9800
   Min. Damping (>=0)   DampMin         ....    0.0000
   Turn off err/grad.   DampErr         ....    0.1000
 Fernandez-Rico         CNVRico         .... off

SCF Procedure:
 Maximum # iterations   MaxIter         ....   125
 SCF integral mode      SCFMode         .... Direct
   Integral package                     .... LIBINT
 Reset frequency        DirectResetFreq ....    20
 Integral Threshold     Thresh          ....  2.500e-11 Eh
 Primitive CutOff       TCut            ....  2.500e-12 Eh

Convergence Tolerance:
 Convergence Check Mode ConvCheckMode   .... Total+1el-Energy
 Convergence forced     ConvForced      .... 1
 Energy Change          TolE            ....  1.000e-08 Eh
 1-El. energy change                    ....  1.000e-05 Eh
 Orbital Gradient       TolG            ....  1.000e-05
 Orbital Rotation angle TolX            ....  1.000e-05
 DIIS Error             TolErr          ....  5.000e-07


Diagonalization of the overlap matrix:
Smallest eigenvalue                        ... 1.189e-04
Time for diagonalization                   ...    0.081 sec
Threshold for overlap eigenvalues          ... 1.000e-08
Number of eigenvalues below threshold      ... 0
Time for construction of square roots      ...    0.033 sec
Total time needed                          ...    0.116 sec

-------------------
DFT GRID GENERATION
-------------------

General Integration Accuracy     IntAcc      ...  4.340
Radial Grid Type                 RadialGrid  ... Gauss-Chebyshev
Angular Grid (max. acc.)         AngularGrid ... Lebedev-110
Angular grid pruning method      GridPruning ... 3 (G Style)
Weight generation scheme         WeightScheme... Becke
Basis function cutoff            BFCut       ...    1.0000e-11
Integration weight cutoff        WCut        ...    1.0000e-14
Grids for H and He will be reduced by one unit

# of grid points (after initial pruning)     ...  83662 (   0.1 sec)
# of grid points (after weights+screening)   ...  74819 (   1.1 sec)
nearest neighbour list constructed           ...    0.0 sec
Grid point re-assignment to atoms done       ...    0.0 sec
Grid point division into batches done        ...    0.1 sec
Reduced shell lists constructed in    1.0 sec

Total number of grid points                  ...    74819
Total number of batches                      ...     1197
Average number of points per batch           ...       62
Average number of grid points per atom       ...     1268
Average number of shells per batch           ...    87.90 (27.99%)
Average number of basis functions per batch  ...   186.28 (26.92%)
Average number of large shells per batch     ...    56.09 (63.81%)
Average number of large basis fcns per batch ...   120.06 (64.45%)
Maximum spatial batch extension              ...  21.66, 21.70, 22.17 au
Average spatial batch extension              ...   3.34,  3.08,  3.96 au

Time for grid setup =    2.136 sec

------------------------------
INITIAL GUESS: MODEL POTENTIAL
------------------------------
Loading Hartree-Fock densities                     ... done
Calculating cut-offs                               ... done
Setting up the integral package                    ... done
Initializing the effective Hamiltonian             ... done
Starting the Coulomb interaction                   ... done (   2.6 sec)
Reading the grid                                   ... done
Mapping shells                                     ... done
Starting the XC term evaluation                    ... done (   1.0 sec)
Transforming the Hamiltonian                       ... done (   0.0 sec)
Diagonalizing the Hamiltonian                      ... done (   0.1 sec)
Back transforming the eigenvectors                 ... done (   0.0 sec)
Now organizing SCF variables                       ... done
                      ------------------
                      INITIAL GUESS DONE (   6.0 sec)
                      ------------------
--------------
SCF ITERATIONS
--------------
ITER       Energy         Delta-E        Max-DP      RMS-DP      [F,P]     Damp
               ***  Starting incremental Fock matrix formation  ***
  0  -4291.5490065553   0.000000000000 0.08953805  0.00154891  0.2562938 0.7000
  1  -4291.9926713326  -0.443664777338 0.06348230  0.00118741  0.1553995 0.7000
                               ***Turning on DIIS***
  2  -4292.2611480486  -0.268476715955 0.15052298  0.00272759  0.0870531 0.0000
  3  -4290.6969843758   1.564163672781 0.08199634  0.00068743  0.0547491 0.0000
  4  -4292.9983633300  -2.301378954255 0.01350438  0.00025718  0.0096069 0.0000
  5  -4292.8573732212   0.140990108846 0.00837282  0.00013082  0.0068104 0.0000
  6  -4292.7884022662   0.068970955002 0.00755719  0.00008933  0.0036555 0.0000
  7  -4292.8664030588  -0.078000792562 0.00605923  0.00006035  0.0021768 0.0000
                      *** Initiating the SOSCF procedure ***
                           *** Shutting down DIIS ***
                      *** Re-Reading the Fockian *** 
                      *** Removing any level shift *** 
ITER      Energy       Delta-E        Grad      Rot      Max-DP    RMS-DP
  8  -4292.84961690   0.0167861597  0.002437  0.002437  0.004382  0.000040
               *** Restarting incremental Fock matrix formation ***
  9  -4292.84759022   0.0020266822  0.000959  0.002950  0.002779  0.000021
 10  -4292.84764464  -0.0000544281  0.000439  0.004017  0.003523  0.000033
 11  -4292.84767142  -0.0000267756  0.000210  0.000538  0.000508  0.000008
 12  -4292.84767434  -0.0000029184  0.000106  0.000371  0.000184  0.000003
 13  -4292.84767501  -0.0000006737  0.000025  0.000120  0.000150  0.000001
 14  -4292.84767510  -0.0000000852  0.000015  0.000063  0.000102  0.000001
 15  -4292.84767513  -0.0000000298  0.000005  0.000024  0.000040  0.000000
 16  -4292.84767513  -0.0000000063  0.000003  0.000016  0.000009  0.000000
                  ***Gradient check signals convergence***
              ***Rediagonalizing the Fockian in SOSCF/NRSCF***

               *****************************************************
               *                     SUCCESS                       *
               *           SCF CONVERGED AFTER  17 CYCLES          *
               *****************************************************


----------------
TOTAL SCF ENERGY
----------------

Total Energy       :        -4292.84767513 Eh         -116814.32397 eV

Components:
Nuclear Repulsion  :         5679.08478955 Eh          154535.75357 eV
Electronic Energy  :        -9971.93246468 Eh         -271350.07754 eV
One Electron Energy:       -17220.90894030 Eh         -468604.75567 eV
Two Electron Energy:         7248.97647562 Eh          197254.67814 eV

Virial components:
Potential Energy   :        -8580.19428655 Eh         -233478.95638 eV
Kinetic Energy     :         4287.34661142 Eh          116664.63241 eV
Virial Ratio       :            2.00128309


---------------
SCF CONVERGENCE
---------------

  Last Energy change         ...    2.9668e-09  Tolerance :   1.0000e-08
  Last MAX-Density change    ...    5.8272e-06  Tolerance :   1.0000e-07
  Last RMS-Density change    ...    7.7453e-08  Tolerance :   5.0000e-09
  Last Orbital Gradient      ...    1.5101e-06  Tolerance :   1.0000e-05
  Last Orbital Rotation      ...    9.8816e-06  Tolerance :   1.0000e-05

             **** THE GBW FILE WAS UPDATED (BTDT2R.gbw) ****
             **** DENSITY FILE WAS UPDATED (BTDT2R.scfp) ****
             **** ENERGY FILE WAS UPDATED (BTDT2R.en.tmp) ****
             **** THE GBW FILE WAS UPDATED (BTDT2R.gbw) ****
             **** DENSITY FILE WAS UPDATED (BTDT2R.scfp) ****
----------------
ORBITAL ENERGIES
----------------

  NO   OCC          E(Eh)            E(eV) 
   0   2.0000     -92.043198     -2504.6227 
   1   2.0000     -91.970561     -2502.6462 
   2   2.0000     -91.966877     -2502.5459 
   3   2.0000     -91.960779     -2502.3800 
   4   2.0000     -91.959445     -2502.3437 
   5   2.0000     -91.884052     -2500.2922 
   6   2.0000     -91.880942     -2500.2075 
   7   2.0000     -20.610069      -560.8285 
   8   2.0000     -20.606350      -560.7273 
   9   2.0000     -20.557150      -559.3885 
  10   2.0000     -20.544503      -559.0444 
  11   2.0000     -15.644401      -425.7058 
  12   2.0000     -15.637212      -425.5102 
  13   2.0000     -15.621805      -425.0909 
  14   2.0000     -15.617495      -424.9737 
  15   2.0000     -11.396323      -310.1097 
  16   2.0000     -11.384600      -309.7907 
  17   2.0000     -11.382283      -309.7277 
  18   2.0000     -11.377830      -309.6065 
  19   2.0000     -11.353358      -308.9406 
  20   2.0000     -11.345536      -308.7277 
  21   2.0000     -11.315459      -307.9093 
  22   2.0000     -11.315238      -307.9033 
  23   2.0000     -11.314151      -307.8737 
  24   2.0000     -11.311145      -307.7919 
  25   2.0000     -11.309869      -307.7572 
  26   2.0000     -11.296733      -307.3997 
  27   2.0000     -11.296367      -307.3898 
  28   2.0000     -11.294643      -307.3428 
  29   2.0000     -11.293105      -307.3010 
  30   2.0000     -11.290999      -307.2437 
  31   2.0000     -11.286534      -307.1222 
  32   2.0000     -11.285851      -307.1036 
  33   2.0000     -11.285167      -307.0850 
  34   2.0000     -11.279597      -306.9334 
  35   2.0000     -11.276651      -306.8533 
  36   2.0000     -11.274155      -306.7854 
  37   2.0000     -11.267009      -306.5909 
  38   2.0000     -11.259086      -306.3753 
  39   2.0000     -11.254905      -306.2615 
  40   2.0000     -11.249379      -306.1112 
  41   2.0000      -9.074016      -246.9165 
  42   2.0000      -9.007846      -245.1160 
  43   2.0000      -9.003764      -245.0049 
  44   2.0000      -8.994897      -244.7636 
  45   2.0000      -8.994440      -244.7512 
  46   2.0000      -8.921605      -242.7692 
  47   2.0000      -8.918506      -242.6849 
  48   2.0000      -6.761240      -183.9827 
  49   2.0000      -6.759400      -183.9326 
  50   2.0000      -6.758032      -183.8954 
  51   2.0000      -6.695237      -182.1867 
  52   2.0000      -6.694093      -182.1555 
  53   2.0000      -6.691672      -182.0897 
  54   2.0000      -6.691152      -182.0755 
  55   2.0000      -6.690021      -182.0447 
  56   2.0000      -6.687643      -181.9800 
  57   2.0000      -6.681590      -181.8153 
  58   2.0000      -6.681474      -181.8121 
  59   2.0000      -6.680401      -181.7830 
  60   2.0000      -6.680358      -181.7818 
  61   2.0000      -6.678647      -181.7352 
  62   2.0000      -6.678476      -181.7306 
  63   2.0000      -6.609912      -179.8649 
  64   2.0000      -6.607162      -179.7900 
  65   2.0000      -6.606812      -179.7805 
  66   2.0000      -6.605699      -179.7502 
  67   2.0000      -6.604083      -179.7062 
  68   2.0000      -6.602602      -179.6659 
  69   2.0000      -1.441778       -39.2328 
  70   2.0000      -1.419221       -38.6190 
  71   2.0000      -1.413165       -38.4542 
  72   2.0000      -1.406945       -38.2849 
  73   2.0000      -1.369683       -37.2710 
  74   2.0000      -1.320862       -35.9425 
  75   2.0000      -1.312823       -35.7237 
  76   2.0000      -1.217524       -33.1305 
  77   2.0000      -1.205275       -32.7972 
  78   2.0000      -1.190141       -32.3854 
  79   2.0000      -1.171444       -31.8766 
  80   2.0000      -1.145381       -31.1674 
  81   2.0000      -1.136230       -30.9184 
  82   2.0000      -1.092888       -29.7390 
  83   2.0000      -1.075944       -29.2779 
  84   2.0000      -1.065469       -28.9929 
  85   2.0000      -1.051460       -28.6117 
  86   2.0000      -1.041134       -28.3307 
  87   2.0000      -1.027885       -27.9702 
  88   2.0000      -1.010641       -27.5009 
  89   2.0000      -1.002482       -27.2789 
  90   2.0000      -0.984397       -26.7868 
  91   2.0000      -0.973903       -26.5013 
  92   2.0000      -0.964495       -26.2452 
  93   2.0000      -0.956275       -26.0216 
  94   2.0000      -0.951462       -25.8906 
  95   2.0000      -0.942661       -25.6511 
  96   2.0000      -0.905346       -24.6357 
  97   2.0000      -0.884432       -24.0666 
  98   2.0000      -0.873435       -23.7674 
  99   2.0000      -0.853830       -23.2339 
 100   2.0000      -0.845215       -22.9995 
 101   2.0000      -0.834819       -22.7166 
 102   2.0000      -0.828530       -22.5454 
 103   2.0000      -0.797231       -21.6938 
 104   2.0000      -0.783142       -21.3104 
 105   2.0000      -0.774787       -21.0830 
 106   2.0000      -0.764173       -20.7942 
 107   2.0000      -0.749699       -20.4003 
 108   2.0000      -0.741446       -20.1758 
 109   2.0000      -0.730118       -19.8675 
 110   2.0000      -0.727338       -19.7919 
 111   2.0000      -0.705501       -19.1977 
 112   2.0000      -0.702463       -19.1150 
 113   2.0000      -0.692859       -18.8537 
 114   2.0000      -0.691195       -18.8084 
 115   2.0000      -0.689913       -18.7735 
 116   2.0000      -0.681439       -18.5429 
 117   2.0000      -0.676638       -18.4123 
 118   2.0000      -0.673611       -18.3299 
 119   2.0000      -0.668275       -18.1847 
 120   2.0000      -0.667814       -18.1721 
 121   2.0000      -0.661628       -18.0038 
 122   2.0000      -0.652761       -17.7625 
 123   2.0000      -0.642336       -17.4789 
 124   2.0000      -0.638946       -17.3866 
 125   2.0000      -0.632979       -17.2242 
 126   2.0000      -0.623027       -16.9534 
 127   2.0000      -0.619218       -16.8498 
 128   2.0000      -0.603972       -16.4349 
 129   2.0000      -0.598488       -16.2857 
 130   2.0000      -0.592789       -16.1306 
 131   2.0000      -0.587181       -15.9780 
 132   2.0000      -0.581443       -15.8219 
 133   2.0000      -0.577356       -15.7107 
 134   2.0000      -0.572513       -15.5789 
 135   2.0000      -0.567040       -15.4299 
 136   2.0000      -0.562659       -15.3107 
 137   2.0000      -0.559534       -15.2257 
 138   2.0000      -0.557216       -15.1626 
 139   2.0000      -0.555050       -15.1037 
 140   2.0000      -0.550579       -14.9820 
 141   2.0000      -0.543879       -14.7997 
 142   2.0000      -0.542396       -14.7594 
 143   2.0000      -0.540668       -14.7123 
 144   2.0000      -0.529388       -14.4054 
 145   2.0000      -0.526143       -14.3171 
 146   2.0000      -0.523233       -14.2379 
 147   2.0000      -0.519838       -14.1455 
 148   2.0000      -0.516305       -14.0494 
 149   2.0000      -0.511581       -13.9208 
 150   2.0000      -0.510695       -13.8967 
 151   2.0000      -0.509639       -13.8680 
 152   2.0000      -0.497737       -13.5441 
 153   2.0000      -0.486252       -13.2316 
 154   2.0000      -0.473020       -12.8715 
 155   2.0000      -0.472314       -12.8523 
 156   2.0000      -0.462668       -12.5898 
 157   2.0000      -0.456202       -12.4139 
 158   2.0000      -0.454166       -12.3585 
 159   2.0000      -0.445660       -12.1270 
 160   2.0000      -0.427402       -11.6302 
 161   2.0000      -0.406817       -11.0701 
 162   2.0000      -0.394643       -10.7388 
 163   2.0000      -0.375386       -10.2148 
 164   2.0000      -0.363985        -9.9045 
 165   2.0000      -0.360436        -9.8080 
 166   2.0000      -0.358010        -9.7419 
 167   2.0000      -0.354946        -9.6586 
 168   2.0000      -0.344396        -9.3715 
 169   2.0000      -0.340949        -9.2777 
 170   2.0000      -0.334447        -9.1008 
 171   2.0000      -0.298872        -8.1327 
 172   2.0000      -0.262823        -7.1518 
 173   0.0000      -0.023911        -0.6507 
 174   0.0000       0.025277         0.6878 
 175   0.0000       0.037988         1.0337 
 176   0.0000       0.088022         2.3952 
 177   0.0000       0.098249         2.6735 
 178   0.0000       0.122128         3.3233 
 179   0.0000       0.133010         3.6194 
 180   0.0000       0.146097         3.9755 
 181   0.0000       0.154739         4.2107 
 182   0.0000       0.158455         4.3118 
 183   0.0000       0.172773         4.7014 
 184   0.0000       0.173157         4.7119 
 185   0.0000       0.181718         4.9448 
 186   0.0000       0.183796         5.0013 
 187   0.0000       0.189093         5.1455 
 188   0.0000       0.195030         5.3070 
 189   0.0000       0.199421         5.4265 
 190   0.0000       0.205074         5.5804 
 191   0.0000       0.208304         5.6683 
 192   0.0000       0.214946         5.8490 
 193   0.0000       0.223058         6.0697 
 194   0.0000       0.224580         6.1111 
 195   0.0000       0.228212         6.2100 
 196   0.0000       0.237393         6.4598 
 197   0.0000       0.242321         6.5939 
 198   0.0000       0.245840         6.6897 
 199   0.0000       0.253716         6.9040 
 200   0.0000       0.256269         6.9734 
 201   0.0000       0.261035         7.1031 
 202   0.0000       0.261772         7.1232 
 203   0.0000       0.263856         7.1799 
 204   0.0000       0.267497         7.2790 
 205   0.0000       0.269422         7.3313 
 206   0.0000       0.273055         7.4302 
 207   0.0000       0.275639         7.5005 
 208   0.0000       0.279758         7.6126 
 209   0.0000       0.283960         7.7269 
 210   0.0000       0.285049         7.7566 
 211   0.0000       0.285758         7.7759 
 212   0.0000       0.296882         8.0786 
 213   0.0000       0.299738         8.1563 
 214   0.0000       0.303442         8.2571 
 215   0.0000       0.307160         8.3582 
 216   0.0000       0.312980         8.5166 
 217   0.0000       0.321905         8.7595 
 218   0.0000       0.327044         8.8993 
 219   0.0000       0.335031         9.1166 
 220   0.0000       0.341268         9.2864 
 221   0.0000       0.357059         9.7161 
 222   0.0000       0.372297        10.1307 
 223   0.0000       0.377408        10.2698 
 224   0.0000       0.385962        10.5026 
 225   0.0000       0.395593        10.7646 
 226   0.0000       0.398349        10.8396 
 227   0.0000       0.403887        10.9903 
 228   0.0000       0.410923        11.1818 
 229   0.0000       0.415282        11.3004 
 230   0.0000       0.418261        11.3814 
 231   0.0000       0.426256        11.5990 
 232   0.0000       0.428536        11.6610 
 233   0.0000       0.440347        11.9825 
 234   0.0000       0.443361        12.0645 
 235   0.0000       0.453232        12.3331 
 236   0.0000       0.457964        12.4618 
 237   0.0000       0.462764        12.5924 
 238   0.0000       0.468404        12.7459 
 239   0.0000       0.474679        12.9167 
 240   0.0000       0.478505        13.0208 
 241   0.0000       0.484131        13.1739 
 242   0.0000       0.491926        13.3860 
 243   0.0000       0.494419        13.4538 
 244   0.0000       0.499575        13.5941 
 245   0.0000       0.512329        13.9412 
 246   0.0000       0.517722        14.0879 
 247   0.0000       0.527148        14.3444 
 248   0.0000       0.533793        14.5252 
 249   0.0000       0.536447        14.5975 
 250   0.0000       0.544217        14.8089 
 251   0.0000       0.548090        14.9143 
 252   0.0000       0.555016        15.1027 
 253   0.0000       0.558193        15.1892 
 254   0.0000       0.562447        15.3050 
 255   0.0000       0.577636        15.7183 
 256   0.0000       0.579738        15.7755 
 257   0.0000       0.582276        15.8445 
 258   0.0000       0.584922        15.9165 
 259   0.0000       0.587871        15.9968 
 260   0.0000       0.589416        16.0388 
 261   0.0000       0.594431        16.1753 
 262   0.0000       0.598296        16.2805 
 263   0.0000       0.615762        16.7557 
 264   0.0000       0.622044        16.9267 
 265   0.0000       0.624896        17.0043 
 266   0.0000       0.631561        17.1856 
 267   0.0000       0.642668        17.4879 
 268   0.0000       0.643952        17.5228 
 269   0.0000       0.646267        17.5858 
 270   0.0000       0.650787        17.7088 
 271   0.0000       0.651584        17.7305 
 272   0.0000       0.653168        17.7736 
 273   0.0000       0.657549        17.8928 
 274   0.0000       0.661413        17.9980 
 275   0.0000       0.662457        18.0264 
 276   0.0000       0.668249        18.1840 
 277   0.0000       0.681115        18.5341 
 278   0.0000       0.685527        18.6541 
 279   0.0000       0.690511        18.7897 
 280   0.0000       0.692170        18.8349 
 281   0.0000       0.696013        18.9395 
 282   0.0000       0.698277        19.0011 
 283   0.0000       0.701063        19.0769 
 284   0.0000       0.705134        19.1877 
 285   0.0000       0.708527        19.2800 
 286   0.0000       0.714787        19.4503 
 287   0.0000       0.718812        19.5599 
 288   0.0000       0.728767        19.8307 
 289   0.0000       0.732821        19.9411 
 290   0.0000       0.737496        20.0683 
 291   0.0000       0.743695        20.2370 
 292   0.0000       0.753913        20.5150 
 293   0.0000       0.756073        20.5738 
 294   0.0000       0.764751        20.8099 
 295   0.0000       0.769095        20.9281 
 296   0.0000       0.770089        20.9552 
 297   0.0000       0.774779        21.0828 
 298   0.0000       0.777829        21.1658 
 299   0.0000       0.779672        21.2159 
 300   0.0000       0.786151        21.3923 
 301   0.0000       0.789108        21.4727 
 302   0.0000       0.794733        21.6258 
 303   0.0000       0.795556        21.6482 
 304   0.0000       0.801094        21.7989 
 305   0.0000       0.803417        21.8621 
 306   0.0000       0.814018        22.1506 
 307   0.0000       0.817674        22.2500 
 308   0.0000       0.820248        22.3201 
 309   0.0000       0.823363        22.4048 
 310   0.0000       0.829497        22.5717 
 311   0.0000       0.832047        22.6411 
 312   0.0000       0.833802        22.6889 
 313   0.0000       0.836079        22.7509 
 314   0.0000       0.841915        22.9097 
 315   0.0000       0.846517        23.0349 
 316   0.0000       0.848420        23.0867 
 317   0.0000       0.849518        23.1166 
 318   0.0000       0.851112        23.1599 
 319   0.0000       0.855183        23.2707 
 320   0.0000       0.860029        23.4026 
 321   0.0000       0.862444        23.4683 
 322   0.0000       0.866648        23.5827 
 323   0.0000       0.868646        23.6371 
 324   0.0000       0.869310        23.6551 
 325   0.0000       0.871015        23.7015 
 326   0.0000       0.873376        23.7658 
 327   0.0000       0.876357        23.8469 
 328   0.0000       0.877641        23.8818 
 329   0.0000       0.879333        23.9279 
 330   0.0000       0.882983        24.0272 
 331   0.0000       0.887681        24.1550 
 332   0.0000       0.888559        24.1789 
 333   0.0000       0.893469        24.3125 
 334   0.0000       0.896200        24.3869 
 335   0.0000       0.896966        24.4077 
 336   0.0000       0.899678        24.4815 
 337   0.0000       0.903381        24.5822 
 338   0.0000       0.906108        24.6565 
 339   0.0000       0.908730        24.7278 
 340   0.0000       0.910275        24.7698 
 341   0.0000       0.912274        24.8242 
 342   0.0000       0.920196        25.0398 
 343   0.0000       0.923557        25.1313 
 344   0.0000       0.929948        25.3052 
 345   0.0000       0.932604        25.3774 
 346   0.0000       0.932940        25.3866 
 347   0.0000       0.943702        25.6795 
 348   0.0000       0.946199        25.7474 
 349   0.0000       0.954298        25.9678 
 350   0.0000       0.956439        26.0260 
 351   0.0000       0.957270        26.0486 
 352   0.0000       0.957447        26.0535 
 353   0.0000       0.961859        26.1735 
 354   0.0000       0.963166        26.2091 
 355   0.0000       0.964327        26.2407 
 356   0.0000       0.967335        26.3225 
 357   0.0000       0.974906        26.5285 
 358   0.0000       0.978701        26.6318 
 359   0.0000       0.981047        26.6956 
 360   0.0000       0.989581        26.9279 
 361   0.0000       0.991193        26.9717 
 362   0.0000       0.993983        27.0477 
 363   0.0000       0.996981        27.1292 
 364   0.0000       1.000156        27.2156 
 365   0.0000       1.003823        27.3154 
 366   0.0000       1.010328        27.4924 
 367   0.0000       1.015977        27.6461 
 368   0.0000       1.018801        27.7230 
 369   0.0000       1.020827        27.7781 
 370   0.0000       1.025973        27.9181 
 371   0.0000       1.029837        28.0233 
 372   0.0000       1.031759        28.0756 
 373   0.0000       1.035236        28.1702 
 374   0.0000       1.040543        28.3146 
 375   0.0000       1.045956        28.4619 
 376   0.0000       1.045990        28.4628 
 377   0.0000       1.047682        28.5089 
 378   0.0000       1.051989        28.6261 
 379   0.0000       1.060434        28.8559 
 380   0.0000       1.065105        28.9830 
 381   0.0000       1.074620        29.2419 
 382   0.0000       1.075965        29.2785 
 383   0.0000       1.079797        29.3828 
 384   0.0000       1.082949        29.4686 
 385   0.0000       1.086995        29.5786 
 386   0.0000       1.091441        29.6996 
 387   0.0000       1.093115        29.7452 
 388   0.0000       1.099630        29.9224 
 389   0.0000       1.107921        30.1481 
 390   0.0000       1.111989        30.2588 
 391   0.0000       1.119041        30.4507 
 392   0.0000       1.122723        30.5509 
 393   0.0000       1.140051        31.0224 
 394   0.0000       1.145784        31.1784 
 395   0.0000       1.159867        31.5616 
 396   0.0000       1.169467        31.8228 
 397   0.0000       1.171395        31.8753 
 398   0.0000       1.176434        32.0124 
 399   0.0000       1.194561        32.5057 
 400   0.0000       1.195114        32.5207 
 401   0.0000       1.196639        32.5622 
 402   0.0000       1.198899        32.6237 
 403   0.0000       1.210552        32.9408 
 404   0.0000       1.214861        33.0581 
 405   0.0000       1.219622        33.1876 
 406   0.0000       1.226277        33.3687 
 407   0.0000       1.230013        33.4704 
 408   0.0000       1.233378        33.5619 
 409   0.0000       1.260429        34.2980 
 410   0.0000       1.263732        34.3879 
 411   0.0000       1.273233        34.6464 
 412   0.0000       1.281859        34.8812 
 413   0.0000       1.288202        35.0538 
 414   0.0000       1.295105        35.2416 
 415   0.0000       1.302983        35.4560 
 416   0.0000       1.313213        35.7343 
 417   0.0000       1.340703        36.4824 
 418   0.0000       1.345804        36.6212 
 419   0.0000       1.355222        36.8775 
 420   0.0000       1.356975        36.9252 
 421   0.0000       1.362887        37.0860 
 422   0.0000       1.364442        37.1284 
 423   0.0000       1.369942        37.2780 
 424   0.0000       1.371365        37.3167 
 425   0.0000       1.377747        37.4904 
 426   0.0000       1.385631        37.7049 
 427   0.0000       1.386657        37.7329 
 428   0.0000       1.392036        37.8792 
 429   0.0000       1.398812        38.0636 
 430   0.0000       1.409190        38.3460 
 431   0.0000       1.418015        38.5861 
 432   0.0000       1.421850        38.6905 
 433   0.0000       1.433286        39.0017 
 434   0.0000       1.437682        39.1213 
 435   0.0000       1.439720        39.1768 
 436   0.0000       1.445676        39.3388 
 437   0.0000       1.450771        39.4775 
 438   0.0000       1.454973        39.5918 
 439   0.0000       1.461931        39.7812 
 440   0.0000       1.473387        40.0929 
 441   0.0000       1.475813        40.1589 
 442   0.0000       1.481329        40.3090 
 443   0.0000       1.483579        40.3702 
 444   0.0000       1.484707        40.4009 
 445   0.0000       1.487113        40.4664 
 446   0.0000       1.495497        40.6945 
 447   0.0000       1.499395        40.8006 
 448   0.0000       1.503640        40.9161 
 449   0.0000       1.508402        41.0457 
 450   0.0000       1.511715        41.1358 
 451   0.0000       1.512380        41.1539 
 452   0.0000       1.521299        41.3967 
 453   0.0000       1.525238        41.5038 
 454   0.0000       1.531367        41.6706 
 455   0.0000       1.537275        41.8314 
 456   0.0000       1.539627        41.8954 
 457   0.0000       1.544074        42.0164 
 458   0.0000       1.545185        42.0466 
 459   0.0000       1.550564        42.1930 
 460   0.0000       1.561777        42.4981 
 461   0.0000       1.567235        42.6466 
 462   0.0000       1.576747        42.9055 
 463   0.0000       1.578000        42.9396 
 464   0.0000       1.590622        43.2830 
 465   0.0000       1.601648        43.5831 
 466   0.0000       1.616088        43.9760 
 467   0.0000       1.636964        44.5441 
 468   0.0000       1.641723        44.6735 
 469   0.0000       1.669413        45.4270 
 470   0.0000       1.678824        45.6831 
 471   0.0000       1.696374        46.1607 
 472   0.0000       1.707729        46.4697 
 473   0.0000       1.708354        46.4867 
 474   0.0000       1.714368        46.6503 
 475   0.0000       1.717503        46.7356 
 476   0.0000       1.724514        46.9264 
 477   0.0000       1.728207        47.0269 
 478   0.0000       1.733337        47.1665 
 479   0.0000       1.745937        47.5094 
 480   0.0000       1.757213        47.8162 
 481   0.0000       1.763818        47.9959 
 482   0.0000       1.772210        48.2243 
 483   0.0000       1.774767        48.2939 
 484   0.0000       1.776990        48.3544 
 485   0.0000       1.782305        48.4990 
 486   0.0000       1.787635        48.6440 
 487   0.0000       1.793798        48.8117 
 488   0.0000       1.803227        49.0683 
 489   0.0000       1.808290        49.2061 
 490   0.0000       1.815737        49.4087 
 491   0.0000       1.823949        49.6322 
 492   0.0000       1.842130        50.1269 
 493   0.0000       1.846677        50.2506 
 494   0.0000       1.873454        50.9793 
 495   0.0000       1.878484        51.1161 
 496   0.0000       1.889887        51.4265 
 497   0.0000       1.892339        51.4932 
 498   0.0000       1.925894        52.4062 
 499   0.0000       1.934381        52.6372 
 500   0.0000       1.940318        52.7987 
 501   0.0000       1.946856        52.9767 
 502   0.0000       1.949942        53.0606 
 503   0.0000       1.963090        53.4184 
 504   0.0000       1.977992        53.8239 
 505   0.0000       1.984591        54.0035 
 506   0.0000       1.999996        54.4227 
 507   0.0000       2.003541        54.5191 
 508   0.0000       2.009101        54.6704 
 509   0.0000       2.010985        54.7217 
 510   0.0000       2.032661        55.3115 
 511   0.0000       2.036412        55.4136 
 512   0.0000       2.038552        55.4718 
 513   0.0000       2.041844        55.5614 
 514   0.0000       2.044732        55.6400 
 515   0.0000       2.047812        55.7238 
 516   0.0000       2.054805        55.9141 
 517   0.0000       2.058810        56.0231 
 518   0.0000       2.068515        56.2872 
 519   0.0000       2.076945        56.5166 
 520   0.0000       2.078986        56.5721 
 521   0.0000       2.081085        56.6292 
 522   0.0000       2.086463        56.7756 
 523   0.0000       2.091748        56.9194 
 524   0.0000       2.092284        56.9339 
 525   0.0000       2.106899        57.3316 
 526   0.0000       2.111365        57.4532 
 527   0.0000       2.120594        57.7043 
 528   0.0000       2.125551        57.8392 
 529   0.0000       2.126758        57.8720 
 530   0.0000       2.130456        57.9726 
 531   0.0000       2.133567        58.0573 
 532   0.0000       2.135369        58.1063 
 533   0.0000       2.141012        58.2599 
 534   0.0000       2.145929        58.3937 
 535   0.0000       2.154034        58.6142 
 536   0.0000       2.171050        59.0773 
 537   0.0000       2.185629        59.4740 
 538   0.0000       2.200306        59.8734 
 539   0.0000       2.205116        60.0043 
 540   0.0000       2.216354        60.3101 
 541   0.0000       2.220910        60.4340 
 542   0.0000       2.224557        60.5333 
 543   0.0000       2.231772        60.7296 
 544   0.0000       2.235678        60.8359 
 545   0.0000       2.241228        60.9869 
 546   0.0000       2.247708        61.1632 
 547   0.0000       2.253136        61.3109 
 548   0.0000       2.259822        61.4929 
 549   0.0000       2.267204        61.6938 
 550   0.0000       2.270233        61.7762 
 551   0.0000       2.270417        61.7812 
 552   0.0000       2.286736        62.2253 
 553   0.0000       2.291743        62.3615 
 554   0.0000       2.299653        62.5767 
 555   0.0000       2.305450        62.7345 
 556   0.0000       2.309292        62.8390 
 557   0.0000       2.315433        63.0061 
 558   0.0000       2.318037        63.0770 
 559   0.0000       2.326996        63.3208 
 560   0.0000       2.330439        63.4145 
 561   0.0000       2.332746        63.4772 
 562   0.0000       2.349795        63.9412 
 563   0.0000       2.357506        64.1510 
 564   0.0000       2.378258        64.7157 
 565   0.0000       2.379332        64.7449 
 566   0.0000       2.399438        65.2920 
 567   0.0000       2.400288        65.3151 
 568   0.0000       2.407353        65.5074 
 569   0.0000       2.414069        65.6901 
 570   0.0000       2.414463        65.7009 
 571   0.0000       2.417754        65.7904 
 572   0.0000       2.430150        66.1278 
 573   0.0000       2.452424        66.7339 
 574   0.0000       2.464271        67.0562 
 575   0.0000       2.475593        67.3643 
 576   0.0000       2.479371        67.4671 
 577   0.0000       2.481882        67.5355 
 578   0.0000       2.497882        67.9708 
 579   0.0000       2.499852        68.0244 
 580   0.0000       2.502393        68.0936 
 581   0.0000       2.506891        68.2160 
 582   0.0000       2.516095        68.4664 
 583   0.0000       2.529218        68.8235 
 584   0.0000       2.544087        69.2281 
 585   0.0000       2.559263        69.6411 
 586   0.0000       2.570602        69.9496 
 587   0.0000       2.575692        70.0881 
 588   0.0000       2.588934        70.4485 
 589   0.0000       2.597690        70.6867 
 590   0.0000       2.602829        70.8266 
 591   0.0000       2.606650        70.9305 
 592   0.0000       2.611261        71.0560 
 593   0.0000       2.626419        71.4685 
 594   0.0000       2.630164        71.5704 
 595   0.0000       2.637069        71.7583 
 596   0.0000       2.641315        71.8738 
 597   0.0000       2.653505        72.2056 
 598   0.0000       2.669435        72.6390 
 599   0.0000       2.685725        73.0823 
 600   0.0000       2.689220        73.1774 
 601   0.0000       2.704030        73.5804 
 602   0.0000       2.714480        73.8648 
 603   0.0000       2.718304        73.9688 
 604   0.0000       2.728994        74.2597 
 605   0.0000       2.754856        74.9634 
 606   0.0000       2.758266        75.0562 
 607   0.0000       2.760063        75.1051 
 608   0.0000       2.770065        75.3773 
 609   0.0000       2.779359        75.6302 
 610   0.0000       2.788362        75.8752 
 611   0.0000       2.796872        76.1067 
 612   0.0000       2.803266        76.2807 
 613   0.0000       2.818258        76.6887 
 614   0.0000       2.825429        76.8838 
 615   0.0000       2.847596        77.4870 
 616   0.0000       2.869208        78.0751 
 617   0.0000       2.875053        78.2342 
 618   0.0000       2.881061        78.3977 
 619   0.0000       2.885798        78.5265 
 620   0.0000       2.903304        79.0029 
 621   0.0000       2.906066        79.0781 
 622   0.0000       2.912273        79.2470 
 623   0.0000       2.935415        79.8767 
 624   0.0000       2.942065        80.0577 
 625   0.0000       2.949956        80.2724 
 626   0.0000       2.960476        80.5587 
 627   0.0000       2.979425        81.0743 
 628   0.0000       2.983059        81.1732 
 629   0.0000       2.984738        81.2189 
 630   0.0000       2.992063        81.4182 
 631   0.0000       3.003303        81.7240 
 632   0.0000       3.009643        81.8966 
 633   0.0000       3.018428        82.1356 
 634   0.0000       3.025404        82.3254 
 635   0.0000       3.040545        82.7374 
 636   0.0000       3.059594        83.2558 
 637   0.0000       3.070839        83.5618 
 638   0.0000       3.074582        83.6636 
 639   0.0000       3.078036        83.7576 
 640   0.0000       3.083171        83.8973 
 641   0.0000       3.086013        83.9747 
 642   0.0000       3.104910        84.4889 
 643   0.0000       3.106678        84.5370 
 644   0.0000       3.112741        84.7020 
 645   0.0000       3.117200        84.8233 
 646   0.0000       3.135985        85.3345 
 647   0.0000       3.152265        85.7775 
 648   0.0000       3.157408        85.9174 
 649   0.0000       3.170149        86.2641 
 650   0.0000       3.178877        86.5016 
 651   0.0000       3.195760        86.9611 
 652   0.0000       3.201771        87.1246 
 653   0.0000       3.203497        87.1716 
 654   0.0000       3.223698        87.7213 
 655   0.0000       3.230388        87.9033 
 656   0.0000       3.277943        89.1974 
 657   0.0000       3.280078        89.2555 
 658   0.0000       3.284025        89.3629 
 659   0.0000       3.289817        89.5205 
 660   0.0000       3.293177        89.6119 
 661   0.0000       3.297559        89.7311 
 662   0.0000       3.306663        89.9789 
 663   0.0000       3.337180        90.8093 
 664   0.0000       3.345380        91.0324 
 665   0.0000       3.361302        91.4657 
 666   0.0000       3.366848        91.6166 
 667   0.0000       3.399808        92.5135 
 668   0.0000       3.416643        92.9716 
 669   0.0000       3.441053        93.6358 
 670   0.0000       3.443976        93.7154 
 671   0.0000       3.486556        94.8740 
 672   0.0000       3.493830        95.0719 
 673   0.0000       3.508727        95.4773 
 674   0.0000       3.539863        96.3246 
 675   0.0000       3.540444        96.3404 
 676   0.0000       3.558348        96.8276 
 677   0.0000       3.579314        97.3981 
 678   0.0000       3.622907        98.5843 
 679   0.0000       3.645229        99.1917 
 680   0.0000       3.661396        99.6316 
 681   0.0000       3.692106       100.4673 
 682   0.0000       3.752691       102.1159 
 683   0.0000       3.794374       103.2502 
 684   0.0000       3.797608       103.3382 
 685   0.0000       3.889064       105.8268 
 686   0.0000       3.912002       106.4510 
 687   0.0000       3.916501       106.5734 
 688   0.0000       3.928736       106.9063 
 689   0.0000       4.068366       110.7059 
 690   0.0000       4.071526       110.7919 
 691   0.0000       4.075274       110.8938 

                    ********************************
                    * MULLIKEN POPULATION ANALYSIS *
                    ********************************

-----------------------
MULLIKEN ATOMIC CHARGES
-----------------------
   0 C :   -0.051613
   1 C :    0.322247
   2 C :    0.155096
   3 C :    0.009147
   4 C :    0.138383
   5 C :    0.166650
   6 N :   -0.496952
   7 S :    0.658970
   8 N :   -0.542065
   9 O :   -0.579361
  10 O :   -0.602123
  11 C :    0.241609
  12 C :    0.271788
  13 C :   -0.093946
  14 C :   -0.105096
  15 S :    0.200803
  16 C :   -0.203362
  17 C :    0.024165
  18 C :   -0.011763
  19 C :   -0.005500
  20 C :    0.018512
  21 C :   -0.159174
  22 S :    0.265700
  23 C :    0.133889
  24 C :   -0.313099
  25 C :    0.128068
  26 C :   -0.370948
  27 C :    0.603383
  28 N :   -0.571578
  29 C :    0.179577
  30 S :    0.095236
  31 S :    0.134747
  32 C :    0.163143
  33 N :   -0.568549
  34 C :    0.642794
  35 O :   -0.398844
  36 C :    0.181581
  37 S :   -0.230148
  38 S :   -0.229022
  39 C :    0.180945
  40 O :   -0.419233
  41 H :    0.052464
  42 H :    0.041823
  43 H :    0.051465
  44 H :    0.044948
  45 H :    0.040865
  46 H :    0.034201
  47 H :    0.061258
  48 H :    0.062844
  49 H :    0.062093
  50 H :    0.038083
  51 H :    0.082641
  52 H :    0.055519
  53 H :    0.083350
  54 H :    0.059334
  55 H :    0.059301
  56 H :    0.061524
  57 H :    0.061033
  58 H :    0.083197
Sum of atomic charges:   -0.0000000

--------------------------------
MULLIKEN REDUCED ORBITAL CHARGES
--------------------------------
  0 C s       :     3.004821  s :     3.004821
      pz      :     1.069937  p :     2.996041
      px      :     0.918501
      py      :     1.007603
      dz2     :     0.004603  d :     0.050752
      dxz     :     0.006598
      dyz     :     0.008458
      dx2y2   :     0.013623
      dxy     :     0.017469
  1 C s       :     3.049789  s :     3.049789
      pz      :     0.942943  p :     2.541632
      px      :     0.777319
      py      :     0.821370
      dz2     :     0.006784  d :     0.086332
      dxz     :     0.015546
      dyz     :     0.010411
      dx2y2   :     0.027892
      dxy     :     0.025698
  2 C s       :     3.097443  s :     3.097443
      pz      :     1.043388  p :     2.665461
      px      :     0.732067
      py      :     0.890006
      dz2     :     0.006413  d :     0.082000
      dxz     :     0.012641
      dyz     :     0.008236
      dx2y2   :     0.029264
      dxy     :     0.025446
  3 C s       :     3.003946  s :     3.003946
      pz      :     1.009922  p :     2.934624
      px      :     0.921398
      py      :     1.003304
      dz2     :     0.004573  d :     0.052283
      dxz     :     0.007340
      dyz     :     0.008640
      dx2y2   :     0.014319
      dxy     :     0.017411
  4 C s       :     3.015442  s :     3.015442
      pz      :     0.985169  p :     2.773298
      px      :     0.840949
      py      :     0.947181
      dz2     :     0.005571  d :     0.072876
      dxz     :     0.013278
      dyz     :     0.006636
      dx2y2   :     0.026834
      dxy     :     0.020558
  5 C s       :     3.013307  s :     3.013307
      pz      :     0.960800  p :     2.746416
      px      :     0.828083
      py      :     0.957532
      dz2     :     0.005643  d :     0.073627
      dxz     :     0.014448
      dyz     :     0.006744
      dx2y2   :     0.025901
      dxy     :     0.020891
  6 N s       :     3.671313  s :     3.671313
      pz      :     1.204044  p :     3.790078
      px      :     1.078766
      py      :     1.507267
      dz2     :     0.004141  d :     0.035562
      dxz     :     0.006447
      dyz     :     0.005471
      dx2y2   :     0.005172
      dxy     :     0.014331
  7 S s       :     5.785976  s :     5.785976
      pz      :     3.535354  p :     9.335092
      px      :     3.140716
      py      :     2.659022
      dz2     :     0.022134  d :     0.219962
      dxz     :     0.016832
      dyz     :     0.043039
      dx2y2   :     0.046289
      dxy     :     0.091668
  8 N s       :     3.677139  s :     3.677139
      pz      :     1.241618  p :     3.830254
      px      :     1.111922
      py      :     1.476715
      dz2     :     0.004096  d :     0.034672
      dxz     :     0.006288
      dyz     :     0.005095
      dx2y2   :     0.006978
      dxy     :     0.012214
  9 O s       :     3.797061  s :     3.797061
      pz      :     1.730325  p :     4.764412
      px      :     1.337425
      py      :     1.696662
      dz2     :     0.002562  d :     0.017888
      dxz     :     0.003713
      dyz     :     0.002521
      dx2y2   :     0.002062
      dxy     :     0.007028
 10 O s       :     3.820547  s :     3.820547
      pz      :     1.506528  p :     4.763204
      px      :     1.450823
      py      :     1.805853
      dz2     :     0.006937  d :     0.018372
      dxz     :     0.002965
      dyz     :     0.001983
      dx2y2   :     0.002977
      dxy     :     0.003509
 11 C s       :     3.007782  s :     3.007782
      pz      :     0.681363  p :     2.686423
      px      :     0.991819
      py      :     1.013241
      dz2     :     0.017984  d :     0.064186
      dxz     :     0.013116
      dyz     :     0.017610
      dx2y2   :     0.006725
      dxy     :     0.008751
 12 C s       :     3.007370  s :     3.007370
      pz      :     0.883654  p :     2.657114
      px      :     0.775517
      py      :     0.997944
      dz2     :     0.007562  d :     0.063728
      dxz     :     0.019944
      dyz     :     0.011773
      dx2y2   :     0.010295
      dxy     :     0.014156
 13 C s       :     2.949155  s :     2.949155
      pz      :     1.061107  p :     3.090678
      px      :     1.023052
      py      :     1.006519
      dz2     :     0.004671  d :     0.054113
      dxz     :     0.008030
      dyz     :     0.008581
      dx2y2   :     0.017601
      dxy     :     0.015230
 14 C s       :     2.968040  s :     2.968040
      pz      :     1.043029  p :     3.083799
      px      :     1.024009
      py      :     1.016761
      dz2     :     0.005738  d :     0.053257
      dxz     :     0.007761
      dyz     :     0.008464
      dx2y2   :     0.015384
      dxy     :     0.015910
 15 S s       :     5.846447  s :     5.846447
      pz      :     3.679566  p :     9.824202
      px      :     3.228807
      py      :     2.915829
      dz2     :     0.016670  d :     0.128548
      dxz     :     0.011527
      dyz     :     0.019700
      dx2y2   :     0.037679
      dxy     :     0.042971
 16 C s       :     3.021275  s :     3.021275
      pz      :     1.113140  p :     3.129192
      px      :     1.042962
      py      :     0.973090
      dz2     :     0.004565  d :     0.052895
      dxz     :     0.008324
      dyz     :     0.006046
      dx2y2   :     0.016358
      dxy     :     0.017602
 17 C s       :     3.125023  s :     3.125023
      pz      :     0.964421  p :     2.804919
      px      :     0.918800
      py      :     0.921698
      dz2     :     0.003811  d :     0.045893
      dxz     :     0.007330
      dyz     :     0.005474
      dx2y2   :     0.015885
      dxy     :     0.013392
 18 C s       :     3.172216  s :     3.172216
      pz      :     0.991891  p :     2.794748
      px      :     0.910101
      py      :     0.892756
      dz2     :     0.003786  d :     0.044799
      dxz     :     0.004574
      dyz     :     0.007380
      dx2y2   :     0.012984
      dxy     :     0.016075
 19 C s       :     3.164756  s :     3.164756
      pz      :     0.989939  p :     2.795959
      px      :     0.919395
      py      :     0.886624
      dz2     :     0.004181  d :     0.044785
      dxz     :     0.005180
      dyz     :     0.007703
      dx2y2   :     0.013133
      dxy     :     0.014587
 20 C s       :     3.145104  s :     3.145104
      pz      :     0.968145  p :     2.790500
      px      :     0.901745
      py      :     0.920610
      dz2     :     0.004342  d :     0.045884
      dxz     :     0.006646
      dyz     :     0.006976
      dx2y2   :     0.015112
      dxy     :     0.012807
 21 C s       :     3.015063  s :     3.015063
      pz      :     1.100850  p :     3.091228
      px      :     1.002483
      py      :     0.987894
      dz2     :     0.005704  d :     0.052882
      dxz     :     0.007865
      dyz     :     0.006978
      dx2y2   :     0.015451
      dxy     :     0.016884
 22 S s       :     5.883542  s :     5.883542
      pz      :     3.601044  p :     9.711671
      px      :     3.210253
      py      :     2.900374
      dz2     :     0.018449  d :     0.139087
      dxz     :     0.013974
      dyz     :     0.023116
      dx2y2   :     0.024568
      dxy     :     0.058979
 23 C s       :     3.143007  s :     3.143007
      pz      :     0.841626  p :     2.675385
      px      :     0.942859
      py      :     0.890899
      dz2     :     0.003959  d :     0.047719
      dxz     :     0.002570
      dyz     :     0.012492
      dx2y2   :     0.014906
      dxy     :     0.013793
 24 C s       :     3.023146  s :     3.023146
      pz      :     1.181578  p :     3.240692
      px      :     0.988911
      py      :     1.070202
      dz2     :     0.004475  d :     0.049261
      dxz     :     0.005806
      dyz     :     0.006805
      dx2y2   :     0.012214
      dxy     :     0.019961
 25 C s       :     3.131757  s :     3.131757
      pz      :     0.850480  p :     2.691510
      px      :     0.932791
      py      :     0.908239
      dz2     :     0.004870  d :     0.048665
      dxz     :     0.009051
      dyz     :     0.006491
      dx2y2   :     0.012807
      dxy     :     0.015446
 26 C s       :     3.020811  s :     3.020811
      pz      :     1.184465  p :     3.301800
      px      :     1.113098
      py      :     1.004237
      dz2     :     0.004543  d :     0.048338
      dxz     :     0.006531
      dyz     :     0.006765
      dx2y2   :     0.015150
      dxy     :     0.015349
 27 C s       :     2.932591  s :     2.932591
      pz      :     0.701983  p :     2.324100
      px      :     0.827852
      py      :     0.794265
      dz2     :     0.008025  d :     0.139926
      dxz     :     0.030373
      dyz     :     0.012668
      dx2y2   :     0.032081
      dxy     :     0.056780
 28 N s       :     3.499806  s :     3.499806
      pz      :     1.648370  p :     4.039121
      px      :     1.146976
      py      :     1.243775
      dz2     :     0.002781  d :     0.032651
      dxz     :     0.003760
      dyz     :     0.003913
      dx2y2   :     0.012898
      dxy     :     0.009299
 29 C s       :     3.084780  s :     3.084780
      pz      :     0.816984  p :     2.649106
[...]
Average number of points per batch           ...       60
Average number of grid points per atom       ...      584
Average number of shells per batch           ...    93.44 (29.76%)
Average number of basis functions per batch  ...   198.54 (28.69%)
Average number of large shells per batch     ...    59.76 (63.96%)
Average number of large basis fcns per batch ...   128.77 (64.86%)
Maximum spatial batch extension              ...  19.22, 20.22, 22.26 au
Average spatial batch extension              ...   4.03,  3.73,  4.98 au



------------------------
DAVIDSON-DIAGONALIZATION
------------------------

Dimension of the eigenvalue problem            ...  53976
Number of roots to be determined               ...      3
Maximum size of the expansion space            ...     30
Maximum number of iterations                   ...    100
Convergence tolerance for the residual         ...    2.500e-07
Convergence tolerance for the energies         ...    2.500e-07
Orthogonality tolerance                        ...    1.000e-14
Level Shift                                    ...    0.000e+00
Constructing the preconditioner                ... o.k.
Building the initial guess                     ... o.k.
Number of trial vectors determined             ...     30


                       ****Iteration    0****

   Memory handling for direct AO based CIS:
   Memory per vector needed      ...    14 MB
   Memory needed                 ...   131 MB
   Memory available              ...  1000 MB
   Number of vectors per batch   ...    68
   Number of batches             ...     1
   Time for densities:     0.672
   Using LibInt in JK Direct
   Time for J+K (Direct):  1019.423
   Time for Sigma-Completion:     3.480
   Size of expansion space: 9
   Lowest Energy          :     0.124566707300
   Maximum Energy change  :     0.192500919322 (vector 2)
   Maximum residual norm  :     0.014985760461

                       ****Iteration    1****
   Time for densities:     0.217
   Using LibInt in JK Direct
   Time for J+K (Direct):   310.299
   Time for Sigma-Completion:     1.178
   Size of expansion space: 12
   Lowest Energy          :     0.107337823443
   Maximum Energy change  :     0.027654589266 (vector 1)
   Maximum residual norm  :     0.003090741910

                       ****Iteration    2****
   Time for densities:     0.216
   Using LibInt in JK Direct
   Time for J+K (Direct):   307.375
   Time for Sigma-Completion:     1.175
   Size of expansion space: 15
   Lowest Energy          :     0.104544182152
   Maximum Energy change  :     0.008099605119 (vector 1)
   Maximum residual norm  :     0.000567065022

                       ****Iteration    3****
   Time for densities:     0.216
   Using LibInt in JK Direct
   Time for J+K (Direct):   316.576
   Time for Sigma-Completion:     1.150
   Size of expansion space: 18
   Lowest Energy          :     0.104265664487
   Maximum Energy change  :     0.001217023684 (vector 2)
   Maximum residual norm  :     0.000160510639

                       ****Iteration    4****
   Time for densities:     0.215
   Using LibInt in JK Direct
   Time for J+K (Direct):   326.964
   Time for Sigma-Completion:     1.160
   Size of expansion space: 21
   Lowest Energy          :     0.104234131865
   Maximum Energy change  :     0.000391191872 (vector 2)
   Maximum residual norm  :     0.000038305141

                       ****Iteration    5****
   Time for densities:     0.216
   Using LibInt in JK Direct
   Time for J+K (Direct):   327.110
   Time for Sigma-Completion:     1.184
   Size of expansion space: 24
   Lowest Energy          :     0.104231235692
   Maximum Energy change  :     0.000072331738 (vector 2)
   Maximum residual norm  :     0.000007372390

                       ****Iteration    6****
   Time for densities:     0.216
   Using LibInt in JK Direct
   Time for J+K (Direct):   327.812
   Time for Sigma-Completion:     1.173
   Size of expansion space: 27
   Lowest Energy          :     0.104230983506
   Maximum Energy change  :     0.000016712428 (vector 2)
   Maximum residual norm  :     0.000002091619

                       ****Iteration    7****
   Time for densities:     0.217
   Using LibInt in JK Direct
   Time for J+K (Direct):   323.005
   Time for Sigma-Completion:     1.167
   Size of expansion space: 30
   Lowest Energy          :     0.104230960932
   Maximum Energy change  :     0.000006978245 (vector 2)
   Maximum residual norm  :     0.000001060290
   Rebuilding the expansion space

                       ****Iteration    8****
   Time for densities:     0.429
   Using LibInt in JK Direct
   Time for J+K (Direct):   657.155
   Time for Sigma-Completion:     2.321
   Size of expansion space: 6
   Lowest Energy          :     0.104230958166
   Maximum Energy change  :     0.000001790190 (vector 2)
   Maximum residual norm  :     0.000000350975

                       ****Iteration    9****
   Time for densities:     0.215
   Using LibInt in JK Direct
   Time for J+K (Direct):   325.519
   Time for Sigma-Completion:     1.157
   Size of expansion space: 9
   Lowest Energy          :     0.104230957333
   Maximum Energy change  :     0.000001201978 (vector 2)
   Maximum residual norm  :     0.000000280936

                       ****Iteration   10****
   Time for densities:     0.214
   Using LibInt in JK Direct
   Time for J+K (Direct):   290.234
   Time for Sigma-Completion:     1.123
   Size of expansion space: 12
   Lowest Energy          :     0.104230957188
   Maximum Energy change  :     0.000001039031 (vector 2)
   Maximum residual norm  :     0.000000244811

      *** CONVERGENCE OF RESIDUAL NORM REACHED ***

Storing the converged CI vectors               ... BTDT2R.cis1

                 *** DAVIDSON DONE ***

Total time for solving the CIS problem:  4553.193sec

-----------------------------
CIS-EXCITED STATES (SINGLETS)
-----------------------------

the weight of the individual excitations are printed if larger than 1.0e-02

STATE  1:  E=   0.104231 au      2.836 eV    22876.1 cm**-1
   170a -> 173a  :     0.019665 (c= -0.14023115)
   170a -> 175a  :     0.014677 (c=  0.12114993)
   171a -> 174a  :     0.079612 (c= -0.28215511)
   172a -> 173a  :     0.809536 (c= -0.89974227)

STATE  2:  E=   0.143839 au      3.914 eV    31568.9 cm**-1
   163a -> 173a  :     0.010326 (c= -0.10161755)
   164a -> 173a  :     0.010764 (c= -0.10374845)
   166a -> 173a  :     0.010798 (c=  0.10391536)
   170a -> 174a  :     0.017682 (c= -0.13297240)
   171a -> 173a  :     0.386386 (c=  0.62159939)
   171a -> 175a  :     0.074934 (c=  0.27374002)
   172a -> 174a  :     0.350861 (c=  0.59233562)
   172a -> 175a  :     0.010968 (c=  0.10473000)
   172a -> 177a  :     0.010053 (c=  0.10026660)

STATE  3:  E=   0.162613 au      4.425 eV    35689.4 cm**-1
   163a -> 173a  :     0.030763 (c=  0.17539478)
   170a -> 173a  :     0.088141 (c= -0.29688472)
   170a -> 176a  :     0.015026 (c=  0.12258249)
   171a -> 174a  :     0.178741 (c=  0.42277784)
   172a -> 173a  :     0.015316 (c= -0.12375588)
   172a -> 175a  :     0.542122 (c=  0.73628925)


----------------------
CIS-EXCITATION SPECTRA
----------------------

Center of mass = ( -0.4536,  1.5835,  0.4046)
Calculating the Dipole integrals                  ... done
Transforming integrals                            ... done
Calculating the Linear Momentum integrals         ... done
Transforming integrals                            ... done
Calculating angular momentum integrals            ... done
Transforming integrals                            ... done

-----------------------------------------------------------------------------
         ABSORPTION SPECTRUM VIA TRANSITION ELECTRIC DIPOLE MOMENTS
-----------------------------------------------------------------------------
State   Energy    Wavelength  fosc         T2        TX        TY        TZ  
        (cm-1)      (nm)                 (au**2)    (au)      (au)      (au) 
-----------------------------------------------------------------------------
   1   22876.1    437.1   2.065212864  29.72072   0.53126   5.42571   0.01155
   2   31568.9    316.8   0.421143153   4.39183   1.91344  -0.72750  -0.44870
   3   35689.4    280.2   0.516063399   4.76036  -0.99965  -1.92438   0.24043

-----------------------------------------------------------------------------
         ABSORPTION SPECTRUM VIA TRANSITION VELOCITY DIPOLE MOMENTS
-----------------------------------------------------------------------------
State   Energy    Wavelength   fosc        P2         PX        PY        PZ  
        (cm-1)      (nm)                 (au**2)     (au)      (au)      (au) 
-----------------------------------------------------------------------------
   1   22876.1    437.1   1.000983776   0.15650  -0.06921  -0.38948   0.00337
   2   31568.9    316.8   0.123187618   0.02658  -0.13733   0.08392   0.02601
   3   35689.4    280.2   0.467010188   0.11391   0.04847   0.33399  -0.00331

-------------------------------------------------------------------
                             CD SPECTRUM
-------------------------------------------------------------------
State  Energy     Wavelength     R         MX        MY        MZ   
       (cm-1)       (nm)     (1e40*cgs)   (au)      (au)      (au)  
-------------------------------------------------------------------
   1   22876.1    437.1    -30.94276   0.32751  -0.04720   1.42352
   2   31568.9    316.8    -16.07275   0.21227  -0.04714   1.05761
   3   35689.4    280.2     24.19224  -0.21588  -0.00408  -0.71678

Total run time:     4560.467 sec

           *** ORCA-CIS/TD-DFT FINISHED WITHOUT ERROR ***

-----------------------
CIS/TD-DFT TOTAL ENERGY
-----------------------

    E(SCF)  =  -4292.847675131 Eh
    DE(CIS) =      0.104230957 Eh (Root  1)
    ----------------------------- ---------
    E(tot)  =  -4292.743444174 Eh


-------------------------   --------------------
FINAL SINGLE POINT ENERGY     -4292.743444173935
-------------------------   --------------------

------------------------------------------------------------------------------
                         ORCA SCF GRADIENT CALCULATION
------------------------------------------------------------------------------


------------
CIS GRADIENT
------------

Reference wavefunction             ... RHF
State of interest                  ... 1
Basis dimension                    ... 692
DFT-XC contribution needed         ... NO
RI-approximation                   ... OFF
CIS-vectors being read from        ... BTDT2R.cis

 => Number of Vectors found: 3
 => Orbital Window: 69...172 -> 173...691

Reading the CIS file                     ... done
Norm of the CI vector                    ... 1.000000000
Making the CIS (pseudo)densities         ... done
Making operators G(D) and Q(T)           ... done
Transforming the Fock operators          ... done
Making the frozen-core relaxed density   ... done
Constructing the G(H) operator           ... done
Transforming the G(H) operator           ... done
Calculating the CIS Lagrangian           ... done
Solving the Z-vector equations           ... done
Finalizing the relaxed density           ... done
Storing the relaxed density              ... done
Constructing the G(Z) operator           ... done
Transforming the G(Z) operator           ... done
Making the W-matrix                      ... done
Finalizing the W-matrix                  ... done
Transforming the W-matrix                ... done
Nuclear repulsion gradient               ... done
One-Electron gradient                    ... done
Prescreening matrices                    ... done
Two-Electron gradient (4-center)         ... done
                 ---------------------------
                 EXCITED STATE GRADIENT DONE
                 ---------------------------


------------------
CARTESIAN GRADIENT
------------------

   1   C   :   -0.002293179   -0.025962371   -0.000086257
   2   C   :   -0.025892242    0.014255179    0.001026853
   3   C   :   -0.032877502   -0.018199562    0.001955269
   4   C   :   -0.003516010    0.027282010    0.001790968
   5   C   :    0.045230639    0.000504845   -0.003394765
   6   C   :    0.046096677    0.005185889   -0.002301242
   7   N   :   -0.029968628   -0.012292307    0.000839830
   8   S   :    0.002601608   -0.001846459   -0.000402633
   9   N   :   -0.030476097    0.011165276    0.003014263
  10   O   :    0.009077588    0.023874167    0.000951545
  11   O   :    0.026661296   -0.011589820   -0.010444590
  12   C   :   -0.002164529    0.000648014    0.002410597
  13   C   :   -0.002934113   -0.008220589    0.000650575
  14   C   :    0.006760003    0.020556365    0.001827056
  15   C   :    0.007319499   -0.017314813   -0.001573312
  16   S   :    0.002089397   -0.023611061   -0.001722066
  17   C   :   -0.004775335    0.018457651    0.001653056
  18   C   :    0.000352669   -0.000450138   -0.000187698
  19   C   :   -0.010196286   -0.010075134   -0.000368443
  20   C   :   -0.011558175    0.008639545    0.002914601
  21   C   :    0.001409918   -0.000845214   -0.000587857
  22   C   :   -0.003231951   -0.015041866   -0.002072510
  23   S   :   -0.012631696    0.004641987    0.005143941
  24   C   :    0.008567844   -0.018737468   -0.000703679
  25   C   :   -0.002223818    0.015696873    0.000783653
  26   C   :    0.012282844    0.008714786   -0.002756553
  27   C   :   -0.015686376    0.007014746    0.004500618
  28   C   :    0.043109049    0.002854882    0.001084204
  29   N   :   -0.003014940    0.005605214    0.000271375
  30   C   :   -0.000365306   -0.000979604   -0.000086547
  31   S   :   -0.000511004   -0.008688140   -0.000424060
  32   S   :    0.007179293    0.001756149   -0.001797478
  33   C   :    0.000288084    0.001066678   -0.000072937
  34   N   :   -0.006425566    0.002703260    0.001775762
  35   C   :    0.011027913   -0.042909629   -0.006063189
  36   O   :   -0.038343417   -0.005181324   -0.001105563
  37   C   :    0.009976402   -0.006885280   -0.000193751
  38   S   :   -0.005210191    0.002181215    0.000010276
  39   S   :   -0.002791277    0.005106445    0.001059306
  40   C   :    0.008509581   -0.008515961   -0.002701149
  41   O   :    0.005900499    0.049949168    0.001413733
  42   H   :   -0.002396011   -0.001994975    0.001902691
  43   H   :    0.000033415    0.002076686    0.002716947
  44   H   :    0.000428509   -0.000154318   -0.002118545
  45   H   :    0.000368845    0.002453803   -0.000181323
  46   H   :   -0.000230076   -0.002317612   -0.002206027
  47   H   :    0.003610889   -0.002597026    0.002326737
  48   H   :   -0.003556340    0.000670337   -0.000405012
  49   H   :   -0.000572987    0.000048043    0.000079165
  50   H   :   -0.000913453   -0.000052495    0.000465908
  51   H   :   -0.002568711    0.002855417    0.001402098
  52   H   :   -0.000111637   -0.001841269   -0.000170389
  53   H   :   -0.000076107   -0.000843688    0.000139159
  54   H   :   -0.003386910   -0.002309102   -0.000173856
  55   H   :    0.000903556    0.000941798   -0.001944117
  56   H   :    0.000854374    0.000707583    0.002104980
  57   H   :   -0.000265909   -0.001217749    0.002068237
  58   H   :   -0.001097907   -0.000886632   -0.001883248
  59   H   :    0.001623295    0.003947592   -0.000154609

Difference to translation invariance:
           :    0.0000000002   -0.0000000001   -0.0000000000

Norm of the cartesian gradient     ...    0.1558155533
RMS gradient                       ...    0.0117118142
MAX gradient                       ...    0.0499491682

-------
TIMINGS
-------

Total CIS gradient time            ...     4271.388 sec

Fock matrix formation       ....     335.794 sec  (  7.9%)
  Coulomb formation         ....     335.794 sec  (100.0% of F)
Z-vector equation           ....    3454.215 sec  ( 80.9%)
One electron gradient       ....       3.033 sec  (  0.1%)
Prescreening matrices       ....       0.557 sec  (  0.0%)
Two electron gradient       ....     477.056 sec  ( 11.2%)

                            ***************************************
                            *     ORCA property calculations      *
                            ***************************************

                                    ---------------------
                                    Active property flags
                                    ---------------------
   (+) Dipole Moment


------------------------------------------------------------------------------
                       ORCA ELECTRIC PROPERTIES CALCULATION
------------------------------------------------------------------------------

Dipole Moment Calculation                       ... on
Quadrupole Moment Calculation                   ... off
Polarizability Calculation                      ... off
GBWName                                         ... BTDT2R.gbw
Electron density file                           ... BTDT2R.scfp
The origin for moment calculation is the CENTER OF MASS  = (-0.453638,  1.583460  0.404596)

-------------
DIPOLE MOMENT
-------------
                                X             Y             Z
Electronic contribution:    -16.20977      -7.40914      -0.97552
Nuclear contribution   :     18.67940       5.83881       0.74908
                        -----------------------------------------
Total Dipole Moment    :      2.46963      -1.57033      -0.22644
                        -----------------------------------------
Magnitude (a.u.)       :      2.93535
Magnitude (Debye)      :      7.46106



--------------------
Rotational spectrum 
--------------------
 
Rotational constants in cm-1:     0.005295     0.000627     0.000564 
Rotational constants in MHz :   158.741716    18.790646    16.898589 

 Dipole components along the rotational axes: 
x,y,z [a.u.] :     1.265241     2.647281     0.085703 
x,y,z [Debye]:     3.215988     6.728853     0.217839 

 

                        *** CIS RELAXED DENSITY ***

------------------------------------------------------------------------------
                       ORCA ELECTRIC PROPERTIES CALCULATION
------------------------------------------------------------------------------

Dipole Moment Calculation                       ... on
Quadrupole Moment Calculation                   ... off
Polarizability Calculation                      ... off
GBWName                                         ... BTDT2R.gbw
Electron density file                           ... BTDT2R.cisp
The origin for moment calculation is the CENTER OF MASS  = (-0.453638,  1.583460  0.404596)

-------------
DIPOLE MOMENT
-------------
                                X             Y             Z
Electronic contribution:    -15.89869      -7.03050      -0.98063
Nuclear contribution   :     18.67940       5.83881       0.74908
                        -----------------------------------------
Total Dipole Moment    :      2.78070      -1.19169      -0.23155
                        -----------------------------------------
Magnitude (a.u.)       :      3.03415
Magnitude (Debye)      :      7.71219



--------------------
Rotational spectrum 
--------------------
 
Rotational constants in cm-1:     0.005295     0.000627     0.000564 
Rotational constants in MHz :   158.741716    18.790646    16.898589 

 Dipole components along the rotational axes: 
x,y,z [a.u.] :     0.852457     2.909601     0.116617 
x,y,z [Debye]:     2.166774     7.395617     0.296416 

 

Timings for individual modules:

Sum of individual times         ...    10352.107 sec (= 172.535 min)
GTO integral calculation        ...        0.647 sec (=   0.011 min)   0.0 %
SCF iterations                  ...     1517.919 sec (=  25.299 min)  14.7 %
CIS module                      ...     4562.118 sec (=  76.035 min)  44.1 %
SCF Gradient evaluation         ...     4271.424 sec (=  71.190 min)  41.3 %
                             ****ORCA TERMINATED NORMALLY****
TOTAL RUN TIME: 0 days 2 hours 52 minutes 34 seconds 117 msec
