
                                 *****************
                                 * O   R   C   A *
                                 *****************

           --- An Ab Initio, DFT and Semiempirical electronic structure package ---

                  #######################################################
                  #                        -***-                        #
                  #          Department of theory and spectroscopy      #
                  #               Directorship: Frank Neese             #
                  #        Max Planck Institute fuer Kohlenforschung    #
                  #                Kaiser Wilhelm Platz 1               #
                  #                 D-45470 Muelheim/Ruhr               #
                  #                      Germany                        #
                  #                                                     #
                  #                  All rights reserved                #
                  #                        -***-                        #
                  #######################################################


                         Program Version 4.2.0 -  RELEASE  -


 With contributions from (in alphabetic order):
   Daniel Aravena         : Magnetic Suceptibility
   Michael Atanasov       : Ab Initio Ligand Field Theory (pilot matlab implementation)
   Alexander A. Auer      : GIAO ZORA, VPT2
   Ute Becker             : Parallelization
   Giovanni Bistoni       : ED, misc. LED, open-shell LED, HFLED
   Martin Brehm           : Molecular dynamics
   Dmytro Bykov           : SCF Hessian
   Vijay G. Chilkuri      : MRCI spin determinant printing, contributions to CSF-ICE
   Dipayan Datta          : RHF DLPNO-CCSD density
   Achintya Kumar Dutta   : EOM-CC, STEOM-CC
   Dmitry Ganyushin       : Spin-Orbit,Spin-Spin,Magnetic field MRCI
   Miquel Garcia          : C-PCM Hessian, Gaussian charge scheme
   Yang Guo               : DLPNO-NEVPT2, CIM, IAO-localization
   Andreas Hansen         : Spin unrestricted coupled pair/coupled cluster methods
   Benjamin Helmich-Paris : CASSCF linear response (MC-RPA)
   Lee Huntington         : MR-EOM, pCC
   Robert Izsak           : Overlap fitted RIJCOSX, COSX-SCS-MP3, EOM
   Christian Kollmar      : KDIIS, OOCD, Brueckner-CCSD(T), CCSD density
   Simone Kossmann        : Meta GGA functionals, TD-DFT gradient, OOMP2, MP2 Hessian
   Martin Krupicka        : AUTO-CI
   Lucas Lang             : DCDCAS
   Dagmar Lenk            : GEPOL surface, SMD
   Dimitrios Liakos       : Extrapolation schemes; Compound Job, initial MDCI parallelization
   Dimitrios Manganas     : Further ROCIS development; embedding schemes
   Dimitrios Pantazis     : SARC Basis sets
   Taras Petrenko         : DFT Hessian,TD-DFT gradient, ASA, ECA, R-Raman, ABS, FL, XAS/XES, NRVS
   Peter Pinski           : DLPNO-MP2, DLPNO-MP2 Gradient
   Christoph Reimann      : Effective Core Potentials
   Marius Retegan         : Local ZFS, SOC
   Christoph Riplinger    : Optimizer, TS searches, QM/MM, DLPNO-CCSD(T), (RO)-DLPNO pert. Triples
   Tobias Risthaus        : Range-separated hybrids, TD-DFT gradient, RPA, STAB
   Michael Roemelt        : Original ROCIS implementation
   Masaaki Saitow         : Open-shell DLPNO-CCSD energy and density
   Barbara Sandhoefer     : DKH picture change effects
   Avijit Sen             : IP-ROCIS
   Kantharuban Sivalingam : CASSCF convergence, NEVPT2, FIC-MRCI
   Bernardo de Souza      : ESD, SOC TD-DFT
   Georgi Stoychev        : AutoAux, RI-MP2 NMR
   Willem Van den Heuvel  : Paramagnetic NMR
   Boris Wezisla          : Elementary symmetry handling
   Frank Wennmohs         : Technical directorship


 We gratefully acknowledge several colleagues who have allowed us to
 interface, adapt or use parts of their codes:
   Stefan Grimme, W. Hujo, H. Kruse,             : VdW corrections, initial TS optimization,
                  C. Bannwarth                     DFT functionals, gCP, sTDA/sTD-DF
   Ed Valeev, F. Pavosevic, A. Kumar             : LibInt (2-el integral package), F12 methods
   Garnet Chan, S. Sharma, J. Yang, R. Olivares  : DMRG
   Ulf Ekstrom                                   : XCFun DFT Library
   Mihaly Kallay                                 : mrcc  (arbitrary order and MRCC methods)
   Andreas Klamt, Michael Diedenhofen            : otool_cosmo (COSMO solvation model)
   Jiri Pittner, Ondrej Demel                    : Mk-CCSD
   Frank Weinhold                                : gennbo (NPA and NBO analysis)
   Christopher J. Cramer and Donald G. Truhlar   : smd solvation model
   Lars Goerigk                                  : TD-DFT with DH, B97 family of functionals
   V. Asgeirsson, H. Jonsson                     : NEB implementation
   FAccTs GmbH                                   : IRC, NEB, NEB-TS, Multilevel, MM, QM/MM, CI optimization
   S Lehtola, MJT Oliveira, MAL Marques          : LibXC Library


 Your calculation uses the libint2 library for the computation of 2-el integrals
 For citations please refer to: http://libint.valeyev.net

 Your ORCA version has been built with support for libXC version: 4.2.3
 For citations please refer to: https://tddft.org/programs/libxc/

 This ORCA versions uses:
   CBLAS   interface :  Fast vector & matrix operations
   LAPACKE interface :  Fast linear algebra routines
   SCALAPACK package :  Parallel linear algebra routines


----- Orbital basis set information -----
Your calculation utilizes the basis: def2-SVP
   F. Weigend and R. Ahlrichs, Phys. Chem. Chem. Phys. 7, 3297 (2005).

================================================================================
                                        WARNINGS
                       Please study these warnings very carefully!
================================================================================

INFO   : Checking CIS options ...

WARNING: CIS/ROCIS methods need fully converged wavefunctions
  ===> : Setting SCFConvForced true
         You can overwrite this default with %scf ConvForced false 


INFO   : the flag for use of LIBINT has been found!

================================================================================
                                       INPUT FILE
================================================================================
NAME = BTN-4F.inp
|  1> # ORCA input file
|  2> # BTN-4F.out
|  3> ! Engrad Keepdens
|  4> %maxcore 1000
|  5> %tddft
|  6>   nroots 3 
|  7>   # nroots is the number of states to be computed
|  8>   Iroot 1
|  9>   end
| 10> * xyz 0 1
| 11>    C        0.58201        -0.50816         0.07026
| 12>    C        1.33094         0.67444        -0.02338
| 13>    C        2.79271         0.63292        -0.01305
| 14>    C        3.38164        -0.60516         0.17204
| 15>    C        2.64499        -1.81398         0.31162
| 16>    C        1.21909        -1.77036         0.24538
| 17>    N        3.19694        -3.00874         0.48909
| 18>    S        1.86025        -4.03543         0.58295
| 19>    N        0.59417        -2.93359         0.38084
| 20>    N        3.92151         1.52608        -0.13753
| 21>    C        5.11271         0.76843        -0.02893
| 22>    C        4.77600        -0.54996         0.22017
| 23>    C       -0.82319        -0.29359        -0.00469
| 24>    C       -0.94020         1.05869        -0.07294
| 25>    N        0.34019         1.65610        -0.08585
| 26>    N       -2.12617        -0.84360        -0.05968
| 27>    C       -3.08342         0.19449        -0.08985
| 28>    C       -2.33364         1.38529        -0.10676
| 29>    C        6.54091         1.01356        -0.13017
| 30>    C        7.33158        -0.09005         0.11602
| 31>    S        6.24100        -1.39751         0.43817
| 32>    S        7.49867         2.35761        -0.60371
| 33>    C        9.08345         1.40555        -0.49303
| 34>    C        8.75142         0.11498        -0.04160
| 35>    C        0.48557         3.08666        -0.09441
| 36>    C       -4.55690         0.11968        -0.25134
| 37>    C       -5.53120        -0.69131         0.23485
| 38>    C       10.30785         1.81530        -1.24155
| 39>    C       11.65417         1.91873        -0.99377
| 40>    C       -5.28315        -1.95910         1.02498
| 41>    C       -6.34006        -2.90773         0.60739
| 42>    C       -7.31659        -2.23415        -0.13691
| 43>    C       -7.03519        -0.76679        -0.07304
| 44>    C       12.38276         0.96792        -1.99475
| 45>    C       13.23458         0.08606        -1.13490
| 46>    C       13.26613         0.62288         0.16136
| 47>    C       12.75394         1.99436         0.06304
| 48>    C       -6.34670        -4.28634         0.76954
| 49>    C       -7.33746        -5.00516         0.10316
| 50>    C       -8.26909        -4.35768        -0.71342
| 51>    C       -8.26151        -2.96951        -0.84971
| 52>    C       13.72198        -1.17667        -1.41056
| 53>    C       14.10334        -1.95183        -0.31406
| 54>    C       13.98674        -1.46863         1.00062
| 55>    C       13.59150        -0.15686         1.25593
| 56>    O       -4.42176        -2.19731         1.84206
| 57>    C       -8.07607         0.14102        -0.03636
| 58>    C       -7.80643         1.63690        -0.03189
| 59>    C       -9.50634        -0.37340        -0.04702
| 60>    F       -7.36449        -6.34039         0.20851
| 61>    F       -9.17150        -5.07106        -1.40110
| 62>    O       12.24394         0.88423        -3.19483
| 63>    C       13.70330         3.02265         0.06162
| 64>    C       13.25020         4.33089        -0.31552
| 65>    C       15.21654         2.88001         0.07322
| 66>    F       14.20938        -2.29010         2.03584
| 67>    F       14.51897        -3.20884        -0.51907
| 68>    N      -10.69286        -0.80014        -0.05585
| 69>    N       -7.58275         2.87786        -0.02818
| 70>    N       16.47191         2.76168         0.08284
| 71>    N       12.87209         5.37648        -0.62700
| 72>    C        9.62678        -1.08579         0.05593
| 73>    C        3.84108         2.95829        -0.23916
| 74>    C       -2.32625        -2.26499        -0.21084
| 75>    H       -2.76103         2.37748        -0.16273
| 76>    H       -0.50017         3.56169        -0.08672
| 77>    H        1.01126         3.37854        -1.00363
| 78>    H        1.02416         3.38635         0.80570
| 79>    H       -4.91933         0.92587        -0.89194
| 80>    H       10.07470         1.70483        -2.30946
| 81>    H       -5.59081        -4.79895         1.35326
| 82>    H       -8.98053        -2.51980        -1.52800
| 83>    H       13.74187        -1.58307        -2.41446
| 84>    H       13.47299         0.18968         2.27729
| 85>    H       10.68346        -0.82313         0.06126
| 86>    H        9.44831        -1.75418        -0.79468
| 87>    H        9.42354        -1.64296         0.97675
| 88>    H        4.83301         3.40560        -0.25162
| 89>    H        3.30318         3.33231         0.63519
| 90>    H        3.31388         3.21356        -1.16021
| 91>    H       -1.61017        -2.65248        -0.93965
| 92>    H       -3.32074        -2.47165        -0.60445
| 93>    H       -2.18101        -2.74432         0.76055
| 94> *
| 95> 
| 96>                          ****END OF INPUT****
================================================================================

                     *******************************
                     * Energy+Gradient Calculation *
                     *******************************

---------------------------------
CARTESIAN COORDINATES (ANGSTROEM)
---------------------------------
  C      0.582010   -0.508160    0.070260
  C      1.330940    0.674440   -0.023380
  C      2.792710    0.632920   -0.013050
  C      3.381640   -0.605160    0.172040
  C      2.644990   -1.813980    0.311620
  C      1.219090   -1.770360    0.245380
  N      3.196940   -3.008740    0.489090
  S      1.860250   -4.035430    0.582950
  N      0.594170   -2.933590    0.380840
  N      3.921510    1.526080   -0.137530
  C      5.112710    0.768430   -0.028930
  C      4.776000   -0.549960    0.220170
  C     -0.823190   -0.293590   -0.004690
  C     -0.940200    1.058690   -0.072940
  N      0.340190    1.656100   -0.085850
  N     -2.126170   -0.843600   -0.059680
  C     -3.083420    0.194490   -0.089850
  C     -2.333640    1.385290   -0.106760
  C      6.540910    1.013560   -0.130170
  C      7.331580   -0.090050    0.116020
  S      6.241000   -1.397510    0.438170
  S      7.498670    2.357610   -0.603710
  C      9.083450    1.405550   -0.493030
  C      8.751420    0.114980   -0.041600
  C      0.485570    3.086660   -0.094410
  C     -4.556900    0.119680   -0.251340
  C     -5.531200   -0.691310    0.234850
  C     10.307850    1.815300   -1.241550
  C     11.654170    1.918730   -0.993770
  C     -5.283150   -1.959100    1.024980
  C     -6.340060   -2.907730    0.607390
  C     -7.316590   -2.234150   -0.136910
  C     -7.035190   -0.766790   -0.073040
  C     12.382760    0.967920   -1.994750
  C     13.234580    0.086060   -1.134900
  C     13.266130    0.622880    0.161360
  C     12.753940    1.994360    0.063040
  C     -6.346700   -4.286340    0.769540
  C     -7.337460   -5.005160    0.103160
  C     -8.269090   -4.357680   -0.713420
  C     -8.261510   -2.969510   -0.849710
  C     13.721980   -1.176670   -1.410560
  C     14.103340   -1.951830   -0.314060
  C     13.986740   -1.468630    1.000620
  C     13.591500   -0.156860    1.255930
  O     -4.421760   -2.197310    1.842060
  C     -8.076070    0.141020   -0.036360
  C     -7.806430    1.636900   -0.031890
  C     -9.506340   -0.373400   -0.047020
  F     -7.364490   -6.340390    0.208510
  F     -9.171500   -5.071060   -1.401100
  O     12.243940    0.884230   -3.194830
  C     13.703300    3.022650    0.061620
  C     13.250200    4.330890   -0.315520
  C     15.216540    2.880010    0.073220
  F     14.209380   -2.290100    2.035840
  F     14.518970   -3.208840   -0.519070
  N    -10.692860   -0.800140   -0.055850
  N     -7.582750    2.877860   -0.028180
  N     16.471910    2.761680    0.082840
  N     12.872090    5.376480   -0.627000
  C      9.626780   -1.085790    0.055930
  C      3.841080    2.958290   -0.239160
  C     -2.326250   -2.264990   -0.210840
  H     -2.761030    2.377480   -0.162730
  H     -0.500170    3.561690   -0.086720
  H      1.011260    3.378540   -1.003630
  H      1.024160    3.386350    0.805700
  H     -4.919330    0.925870   -0.891940
  H     10.074700    1.704830   -2.309460
  H     -5.590810   -4.798950    1.353260
  H     -8.980530   -2.519800   -1.528000
  H     13.741870   -1.583070   -2.414460
  H     13.472990    0.189680    2.277290
  H     10.683460   -0.823130    0.061260
  H      9.448310   -1.754180   -0.794680
  H      9.423540   -1.642960    0.976750
  H      4.833010    3.405600   -0.251620
  H      3.303180    3.332310    0.635190
  H      3.313880    3.213560   -1.160210
  H     -1.610170   -2.652480   -0.939650
  H     -3.320740   -2.471650   -0.604450
  H     -2.181010   -2.744320    0.760550

----------------------------
CARTESIAN COORDINATES (A.U.)
----------------------------
  NO LB      ZA    FRAG     MASS         X           Y           Z
   0 C     6.0000    0    12.011    1.099840   -0.960283    0.132772
   1 C     6.0000    0    12.011    2.515112    1.274507   -0.044182
   2 C     6.0000    0    12.011    5.277457    1.196045   -0.024661
   3 C     6.0000    0    12.011    6.390373   -1.143587    0.325108
   4 C     6.0000    0    12.011    4.998307   -3.427925    0.588876
   5 C     6.0000    0    12.011    2.303746   -3.345496    0.463701
   6 N     7.0000    0    14.007    6.041341   -5.685695    0.924246
   7 S    16.0000    0    32.060    3.515363   -7.625858    1.101616
   8 N     7.0000    0    14.007    1.122819   -5.543682    0.719683
   9 N     7.0000    0    14.007    7.410580    2.883873   -0.259894
  10 C     6.0000    0    12.011    9.661622    1.452122   -0.054670
  11 C     6.0000    0    12.011    9.025332   -1.039274    0.416061
  12 C     6.0000    0    12.011   -1.555604   -0.554805   -0.008863
  13 C     6.0000    0    12.011   -1.776721    2.000634   -0.137837
  14 N     7.0000    0    14.007    0.642866    3.129575   -0.162233
  15 N     7.0000    0    14.007   -4.017879   -1.594173   -0.112779
  16 C     6.0000    0    12.011   -5.826819    0.367533   -0.169792
  17 C     6.0000    0    12.011   -4.409940    2.617819   -0.201747
  18 C     6.0000    0    12.011   12.360529    1.915351   -0.245986
  19 C     6.0000    0    12.011   13.854678   -0.170170    0.219246
  20 S    16.0000    0    32.060   11.793781   -2.640911    0.828021
  21 S    16.0000    0    32.060   14.170433    4.455237   -1.140847
  22 C     6.0000    0    12.011   17.165233    2.656105   -0.931692
  23 C     6.0000    0    12.011   16.537787    0.217281   -0.078613
  24 C     6.0000    0    12.011    0.917594    5.832942   -0.178409
  25 C     6.0000    0    12.011   -8.611293    0.226162   -0.474964
  26 C     6.0000    0    12.011  -10.452453   -1.306387    0.443802
  27 C     6.0000    0    12.011   19.479014    3.430420   -2.346189
  28 C     6.0000    0    12.011   22.023190    3.625874   -1.877953
  29 C     6.0000    0    12.011   -9.983707   -3.702162    1.936931
  30 C     6.0000    0    12.011  -11.980977   -5.494813    1.147801
  31 C     6.0000    0    12.011  -13.826351   -4.221932   -0.258722
  32 C     6.0000    0    12.011  -13.294582   -1.449023   -0.138026
  33 C     6.0000    0    12.011   23.400025    1.829104   -3.769531
  34 C     6.0000    0    12.011   25.009732    0.162630   -2.144650
  35 C     6.0000    0    12.011   25.069353    1.177073    0.304926
  36 C     6.0000    0    12.011   24.101454    3.768794    0.119128
  37 C     6.0000    0    12.011  -11.993525   -8.100009    1.454220
  38 C     6.0000    0    12.011  -13.865790   -9.458382    0.194944
  39 C     6.0000    0    12.011  -15.626315   -8.234822   -1.348168
  40 C     6.0000    0    12.011  -15.611991   -5.611561   -1.605719
  41 C     6.0000    0    12.011   25.930784   -2.223584   -2.665572
  42 C     6.0000    0    12.011   26.651450   -3.688424   -0.593487
  43 C     6.0000    0    12.011   26.431108   -2.775308    1.890898
  44 C     6.0000    0    12.011   25.684213   -0.296422    2.373364
  45 O     8.0000    0    15.999   -8.355915   -4.152314    3.480989
  46 C     6.0000    0    12.011  -15.261561    0.266489   -0.068710
  47 C     6.0000    0    12.011  -14.752015    3.093293   -0.060263
  48 C     6.0000    0    12.011  -17.964379   -0.705624   -0.088855
  49 F     9.0000    0    18.998  -13.916869  -11.981601    0.394027
  50 F     9.0000    0    18.998  -17.331623   -9.582915   -2.647695
  51 O     8.0000    0    15.999   23.137693    1.670953   -6.037354
  52 C     6.0000    0    12.011   25.895484    5.711981    0.116445
  53 C     6.0000    0    12.011   25.039249    8.184196   -0.596246
  54 C     6.0000    0    12.011   28.755093    5.442430    0.138366
  55 F     9.0000    0    18.998   26.851837   -4.327662    3.847180
  56 F     9.0000    0    18.998   27.436877   -6.063829   -0.980900
  57 N     7.0000    0    14.007  -20.206577   -1.512045   -0.105541
  58 N     7.0000    0    14.007  -14.329321    5.438367   -0.053252
  59 N     7.0000    0    14.007   31.127399    5.218819    0.156545
  60 N     7.0000    0    14.007   24.324725   10.160075   -1.184858
  61 C     6.0000    0    12.011   18.191978   -2.051846    0.105692
  62 C     6.0000    0    12.011    7.258589    5.590358   -0.451947
  63 C     6.0000    0    12.011   -4.395975   -4.280211   -0.398430
  64 H     1.0000    0     1.008   -5.217591    4.492786   -0.307515
  65 H     1.0000    0     1.008   -0.945184    6.730619   -0.163877
  66 H     1.0000    0     1.008    1.911004    6.384515   -1.896586
  67 H     1.0000    0     1.008    1.935382    6.399274    1.522552
  68 H     1.0000    0     1.008   -9.296186    1.749641   -1.685522
  69 H     1.0000    0     1.008   19.038424    3.221662   -4.364247
  70 H     1.0000    0     1.008  -10.565100   -9.068701    2.557291
  71 H     1.0000    0     1.008  -16.970742   -4.761732   -2.887502
  72 H     1.0000    0     1.008   25.968371   -2.991569   -4.562668
  73 H     1.0000    0     1.008   25.460261    0.358443    4.303454
  74 H     1.0000    0     1.008   20.188814   -1.555490    0.115765
  75 H     1.0000    0     1.008   17.854718   -3.314920   -1.501728
  76 H     1.0000    0     1.008   17.807910   -3.104744    1.845790
  77 H     1.0000    0     1.008    9.133065    6.435651   -0.475493
  78 H     1.0000    0     1.008    6.242106    6.297153    1.200335
  79 H     1.0000    0     1.008    6.262326    6.072748   -2.192479
  80 H     1.0000    0     1.008   -3.042780   -5.012461   -1.775681
  81 H     1.0000    0     1.008   -6.275289   -4.670742   -1.142245
  82 H     1.0000    0     1.008   -4.121512   -5.186013    1.437231

--------------------------------
INTERNAL COORDINATES (ANGSTROEM)
--------------------------------
 C      0   0   0     0.000000000000     0.00000000     0.00000000
 C      1   0   0     1.402928135900     0.00000000     0.00000000
 C      2   1   0     1.462396031245   120.61059666     0.00000000
 C      3   2   1     1.383451820412   116.86354895   356.27000834
 C      4   3   2     1.422456182559   123.58589442     1.78841205
 C      1   2   3     1.424670762246   121.08483362     3.20193970
 N      5   4   3     1.328004465730   124.22331746   179.96742301
 S      7   5   4     1.688088330568   103.03217805   180.09459729
 N      6   1   2     1.327395363447   125.33859073   178.03013004
 N      3   2   1     1.444790467853   139.71123156   176.54926593
 C     10   3   2     1.415904277308   108.65660325   180.14548234
 C     11  10   3     1.383320868851   108.60345260   357.25126467
 C      1   2   3     1.423462267642   113.35365415   182.21443432
 C     13   1   2     1.359047681651   103.74635730   356.74373641
 N      2   1   3     1.396117623626   102.52482173   180.95910175
 N     13   1   2     1.415376904079   148.45696555   175.17636806
 C     16  13   1     1.412398187304   109.82479810   178.35644985
 C     17  16  13     1.407288398481   105.13429750     2.30814207
 C     11  10   3     1.452616086411   137.01354208   176.06505411
 C     19  11  10     1.379754904720   114.58271460   177.60206807
 S     12  11  10     1.706484691552   106.70195847   183.44321432
 S     19  11  10     1.716978378344   134.40782577   352.24320636
 C     22  19  11     1.852078819705    93.34979145   185.80887376
 C     23  22  19     1.406983969596   106.78387094   357.75425856
 C     15   2   1     1.437953591602   128.90565971   175.01411793
 C     17  16  13     1.484189632965   129.65289804   174.82333855
 C     26  17  16     1.357698783309   134.71474567    41.57542257
 C     23  22  19     1.492425077818   122.06621269   157.19626523
 C     28  23  22     1.372832923447   137.28418364   137.10389185
 C     27  26  17     1.514307004375   124.70745757   351.52811958
 C     30  27  26     1.480317206919   105.80500499   216.10859557
 C     31  30  27     1.400465403821   109.84963755   348.44297642
 C     32  31  30     1.495463375178   108.54342295   352.04262908
 C     29  28  23     1.561039398798   107.22334706   119.56885367
 C     34  29  28     1.497536775675   104.83186993   234.10905914
 C     35  34  29     1.403374897346   108.53492663   347.89271225
 C     36  35  34     1.467297791486   106.72632614   345.46057695
 C     31  30  27     1.388129044506   127.36551578   161.76671564
 C     38  31  30     1.393689303396   117.37283583   190.52372519
 C     39  38  31     1.397843948265   120.94429834     1.11573568
 C     32  31  30     1.393453255764   119.39884110   167.47430778
 C     35  34  29     1.381316129096   128.64120245   155.96906490
 C     42  35  34     1.395930057417   116.56853774   200.55391069
 C     43  42  35     1.405511046702   121.41041439     0.37970168
 C     36  35  34     1.382730483283   121.38336646   158.85018594
 O     30  27  26     1.210932063577   129.29283144    36.42516539
 C     33  32  31     1.381627877867   120.27050096   215.46239535
 C     47  33  32     1.519994304233   120.86837214   182.65980970
 C     47  33  32     1.520004554237   119.10028972     0.63951926
 F     39  38  31     1.339652341580   119.39368800   178.59862023
 F     40  39  38     1.340208422187   120.12925168   176.54012914
 O     34  29  28     1.210977710323   128.61219989    49.84688758
 C     37  36  35     1.399523758319   116.74627504   258.81834580
 C     53  37  36     1.434930690730   117.12552769   167.12898188
 C     53  37  36     1.519992114190   127.32776309     3.67966898
 F     44  43  42     1.340172369100   119.86926407   172.04757487
 F     43  42  35     1.339720693690   119.04993712   176.64005375
 N     49  47  33     1.260957852944   179.99922664   130.73233214
 N     48  47  33     1.260963214412   179.99957345   189.12677830
 N     55  53  37     1.260971201178   179.99980442   131.35212048
 N     54  53  37     1.154662466091   179.14438297   339.06824929
 C     24  23  22     1.489166150367   128.45622338   171.66597109
 C     10   3   2     1.438062281648   125.31487467     5.01623049
 C     16  13   1     1.443340183082   120.95535465   352.18205631
 H     18  17  16     1.081774398431   124.48715845   177.95645996
 H     25  15   2     1.094255904531   109.92334009   183.57262651
 H     25  15   2     1.090057300742   108.66967724    64.47491153
 H     25  15   2     1.090913056252   108.56046344   302.28413563
 H     26  17  16     1.091634637138   110.86928198   219.76162566
 H     28  23  22     1.098632928462   106.60713232   294.72959209
 H     38  31  30     1.083913161928   121.95501013     7.88850846
 H     41  32  31     1.085958640373   123.36360435   186.58300248
 H     42  35  34     1.083222868158   122.30298194    16.05048708
 H     45  36  35     1.085039557482   122.63863943   189.84282803
 H     62  24  23     1.088848615235   112.10237179    19.78305568
 H     62  24  23     1.096418763566   110.18547911   259.48980147
 H     62  24  23     1.095287349922   110.86502001   139.76840917
 H     63  10   3     1.088194198018   111.05179436   175.95148664
 H     63  10   3     1.092572786088   108.17472418    56.99703045
 H     63  10   3     1.091529072174   108.63632320   296.48416762
 H     64  16  13     1.092741086717   109.16078789   318.68017220
 H     64  16  13     1.089333533772   110.56212215   201.40747413
 H     64  16  13     1.092909163014   108.68743338    79.26987251

---------------------------
INTERNAL COORDINATES (A.U.)
---------------------------
 C      0   0   0     0.000000000000     0.00000000     0.00000000
 C      1   0   0     2.651149962424     0.00000000     0.00000000
 C      2   1   0     2.763527998386   120.61059666     0.00000000
 C      3   2   1     2.614345060053   116.86354895   356.27000834
 C      4   3   2     2.688052622539   123.58589442     1.78841205
 C      1   2   3     2.692237571651   121.08483362     3.20193970
 N      5   4   3     2.509564744855   124.22331746   179.96742301
 S      7   5   4     3.190024634642   103.03217805   180.09459729
 N      6   1   2     2.508413708351   125.33859073   178.03013004
 N      3   2   1     2.730258305143   139.71123156   176.54926593
 C     10   3   2     2.675671315960   108.65660325   180.14548234
 C     11  10   3     2.614097597467   108.60345260   357.25126467
 C      1   2   3     2.689953847814   113.35365415   182.21443432
 C     13   1   2     2.568227921260   103.74635730   356.74373641
 N      2   1   3     2.638279959395   102.52482173   180.95910175
 N     13   1   2     2.674674724986   148.45696555   175.17636806
 C     16  13   1     2.669045766052   109.82479810   178.35644985
 C     17  16  13     2.659389664574   105.13429750     2.30814207
 C     11  10   3     2.745046581045   137.01354208   176.06505411
 C     19  11  10     2.607358901856   114.58271460   177.60206807
 S     12  11  10     3.224788718762   106.70195847   183.44321432
 S     19  11  10     3.244618912934   134.40782577   352.24320636
 C     22  19  11     3.499921747679    93.34979145   185.80887376
 C     23  22  19     2.658814377354   106.78387094   357.75425856
 C     15   2   1     2.717338481416   128.90565971   175.01411793
 C     17  16  13     2.804711937108   129.65289804   174.82333855
 C     26  17  16     2.565678872813   134.71474567    41.57542257
 C     23  22  19     2.820274672472   122.06621269   157.19626523
 C     28  23  22     2.594278252945   137.28418364   137.10389185
 C     27  26  17     2.861625520948   124.70745757   351.52811958
 C     30  27  26     2.797394112408   105.80500499   216.10859557
 C     31  30  27     2.646496073253   109.84963755   348.44297642
 C     32  31  30     2.826016222397   108.54342295   352.04262908
 C     29  28  23     2.949936947990   107.22334706   119.56885367
 C     34  29  28     2.829934381502   104.83186993   234.10905914
 C     35  34  29     2.651994219203   108.53492663   347.89271225
 C     36  35  34     2.772790982816   106.72632614   345.46057695
 C     31  30  27     2.623183732657   127.36551578   161.76671564
 C     38  31  30     2.633691099194   117.37283583   190.52372519
 C     39  38  31     2.641542240179   120.94429834     1.11573568
 C     32  31  30     2.633245033815   119.39884110   167.47430778
 C     35  34  29     2.610309188359   128.64120245   155.96906490
 C     42  35  34     2.637925510627   116.56853774   200.55391069
 C     43  42  35     2.656030956467   121.41041439     0.37970168
 C     36  35  34     2.612981930429   121.38336646   158.85018594
 O     30  27  26     2.288329966946   129.29283144    36.42516539
 C     33  32  31     2.610898308160   120.27050096   215.46239535
 C     47  33  32     2.872372960120   120.86837214   182.65980970
 C     47  33  32     2.872392329820   119.10028972     0.63951926
 F     39  38  31     2.531576040252   119.39368800   178.59862023
 F     40  39  38     2.532626880307   120.12925168   176.54012914
 O     34  29  28     2.288416226794   128.61219989    49.84688758
 C     37  36  35     2.644716621140   116.74627504   258.81834580
 C     53  37  36     2.711626026639   117.12552769   167.12898188
 C     53  37  36     2.872368821539   127.32776309     3.67966898
 F     44  43  42     2.532558749848   119.86926407   172.04757487
 F     43  42  35     2.531705207020   119.04993712   176.64005375
 N     49  47  33     2.382865008481   179.99922664   130.73233214
 N     48  47  33     2.382875140188   179.99957345   189.12677830
 N     55  53  37     2.382890232988   179.99980442   131.35212048
 N     54  53  37     2.181995838031   179.14438297   339.06824929
 C     24  23  22     2.814116192100   128.45622338   171.66597109
 C     10   3   2     2.717543875838   125.31487467     5.01623049
 C     16  13   1     2.727517664109   120.95535465   352.18205631
 H     18  17  16     2.044257351721   124.48715845   177.95645996
 H     25  15   2     2.067843979989   109.92334009   183.57262651
 H     25  15   2     2.059909768683   108.66967724    64.47491153
 H     25  15   2     2.061526912234   108.56046344   302.28413563
 H     26  17  16     2.062890502494   110.86928198   219.76162566
 H     28  23  22     2.076115356500   106.60713232   294.72959209
 H     38  31  30     2.048299028996   121.95501013     7.88850846
 H     41  32  31     2.052164423070   123.36360435   186.58300248
 H     42  35  34     2.046994562819   122.30298194    16.05048708
 H     45  36  35     2.050427608111   122.63863943   189.84282803
 H     62  24  23     2.057625684094   112.10237179    19.78305568
 H     62  24  23     2.071931191233   110.18547911   259.48980147
 H     62  24  23     2.069793129302   110.86502001   139.76840917
 H     63  10   3     2.056389014776   111.05179436   175.95148664
 H     63  10   3     2.064663347082   108.17472418    56.99703045
 H     63  10   3     2.062691013621   108.63632320   296.48416762
 H     64  16  13     2.064981389179   109.16078789   318.68017220
 H     64  16  13     2.058542047326   110.56212215   201.40747413
 H     64  16  13     2.065299007350   108.68743338    79.26987251

---------------------
BASIS SET INFORMATION
---------------------
There are 6 groups of distinct atoms

 Group   1 Type C   : 7s4p1d contracted to 3s2p1d pattern {511/31/1}
 Group   2 Type N   : 7s4p1d contracted to 3s2p1d pattern {511/31/1}
 Group   3 Type S   : 10s7p1d contracted to 4s3p1d pattern {5311/511/1}
 Group   4 Type O   : 7s4p1d contracted to 3s2p1d pattern {511/31/1}
 Group   5 Type F   : 7s4p1d contracted to 3s2p1d pattern {511/31/1}
 Group   6 Type H   : 4s1p contracted to 2s1p pattern {31/1}

Atom   0C    basis set group =>   1
Atom   1C    basis set group =>   1
Atom   2C    basis set group =>   1
Atom   3C    basis set group =>   1
Atom   4C    basis set group =>   1
Atom   5C    basis set group =>   1
Atom   6N    basis set group =>   2
Atom   7S    basis set group =>   3
Atom   8N    basis set group =>   2
Atom   9N    basis set group =>   2
Atom  10C    basis set group =>   1
Atom  11C    basis set group =>   1
Atom  12C    basis set group =>   1
Atom  13C    basis set group =>   1
Atom  14N    basis set group =>   2
Atom  15N    basis set group =>   2
Atom  16C    basis set group =>   1
Atom  17C    basis set group =>   1
Atom  18C    basis set group =>   1
Atom  19C    basis set group =>   1
Atom  20S    basis set group =>   3
Atom  21S    basis set group =>   3
Atom  22C    basis set group =>   1
Atom  23C    basis set group =>   1
Atom  24C    basis set group =>   1
Atom  25C    basis set group =>   1
Atom  26C    basis set group =>   1
Atom  27C    basis set group =>   1
Atom  28C    basis set group =>   1
Atom  29C    basis set group =>   1
Atom  30C    basis set group =>   1
Atom  31C    basis set group =>   1
Atom  32C    basis set group =>   1
Atom  33C    basis set group =>   1
Atom  34C    basis set group =>   1
Atom  35C    basis set group =>   1
Atom  36C    basis set group =>   1
Atom  37C    basis set group =>   1
Atom  38C    basis set group =>   1
Atom  39C    basis set group =>   1
Atom  40C    basis set group =>   1
Atom  41C    basis set group =>   1
Atom  42C    basis set group =>   1
Atom  43C    basis set group =>   1
Atom  44C    basis set group =>   1
Atom  45O    basis set group =>   4
Atom  46C    basis set group =>   1
Atom  47C    basis set group =>   1
Atom  48C    basis set group =>   1
Atom  49F    basis set group =>   5
Atom  50F    basis set group =>   5
Atom  51O    basis set group =>   4
Atom  52C    basis set group =>   1
Atom  53C    basis set group =>   1
Atom  54C    basis set group =>   1
Atom  55F    basis set group =>   5
Atom  56F    basis set group =>   5
Atom  57N    basis set group =>   2
Atom  58N    basis set group =>   2
Atom  59N    basis set group =>   2
Atom  60N    basis set group =>   2
Atom  61C    basis set group =>   1
Atom  62C    basis set group =>   1
Atom  63C    basis set group =>   1
Atom  64H    basis set group =>   6
Atom  65H    basis set group =>   6
Atom  66H    basis set group =>   6
Atom  67H    basis set group =>   6
Atom  68H    basis set group =>   6
Atom  69H    basis set group =>   6
Atom  70H    basis set group =>   6
Atom  71H    basis set group =>   6
Atom  72H    basis set group =>   6
Atom  73H    basis set group =>   6
Atom  74H    basis set group =>   6
Atom  75H    basis set group =>   6
Atom  76H    basis set group =>   6
Atom  77H    basis set group =>   6
Atom  78H    basis set group =>   6
Atom  79H    basis set group =>   6
Atom  80H    basis set group =>   6
Atom  81H    basis set group =>   6
Atom  82H    basis set group =>   6
------------------------------------------------------------------------------
                           ORCA GTO INTEGRAL CALCULATION
------------------------------------------------------------------------------

                         BASIS SET STATISTICS AND STARTUP INFO

 # of primitive gaussian shells          ...  881
 # of primitive gaussian functions       ... 1705
 # of contracted shells                  ...  447
 # of contracted basis functions         ... 1003
 Highest angular momentum                ...    2
 Maximum contraction depth               ...    5
 Integral package used                   ... LIBINT
 Integral threshhold            Thresh   ...  2.500e-11
 Primitive cut-off              TCut     ...  2.500e-12


------------------------------ INTEGRAL EVALUATION ----------------------------


 * One electron integrals 
 Pre-screening matrix                    ... done
 Shell pair data                         ... done (   0.013 sec)

-------------------------------------------------------------------------------
                                 ORCA SCF
-------------------------------------------------------------------------------

------------
SCF SETTINGS
------------
Hamiltonian:
 Ab initio Hamiltonian  Method          .... Hartree-Fock(GTOs)


General Settings:
 Integral files         IntName         .... BTN-4F
 Hartree-Fock type      HFTyp           .... RHF
 Total Charge           Charge          ....    0
 Multiplicity           Mult            ....    1
 Number of Electrons    NEL             ....  458
 Basis Dimension        Dim             .... 1003
 Nuclear Repulsion      ENuc            ....   8526.9108235551 Eh

Convergence Acceleration:
 DIIS                   CNVDIIS         .... on
   Start iteration      DIISMaxIt       ....    12
   Startup error        DIISStart       ....  0.200000
   # of expansion vecs  DIISMaxEq       ....     5
   Bias factor          DIISBfac        ....   1.050
   Max. coefficient     DIISMaxC        ....  10.000
 Newton-Raphson         CNVNR           .... off
 SOSCF                  CNVSOSCF        .... on
   Start iteration      SOSCFMaxIt      ....   150
   Startup grad/error   SOSCFStart      ....  0.003300
 Level Shifting         CNVShift        .... on
   Level shift para.    LevelShift      ....    0.2500
   Turn off err/grad.   ShiftErr        ....    0.0010
 Zerner damping         CNVZerner       .... off
 Static damping         CNVDamp         .... on
   Fraction old density DampFac         ....    0.7000
   Max. Damping (<1)    DampMax         ....    0.9800
   Min. Damping (>=0)   DampMin         ....    0.0000
   Turn off err/grad.   DampErr         ....    0.1000
 Fernandez-Rico         CNVRico         .... off

SCF Procedure:
 Maximum # iterations   MaxIter         ....   125
 SCF integral mode      SCFMode         .... Direct
   Integral package                     .... LIBINT
 Reset frequency        DirectResetFreq ....    20
 Integral Threshold     Thresh          ....  2.500e-11 Eh
 Primitive CutOff       TCut            ....  2.500e-12 Eh

Convergence Tolerance:
 Convergence Check Mode ConvCheckMode   .... Total+1el-Energy
 Convergence forced     ConvForced      .... 1
 Energy Change          TolE            ....  1.000e-08 Eh
 1-El. energy change                    ....  1.000e-05 Eh
 Orbital Gradient       TolG            ....  1.000e-05
 Orbital Rotation angle TolX            ....  1.000e-05
 DIIS Error             TolErr          ....  5.000e-07


Diagonalization of the overlap matrix:
Smallest eigenvalue                        ... 7.344e-05
Time for diagonalization                   ...    0.253 sec
Threshold for overlap eigenvalues          ... 1.000e-08
Number of eigenvalues below threshold      ... 0
Time for construction of square roots      ...    0.090 sec
Total time needed                          ...    0.346 sec

-------------------
DFT GRID GENERATION
-------------------

General Integration Accuracy     IntAcc      ...  4.340
Radial Grid Type                 RadialGrid  ... Gauss-Chebyshev
Angular Grid (max. acc.)         AngularGrid ... Lebedev-110
Angular grid pruning method      GridPruning ... 3 (G Style)
Weight generation scheme         WeightScheme... Becke
Basis function cutoff            BFCut       ...    1.0000e-11
Integration weight cutoff        WCut        ...    1.0000e-14
Grids for H and He will be reduced by one unit

# of grid points (after initial pruning)     ... 122390 (   0.1 sec)
# of grid points (after weights+screening)   ... 108191 (   2.6 sec)
nearest neighbour list constructed           ...    0.0 sec
Grid point re-assignment to atoms done       ...    0.0 sec
Grid point division into batches done        ...    0.1 sec
Reduced shell lists constructed in    1.6 sec

Total number of grid points                  ...   108191
Total number of batches                      ...     1729
Average number of points per batch           ...       62
Average number of grid points per atom       ...     1304
Average number of shells per batch           ...    98.87 (22.12%)
Average number of basis functions per batch  ...   209.74 (20.91%)
Average number of large shells per batch     ...    61.43 (62.14%)
Average number of large basis fcns per batch ...   131.63 (62.76%)
Maximum spatial batch extension              ...  20.25, 20.64, 21.27 au
Average spatial batch extension              ...   3.02,  3.35,  3.75 au

Time for grid setup =    4.345 sec

------------------------------
INITIAL GUESS: MODEL POTENTIAL
------------------------------
Loading Hartree-Fock densities                     ... done
Calculating cut-offs                               ... done
Setting up the integral package                    ... done
Initializing the effective Hamiltonian             ... done
Starting the Coulomb interaction                   ... done (   5.6 sec)
Reading the grid                                   ... done
Mapping shells                                     ... done
Starting the XC term evaluation                    ... done (   1.4 sec)
Transforming the Hamiltonian                       ... done (   0.1 sec)
Diagonalizing the Hamiltonian                      ... done (   0.2 sec)
Back transforming the eigenvectors                 ... done (   0.0 sec)
Now organizing SCF variables                       ... done
                      ------------------
                      INITIAL GUESS DONE (  11.9 sec)
                      ------------------
--------------
SCF ITERATIONS
--------------
ITER       Energy         Delta-E        Max-DP      RMS-DP      [F,P]     Damp
               ***  Starting incremental Fock matrix formation  ***
  0  -3978.2016631921   0.000000000000 0.10393025  0.00138534  0.2465100 0.7000
  1  -3978.8500645082  -0.648401316175 0.08007287  0.00105665  0.1369974 0.7000
                               ***Turning on DIIS***
  2  -3979.2247793883  -0.374714880007 0.19235418  0.00245003  0.0733840 0.0000
  3  -3977.0113853722   2.213394016024 0.08359769  0.00059134  0.0654329 0.0000
  4  -3980.3882545884  -3.376869216208 0.01583029  0.00022920  0.0262789 0.0000
  5  -3980.2897603501   0.098494238322 0.01033986  0.00011960  0.0110332 0.0000
  6  -3979.9831395575   0.306620792648 0.00822016  0.00007113  0.0040119 0.0000
                      *** Initiating the SOSCF procedure ***
                           *** Shutting down DIIS ***
                      *** Re-Reading the Fockian *** 
                      *** Removing any level shift *** 
ITER      Energy       Delta-E        Grad      Rot      Max-DP    RMS-DP
  7  -3980.06402589  -0.0808863294  0.002189  0.002189  0.006492  0.000044
               *** Restarting incremental Fock matrix formation ***
  8  -3980.04751524   0.0165106487  0.001086  0.003189  0.005613  0.000028
  9  -3980.04769402  -0.0001787805  0.000539  0.004005  0.008571  0.000045
 10  -3980.04778469  -0.0000906701  0.000433  0.000850  0.000939  0.000009
 11  -3980.04779568  -0.0000109948  0.000381  0.000421  0.000478  0.000004
 12  -3980.04779879  -0.0000031111  0.000101  0.000162  0.000232  0.000002
 13  -3980.04779946  -0.0000006696  0.000057  0.000169  0.000215  0.000001
 14  -3980.04779976  -0.0000002932  0.000035  0.000128  0.000162  0.000001
 15  -3980.04779984  -0.0000000819  0.000022  0.000055  0.000068  0.000000
 16  -3980.04779985  -0.0000000092  0.000008  0.000032  0.000041  0.000000
 17  -3980.04779985  -0.0000000004  0.000004  0.000010  0.000014  0.000000
                  ***Gradient check signals convergence***
              ***Rediagonalizing the Fockian in SOSCF/NRSCF***

               *****************************************************
               *                     SUCCESS                       *
               *           SCF CONVERGED AFTER  18 CYCLES          *
               *****************************************************


----------------
TOTAL SCF ENERGY
----------------

Total Energy       :        -3980.04779985 Eh         -108302.60663 eV

Components:
Nuclear Repulsion  :         8526.91082356 Eh          232029.03964 eV
Electronic Energy  :       -12506.95862341 Eh         -340331.64627 eV
One Electron Energy:       -22435.19826399 Eh         -610492.78162 eV
Two Electron Energy:         9928.23964059 Eh          270161.13535 eV

Virial components:
Potential Energy   :        -7945.65117008 Eh         -216212.16035 eV
Kinetic Energy     :         3965.60337023 Eh          107909.55372 eV
Virial Ratio       :            2.00364243


---------------
SCF CONVERGENCE
---------------

  Last Energy change         ...   -3.8635e-09  Tolerance :   1.0000e-08
  Last MAX-Density change    ...    3.9324e-06  Tolerance :   1.0000e-07
  Last RMS-Density change    ...    5.5584e-08  Tolerance :   5.0000e-09
  Last Orbital Gradient      ...    2.2667e-06  Tolerance :   1.0000e-05
  Last Orbital Rotation      ...    3.6384e-06  Tolerance :   1.0000e-05

             **** THE GBW FILE WAS UPDATED (BTN-4F.gbw) ****
             **** DENSITY FILE WAS UPDATED (BTN-4F.scfp) ****
             **** ENERGY FILE WAS UPDATED (BTN-4F.en.tmp) ****
             **** THE GBW FILE WAS UPDATED (BTN-4F.gbw) ****
             **** DENSITY FILE WAS UPDATED (BTN-4F.scfp) ****
----------------
ORBITAL ENERGIES
----------------

  NO   OCC          E(Eh)            E(eV) 
   0   2.0000     -92.010300     -2503.7276 
   1   2.0000     -91.978572     -2502.8642 
   2   2.0000     -91.968322     -2502.5853 
   3   2.0000     -26.349573      -717.0083 
   4   2.0000     -26.343907      -716.8542 
   5   2.0000     -26.343016      -716.8299 
   6   2.0000     -26.342515      -716.8163 
   7   2.0000     -20.589969      -560.2815 
   8   2.0000     -20.585153      -560.1505 
   9   2.0000     -15.651336      -425.8945 
  10   2.0000     -15.646943      -425.7750 
  11   2.0000     -15.641986      -425.6401 
  12   2.0000     -15.641337      -425.6224 
  13   2.0000     -15.639893      -425.5831 
  14   2.0000     -15.633975      -425.4221 
  15   2.0000     -15.625472      -425.1907 
  16   2.0000     -15.619451      -425.0269 
  17   2.0000     -15.608132      -424.7189 
  18   2.0000     -11.400323      -310.2186 
  19   2.0000     -11.397173      -310.1328 
  20   2.0000     -11.390534      -309.9522 
  21   2.0000     -11.389333      -309.9195 
  22   2.0000     -11.388147      -309.8872 
  23   2.0000     -11.384150      -309.7785 
  24   2.0000     -11.380945      -309.6913 
  25   2.0000     -11.380849      -309.6886 
  26   2.0000     -11.378937      -309.6366 
  27   2.0000     -11.376205      -309.5623 
  28   2.0000     -11.358888      -309.0911 
  29   2.0000     -11.356576      -309.0282 
  30   2.0000     -11.355117      -308.9885 
  31   2.0000     -11.342077      -308.6336 
  32   2.0000     -11.337276      -308.5030 
  33   2.0000     -11.334788      -308.4353 
  34   2.0000     -11.334696      -308.4328 
  35   2.0000     -11.333781      -308.4079 
  36   2.0000     -11.328743      -308.2708 
  37   2.0000     -11.325120      -308.1722 
  38   2.0000     -11.320098      -308.0355 
  39   2.0000     -11.319674      -308.0240 
  40   2.0000     -11.317874      -307.9750 
  41   2.0000     -11.315938      -307.9223 
  42   2.0000     -11.315302      -307.9050 
  43   2.0000     -11.314530      -307.8840 
  44   2.0000     -11.314127      -307.8731 
  45   2.0000     -11.310474      -307.7736 
  46   2.0000     -11.310192      -307.7660 
  47   2.0000     -11.308762      -307.7271 
  48   2.0000     -11.307894      -307.7034 
  49   2.0000     -11.307610      -307.6957 
  50   2.0000     -11.306388      -307.6625 
  51   2.0000     -11.305823      -307.6471 
  52   2.0000     -11.305317      -307.6333 
  53   2.0000     -11.305199      -307.6301 
  54   2.0000     -11.301225      -307.5220 
  55   2.0000     -11.294347      -307.3348 
  56   2.0000     -11.282781      -307.0201 
  57   2.0000     -11.281672      -306.9899 
  58   2.0000     -11.281030      -306.9724 
  59   2.0000     -11.275826      -306.8308 
  60   2.0000     -11.271598      -306.7158 
  61   2.0000     -11.268995      -306.6450 
  62   2.0000     -11.267661      -306.6086 
  63   2.0000     -11.266615      -306.5802 
  64   2.0000      -9.041108      -246.0211 
  65   2.0000      -9.012505      -245.2427 
  66   2.0000      -9.003356      -244.9938 
  67   2.0000      -6.728130      -183.0817 
  68   2.0000      -6.726669      -183.0420 
  69   2.0000      -6.724681      -182.9879 
  70   2.0000      -6.700117      -182.3195 
  71   2.0000      -6.699074      -182.2911 
  72   2.0000      -6.696962      -182.2336 
  73   2.0000      -6.691022      -182.0720 
  74   2.0000      -6.690376      -182.0544 
  75   2.0000      -6.687918      -181.9875 
  76   2.0000      -1.656009       -45.0623 
  77   2.0000      -1.651535       -44.9406 
  78   2.0000      -1.640977       -44.6533 
  79   2.0000      -1.637189       -44.5502 
  80   2.0000      -1.419070       -38.6149 
  81   2.0000      -1.414607       -38.4934 
  82   2.0000      -1.340538       -36.4779 
  83   2.0000      -1.327102       -36.1123 
  84   2.0000      -1.319310       -35.9003 
  85   2.0000      -1.288125       -35.0517 
  86   2.0000      -1.263688       -34.3867 
  87   2.0000      -1.247753       -33.9531 
  88   2.0000      -1.240099       -33.7448 
  89   2.0000      -1.222623       -33.2693 
  90   2.0000      -1.203452       -32.7476 
  91   2.0000      -1.198149       -32.6033 
  92   2.0000      -1.194733       -32.5103 
  93   2.0000      -1.187429       -32.3116 
  94   2.0000      -1.180052       -32.1108 
  95   2.0000      -1.170240       -31.8438 
  96   2.0000      -1.159248       -31.5447 
  97   2.0000      -1.144052       -31.1312 
  98   2.0000      -1.112842       -30.2820 
  99   2.0000      -1.109705       -30.1966 
 100   2.0000      -1.101505       -29.9735 
 101   2.0000      -1.095019       -29.7970 
 102   2.0000      -1.089701       -29.6523 
 103   2.0000      -1.082566       -29.4581 
 104   2.0000      -1.073955       -29.2238 
 105   2.0000      -1.072347       -29.1800 
 106   2.0000      -1.065393       -28.9908 
 107   2.0000      -1.038977       -28.2720 
 108   2.0000      -1.026363       -27.9288 
 109   2.0000      -0.998792       -27.1785 
 110   2.0000      -0.994369       -27.0582 
 111   2.0000      -0.971137       -26.4260 
 112   2.0000      -0.958479       -26.0815 
 113   2.0000      -0.955586       -26.0028 
 114   2.0000      -0.950439       -25.8628 
 115   2.0000      -0.941415       -25.6172 
 116   2.0000      -0.938936       -25.5497 
 117   2.0000      -0.928259       -25.2592 
 118   2.0000      -0.920688       -25.0532 
 119   2.0000      -0.906593       -24.6696 
 120   2.0000      -0.893298       -24.3079 
 121   2.0000      -0.871388       -23.7117 
 122   2.0000      -0.864821       -23.5330 
 123   2.0000      -0.859907       -23.3993 
 124   2.0000      -0.850338       -23.1389 
 125   2.0000      -0.832601       -22.6562 
 126   2.0000      -0.829900       -22.5827 
 127   2.0000      -0.823924       -22.4201 
 128   2.0000      -0.811361       -22.0783 
 129   2.0000      -0.803090       -21.8532 
 130   2.0000      -0.799451       -21.7542 
 131   2.0000      -0.791634       -21.5414 
 132   2.0000      -0.790812       -21.5191 
 133   2.0000      -0.788699       -21.4616 
 134   2.0000      -0.782398       -21.2901 
 135   2.0000      -0.778009       -21.1707 
 136   2.0000      -0.771382       -20.9904 
 137   2.0000      -0.759204       -20.6590 
 138   2.0000      -0.755097       -20.5472 
 139   2.0000      -0.750874       -20.4323 
 140   2.0000      -0.749279       -20.3889 
 141   2.0000      -0.748701       -20.3732 
 142   2.0000      -0.741524       -20.1779 
 143   2.0000      -0.734159       -19.9775 
 144   2.0000      -0.726928       -19.7807 
 145   2.0000      -0.725369       -19.7383 
 146   2.0000      -0.721200       -19.6248 
 147   2.0000      -0.714842       -19.4518 
 148   2.0000      -0.709604       -19.3093 
 149   2.0000      -0.706019       -19.2117 
 150   2.0000      -0.701792       -19.0967 
 151   2.0000      -0.694558       -18.8999 
 152   2.0000      -0.690246       -18.7826 
 153   2.0000      -0.688242       -18.7280 
 154   2.0000      -0.686871       -18.6907 
 155   2.0000      -0.682244       -18.5648 
 156   2.0000      -0.676578       -18.4106 
 157   2.0000      -0.672376       -18.2963 
 158   2.0000      -0.669536       -18.2190 
 159   2.0000      -0.665925       -18.1207 
 160   2.0000      -0.665091       -18.0980 
 161   2.0000      -0.657190       -17.8830 
 162   2.0000      -0.648708       -17.6523 
 163   2.0000      -0.645793       -17.5729 
 164   2.0000      -0.644016       -17.5246 
 165   2.0000      -0.639882       -17.4121 
 166   2.0000      -0.636539       -17.3211 
 167   2.0000      -0.635563       -17.2945 
 168   2.0000      -0.625475       -17.0200 
 169   2.0000      -0.624763       -17.0007 
 170   2.0000      -0.624068       -16.9817 
 171   2.0000      -0.620998       -16.8982 
 172   2.0000      -0.617761       -16.8101 
 173   2.0000      -0.614118       -16.7110 
 174   2.0000      -0.609040       -16.5728 
 175   2.0000      -0.603390       -16.4191 
 176   2.0000      -0.599124       -16.3030 
 177   2.0000      -0.595656       -16.2086 
 178   2.0000      -0.593274       -16.1438 
 179   2.0000      -0.592749       -16.1295 
 180   2.0000      -0.590974       -16.0812 
 181   2.0000      -0.587852       -15.9963 
 182   2.0000      -0.587495       -15.9865 
 183   2.0000      -0.587012       -15.9734 
 184   2.0000      -0.577788       -15.7224 
 185   2.0000      -0.572545       -15.5797 
 186   2.0000      -0.571159       -15.5420 
 187   2.0000      -0.567420       -15.4403 
 188   2.0000      -0.566855       -15.4249 
 189   2.0000      -0.566042       -15.4028 
 190   2.0000      -0.561263       -15.2727 
 191   2.0000      -0.559813       -15.2333 
 192   2.0000      -0.554965       -15.1014 
 193   2.0000      -0.544248       -14.8097 
 194   2.0000      -0.543590       -14.7918 
 195   2.0000      -0.542008       -14.7488 
 196   2.0000      -0.535788       -14.5795 
 197   2.0000      -0.527543       -14.3552 
 198   2.0000      -0.511764       -13.9258 
 199   2.0000      -0.506386       -13.7795 
 200   2.0000      -0.505554       -13.7568 
 201   2.0000      -0.491894       -13.3851 
 202   2.0000      -0.484855       -13.1936 
 203   2.0000      -0.483739       -13.1632 
 204   2.0000      -0.480774       -13.0825 
 205   2.0000      -0.477286       -12.9876 
 206   2.0000      -0.475324       -12.9342 
 207   2.0000      -0.473437       -12.8829 
 208   2.0000      -0.471315       -12.8251 
 209   2.0000      -0.470503       -12.8030 
 210   2.0000      -0.469288       -12.7700 
 211   2.0000      -0.463248       -12.6056 
 212   2.0000      -0.460615       -12.5340 
 213   2.0000      -0.457428       -12.4472 
 214   2.0000      -0.446545       -12.1511 
 215   2.0000      -0.442046       -12.0287 
 216   2.0000      -0.416223       -11.3260 
 217   2.0000      -0.410520       -11.1708 
 218   2.0000      -0.397798       -10.8246 
 219   2.0000      -0.396232       -10.7820 
 220   2.0000      -0.384970       -10.4756 
 221   2.0000      -0.377797       -10.2804 
 222   2.0000      -0.372423       -10.1341 
 223   2.0000      -0.370737       -10.0883 
 224   2.0000      -0.360981        -9.8228 
 225   2.0000      -0.333973        -9.0879 
 226   2.0000      -0.324644        -8.8340 
 227   2.0000      -0.308831        -8.4037 
 228   2.0000      -0.269229        -7.3261 
 229   0.0000      -0.019530        -0.5314 
 230   0.0000      -0.012919        -0.3515 
 231   0.0000       0.010086         0.2745 
 232   0.0000       0.017392         0.4732 
 233   0.0000       0.024172         0.6577 
 234   0.0000       0.047578         1.2947 
 235   0.0000       0.068127         1.8538 
 236   0.0000       0.077981         2.1220 
 237   0.0000       0.084432         2.2975 
 238   0.0000       0.099283         2.7016 
 239   0.0000       0.108080         2.9410 
 240   0.0000       0.112844         3.0706 
 241   0.0000       0.129905         3.5349 
 242   0.0000       0.137376         3.7382 
 243   0.0000       0.141121         3.8401 
 244   0.0000       0.149492         4.0679 
 245   0.0000       0.149949         4.0803 
 246   0.0000       0.155851         4.2409 
 247   0.0000       0.161583         4.3969 
 248   0.0000       0.164098         4.4653 
 249   0.0000       0.165250         4.4967 
 250   0.0000       0.170128         4.6294 
 251   0.0000       0.173321         4.7163 
 252   0.0000       0.181487         4.9385 
 253   0.0000       0.182157         4.9568 
 254   0.0000       0.185498         5.0476 
 255   0.0000       0.187245         5.0952 
 256   0.0000       0.189766         5.1638 
 257   0.0000       0.195558         5.3214 
 258   0.0000       0.196550         5.3484 
 259   0.0000       0.199163         5.4195 
 260   0.0000       0.201675         5.4879 
 261   0.0000       0.204719         5.5707 
 262   0.0000       0.208980         5.6866 
 263   0.0000       0.214369         5.8333 
 264   0.0000       0.216182         5.8826 
 265   0.0000       0.216404         5.8887 
 266   0.0000       0.220508         6.0003 
 267   0.0000       0.226526         6.1641 
 268   0.0000       0.232446         6.3252 
 269   0.0000       0.234236         6.3739 
 270   0.0000       0.238422         6.4878 
 271   0.0000       0.240553         6.5458 
 272   0.0000       0.242807         6.6071 
 273   0.0000       0.245930         6.6921 
 274   0.0000       0.250313         6.8114 
 275   0.0000       0.253680         6.9030 
 276   0.0000       0.255280         6.9465 
 277   0.0000       0.258373         7.0307 
 278   0.0000       0.260000         7.0749 
 279   0.0000       0.265039         7.2121 
 280   0.0000       0.267152         7.2696 
 281   0.0000       0.268610         7.3093 
 282   0.0000       0.273429         7.4404 
 283   0.0000       0.282297         7.6817 
 284   0.0000       0.283310         7.7092 
 285   0.0000       0.288264         7.8441 
 286   0.0000       0.295606         8.0439 
 287   0.0000       0.300156         8.1676 
 288   0.0000       0.304342         8.2816 
 289   0.0000       0.316967         8.6251 
 290   0.0000       0.324207         8.8221 
 291   0.0000       0.329843         8.9755 
 292   0.0000       0.332311         9.0427 
 293   0.0000       0.336059         9.1446 
 294   0.0000       0.341928         9.3043 
 295   0.0000       0.343332         9.3425 
 296   0.0000       0.347509         9.4562 
 297   0.0000       0.349750         9.5172 
 298   0.0000       0.354258         9.6398 
 299   0.0000       0.357474         9.7274 
 300   0.0000       0.363632         9.8949 
 301   0.0000       0.363755         9.8983 
 302   0.0000       0.372187        10.1277 
 303   0.0000       0.374616        10.1938 
 304   0.0000       0.377349        10.2682 
 305   0.0000       0.382000        10.3947 
 306   0.0000       0.383893        10.4463 
 307   0.0000       0.385424        10.4879 
 308   0.0000       0.389283        10.5929 
 309   0.0000       0.390792        10.6340 
 310   0.0000       0.393973        10.7205 
 311   0.0000       0.398068        10.8320 
 312   0.0000       0.404177        10.9982 
 313   0.0000       0.410880        11.1806 
 314   0.0000       0.415325        11.3016 
 315   0.0000       0.420065        11.4306 
 316   0.0000       0.420749        11.4492 
 317   0.0000       0.424923        11.5628 
 318   0.0000       0.426323        11.6008 
 319   0.0000       0.431376        11.7383 
 320   0.0000       0.433563        11.7979 
 321   0.0000       0.437168        11.8959 
 322   0.0000       0.442937        12.0529 
 323   0.0000       0.451233        12.2787 
 324   0.0000       0.452117        12.3027 
 325   0.0000       0.456898        12.4328 
 326   0.0000       0.460002        12.5173 
 327   0.0000       0.469865        12.7857 
 328   0.0000       0.476709        12.9719 
 329   0.0000       0.482499        13.1295 
 330   0.0000       0.483940        13.1687 
 331   0.0000       0.485189        13.2027 
 332   0.0000       0.492260        13.3951 
 333   0.0000       0.493794        13.4368 
 334   0.0000       0.497227        13.5302 
 335   0.0000       0.501075        13.6350 
 336   0.0000       0.503637        13.7047 
 337   0.0000       0.511008        13.9052 
 338   0.0000       0.515183        14.0188 
 339   0.0000       0.519377        14.1330 
 340   0.0000       0.521198        14.1825 
 341   0.0000       0.527235        14.3468 
 342   0.0000       0.527835        14.3631 
 343   0.0000       0.532552        14.4915 
 344   0.0000       0.537749        14.6329 
 345   0.0000       0.541690        14.7401 
 346   0.0000       0.544354        14.8126 
 347   0.0000       0.547183        14.8896 
 348   0.0000       0.555163        15.1068 
 349   0.0000       0.556552        15.1446 
 350   0.0000       0.558626        15.2010 
 351   0.0000       0.567070        15.4308 
 352   0.0000       0.573070        15.5940 
 353   0.0000       0.576411        15.6849 
 354   0.0000       0.578770        15.7491 
 355   0.0000       0.579512        15.7693 
 356   0.0000       0.583144        15.8681 
 357   0.0000       0.591073        16.0839 
 358   0.0000       0.593993        16.1634 
 359   0.0000       0.595859        16.2142 
 360   0.0000       0.597140        16.2490 
 361   0.0000       0.599193        16.3049 
 362   0.0000       0.608759        16.5652 
 363   0.0000       0.613207        16.6862 
 364   0.0000       0.618336        16.8258 
 365   0.0000       0.620636        16.8884 
 366   0.0000       0.624663        16.9979 
 367   0.0000       0.630022        17.1438 
 368   0.0000       0.637766        17.3545 
 369   0.0000       0.638245        17.3675 
 370   0.0000       0.643869        17.5206 
 371   0.0000       0.645735        17.5714 
 372   0.0000       0.647075        17.6078 
 373   0.0000       0.651522        17.7288 
 374   0.0000       0.657660        17.8958 
 375   0.0000       0.661887        18.0109 
 376   0.0000       0.663445        18.0533 
 377   0.0000       0.666705        18.1420 
 378   0.0000       0.668866        18.2008 
 379   0.0000       0.671838        18.2817 
 380   0.0000       0.673758        18.3339 
 381   0.0000       0.674352        18.3500 
 382   0.0000       0.679351        18.4861 
 383   0.0000       0.680839        18.5266 
 384   0.0000       0.682894        18.5825 
 385   0.0000       0.686045        18.6682 
 386   0.0000       0.689226        18.7548 
 387   0.0000       0.694082        18.8869 
 388   0.0000       0.694277        18.8922 
 389   0.0000       0.699549        19.0357 
 390   0.0000       0.702462        19.1150 
 391   0.0000       0.703583        19.1455 
 392   0.0000       0.705075        19.1861 
 393   0.0000       0.708537        19.2803 
 394   0.0000       0.711150        19.3514 
 395   0.0000       0.715681        19.4747 
 396   0.0000       0.720253        19.5991 
 397   0.0000       0.723144        19.6777 
 398   0.0000       0.728370        19.8200 
 399   0.0000       0.730109        19.8673 
 400   0.0000       0.736447        20.0397 
 401   0.0000       0.736858        20.0509 
 402   0.0000       0.739494        20.1227 
 403   0.0000       0.741593        20.1798 
 404   0.0000       0.744097        20.2479 
 405   0.0000       0.747417        20.3382 
 406   0.0000       0.749785        20.4027 
 407   0.0000       0.750528        20.4229 
 408   0.0000       0.751508        20.4496 
 409   0.0000       0.753685        20.5088 
 410   0.0000       0.764030        20.7903 
 411   0.0000       0.766483        20.8571 
 412   0.0000       0.774725        21.0813 
 413   0.0000       0.778177        21.1753 
 414   0.0000       0.779480        21.2107 
 415   0.0000       0.783256        21.3135 
 416   0.0000       0.784160        21.3381 
 417   0.0000       0.789713        21.4892 
 418   0.0000       0.791256        21.5312 
 419   0.0000       0.795671        21.6513 
 420   0.0000       0.796562        21.6756 
 421   0.0000       0.801311        21.8048 
 422   0.0000       0.803081        21.8529 
 423   0.0000       0.804971        21.9044 
 424   0.0000       0.809126        22.0174 
 425   0.0000       0.813238        22.1293 
 426   0.0000       0.814813        22.1722 
 427   0.0000       0.817742        22.2519 
 428   0.0000       0.820941        22.3389 
 429   0.0000       0.823943        22.4206 
 430   0.0000       0.827160        22.5082 
 431   0.0000       0.829296        22.5663 
 432   0.0000       0.834508        22.7081 
 433   0.0000       0.836052        22.7501 
 434   0.0000       0.838956        22.8291 
 435   0.0000       0.840525        22.8718 
 436   0.0000       0.843150        22.9433 
 437   0.0000       0.843356        22.9489 
 438   0.0000       0.844920        22.9914 
 439   0.0000       0.846416        23.0322 
 440   0.0000       0.848114        23.0783 
 441   0.0000       0.848603        23.0917 
 442   0.0000       0.852603        23.2005 
 443   0.0000       0.854740        23.2587 
 444   0.0000       0.854867        23.2621 
 445   0.0000       0.856609        23.3095 
 446   0.0000       0.859014        23.3750 
 447   0.0000       0.860144        23.4057 
 448   0.0000       0.862583        23.4721 
 449   0.0000       0.865286        23.5456 
 450   0.0000       0.865378        23.5481 
 451   0.0000       0.868030        23.6203 
 452   0.0000       0.870104        23.6767 
 453   0.0000       0.872475        23.7412 
 454   0.0000       0.875212        23.8157 
 455   0.0000       0.876163        23.8416 
 456   0.0000       0.878671        23.9099 
 457   0.0000       0.881505        23.9870 
 458   0.0000       0.883793        24.0492 
 459   0.0000       0.884566        24.0703 
 460   0.0000       0.888425        24.1753 
 461   0.0000       0.890029        24.2189 
 462   0.0000       0.892303        24.2808 
 463   0.0000       0.898526        24.4501 
 464   0.0000       0.903453        24.5842 
 465   0.0000       0.904559        24.6143 
 466   0.0000       0.907888        24.7049 
 467   0.0000       0.909633        24.7524 
 468   0.0000       0.912920        24.8418 
 469   0.0000       0.915619        24.9153 
 470   0.0000       0.918372        24.9902 
 471   0.0000       0.920694        25.0534 
 472   0.0000       0.924351        25.1529 
 473   0.0000       0.926035        25.1987 
 474   0.0000       0.927664        25.2430 
 475   0.0000       0.933600        25.4045 
 476   0.0000       0.935906        25.4673 
 477   0.0000       0.939519        25.5656 
 478   0.0000       0.942074        25.6351 
 479   0.0000       0.946093        25.7445 
 480   0.0000       0.946255        25.7489 
 481   0.0000       0.947488        25.7825 
 482   0.0000       0.948614        25.8131 
 483   0.0000       0.954937        25.9852 
 484   0.0000       0.957236        26.0477 
 485   0.0000       0.960519        26.1370 
 486   0.0000       0.964289        26.2396 
 487   0.0000       0.968664        26.3587 
 488   0.0000       0.970375        26.4053 
 489   0.0000       0.974633        26.5211 
 490   0.0000       0.977666        26.6036 
 491   0.0000       0.978381        26.6231 
 492   0.0000       0.983165        26.7533 
 493   0.0000       0.986135        26.8341 
 494   0.0000       0.988842        26.9078 
 495   0.0000       0.991348        26.9759 
 496   0.0000       0.992517        27.0078 
 497   0.0000       0.994404        27.0591 
 498   0.0000       0.997502        27.1434 
 499   0.0000       1.001214        27.2444 
 500   0.0000       1.001605        27.2551 
 501   0.0000       1.006345        27.3840 
 502   0.0000       1.007830        27.4244 
 503   0.0000       1.009904        27.4809 
 504   0.0000       1.016343        27.6561 
 505   0.0000       1.019060        27.7300 
 506   0.0000       1.022731        27.8299 
 507   0.0000       1.027220        27.9521 
 508   0.0000       1.035090        28.1662 
 509   0.0000       1.037866        28.2418 
 510   0.0000       1.039605        28.2891 
 511   0.0000       1.041824        28.3495 
 512   0.0000       1.045713        28.4553 
 513   0.0000       1.048446        28.5297 
 514   0.0000       1.054390        28.6914 
 515   0.0000       1.058961        28.8158 
 516   0.0000       1.061927        28.8965 
 517   0.0000       1.065704        28.9993 
 518   0.0000       1.067756        29.0551 
 519   0.0000       1.070357        29.1259 
 520   0.0000       1.073342        29.2071 
 521   0.0000       1.077991        29.3336 
 522   0.0000       1.081702        29.4346 
 523   0.0000       1.085223        29.5304 
 524   0.0000       1.086462        29.5641 
 525   0.0000       1.090273        29.6678 
 526   0.0000       1.092287        29.7226 
 527   0.0000       1.094162        29.7737 
 528   0.0000       1.098198        29.8835 
 529   0.0000       1.099849        29.9284 
 530   0.0000       1.104364        30.0513 
 531   0.0000       1.104698        30.0604 
 532   0.0000       1.109097        30.1801 
 533   0.0000       1.112471        30.2719 
 534   0.0000       1.118424        30.4339 
 535   0.0000       1.119058        30.4511 
 536   0.0000       1.131206        30.7817 
 537   0.0000       1.132509        30.8171 
 538   0.0000       1.135950        30.9108 
 539   0.0000       1.141785        31.0695 
 540   0.0000       1.145150        31.1611 
 541   0.0000       1.145285        31.1648 
 542   0.0000       1.148232        31.2450 
 543   0.0000       1.154621        31.4188 
 544   0.0000       1.156558        31.4715 
 545   0.0000       1.158216        31.5167 
 546   0.0000       1.162091        31.6221 
 547   0.0000       1.164504        31.6878 
 548   0.0000       1.169583        31.8260 
 549   0.0000       1.172037        31.8927 
 550   0.0000       1.175790        31.9949 
 551   0.0000       1.179891        32.1065 
 552   0.0000       1.184683        32.2369 
 553   0.0000       1.186688        32.2914 
 554   0.0000       1.197371        32.5821 
 555   0.0000       1.204560        32.7778 
 556   0.0000       1.208377        32.8816 
 557   0.0000       1.213546        33.0223 
 558   0.0000       1.218607        33.1600 
 559   0.0000       1.221224        33.2312 
 560   0.0000       1.222693        33.2712 
 561   0.0000       1.227235        33.3948 
 562   0.0000       1.231620        33.5141 
 563   0.0000       1.236549        33.6482 
 564   0.0000       1.249390        33.9976 
 565   0.0000       1.255496        34.1638 
 566   0.0000       1.264783        34.4165 
 567   0.0000       1.264942        34.4208 
 568   0.0000       1.274048        34.6686 
 569   0.0000       1.278322        34.7849 
 570   0.0000       1.284990        34.9664 
 571   0.0000       1.288406        35.0593 
 572   0.0000       1.300353        35.3844 
 573   0.0000       1.307288        35.5731 
 574   0.0000       1.314847        35.7788 
 575   0.0000       1.322263        35.9806 
 576   0.0000       1.331309        36.2268 
 577   0.0000       1.334805        36.3219 
 578   0.0000       1.339188        36.4412 
 579   0.0000       1.344742        36.5923 
 580   0.0000       1.345825        36.6218 
 581   0.0000       1.353355        36.8267 
 582   0.0000       1.359157        36.9846 
 583   0.0000       1.361586        37.0506 
 584   0.0000       1.371324        37.3156 
 585   0.0000       1.372346        37.3434 
 586   0.0000       1.383117        37.6365 
 587   0.0000       1.387785        37.7636 
 588   0.0000       1.390483        37.8370 
 589   0.0000       1.393731        37.9253 
 590   0.0000       1.400137        38.0997 
 591   0.0000       1.408093        38.3161 
 592   0.0000       1.412318        38.4311 
 593   0.0000       1.414579        38.4926 
 594   0.0000       1.420522        38.6544 
 595   0.0000       1.423018        38.7223 
 596   0.0000       1.426935        38.8289 
 597   0.0000       1.431986        38.9663 
 598   0.0000       1.438213        39.1358 
 599   0.0000       1.441599        39.2279 
 600   0.0000       1.442808        39.2608 
 601   0.0000       1.446808        39.3696 
 602   0.0000       1.451856        39.5070 
 603   0.0000       1.454685        39.5840 
 604   0.0000       1.455770        39.6135 
 605   0.0000       1.456187        39.6249 
 606   0.0000       1.459544        39.7162 
 607   0.0000       1.464921        39.8625 
 608   0.0000       1.466580        39.9077 
 609   0.0000       1.474135        40.1133 
 610   0.0000       1.477672        40.2095 
 611   0.0000       1.481046        40.3013 
 612   0.0000       1.484619        40.3985 
 613   0.0000       1.500204        40.8226 
 614   0.0000       1.502727        40.8913 
 615   0.0000       1.509856        41.0853 
 616   0.0000       1.513952        41.1967 
 617   0.0000       1.520561        41.3766 
 618   0.0000       1.523514        41.4569 
 619   0.0000       1.529393        41.6169 
 620   0.0000       1.532181        41.6928 
 621   0.0000       1.534451        41.7545 
 622   0.0000       1.541403        41.9437 
 623   0.0000       1.548061        42.1249 
 624   0.0000       1.550688        42.1964 
 625   0.0000       1.554973        42.3130 
 626   0.0000       1.558074        42.3973 
 627   0.0000       1.565983        42.6126 
 628   0.0000       1.572866        42.7999 
 629   0.0000       1.575931        42.8833 
 630   0.0000       1.579282        42.9744 
 631   0.0000       1.593435        43.3596 
 632   0.0000       1.599824        43.5334 
 633   0.0000       1.604412        43.6583 
 634   0.0000       1.615834        43.9691 
 635   0.0000       1.621698        44.1287 
 636   0.0000       1.624918        44.2163 
 637   0.0000       1.628208        44.3058 
 638   0.0000       1.634201        44.4689 
 639   0.0000       1.641932        44.6792 
 640   0.0000       1.650622        44.9157 
 641   0.0000       1.653837        45.0032 
 642   0.0000       1.655567        45.0503 
 643   0.0000       1.674088        45.5542 
 644   0.0000       1.677851        45.6567 
 645   0.0000       1.686457        45.8908 
 646   0.0000       1.690254        45.9941 
 647   0.0000       1.695058        46.1249 
 648   0.0000       1.699888        46.2563 
 649   0.0000       1.708553        46.4921 
 650   0.0000       1.710822        46.5538 
 651   0.0000       1.712864        46.6094 
 652   0.0000       1.717532        46.7364 
 653   0.0000       1.725092        46.9422 
 654   0.0000       1.731895        47.1273 
 655   0.0000       1.733968        47.1837 
 656   0.0000       1.737038        47.2672 
 657   0.0000       1.740216        47.3537 
 658   0.0000       1.741208        47.3807 
 659   0.0000       1.747599        47.5546 
 660   0.0000       1.748238        47.5720 
 661   0.0000       1.751801        47.6689 
 662   0.0000       1.759679        47.8833 
 663   0.0000       1.763674        47.9920 
 664   0.0000       1.769274        48.1444 
 665   0.0000       1.771964        48.2176 
 666   0.0000       1.782500        48.5043 
 667   0.0000       1.789576        48.6969 
 668   0.0000       1.790092        48.7109 
 669   0.0000       1.792082        48.7650 
 670   0.0000       1.794991        48.8442 
 671   0.0000       1.805479        49.1296 
 672   0.0000       1.810745        49.2729 
 673   0.0000       1.815758        49.4093 
 674   0.0000       1.822771        49.6001 
 675   0.0000       1.826510        49.7019 
 676   0.0000       1.832328        49.8602 
 677   0.0000       1.833844        49.9014 
 678   0.0000       1.845974        50.2315 
 679   0.0000       1.853852        50.4459 
 680   0.0000       1.862658        50.6855 
 681   0.0000       1.868762        50.8516 
 682   0.0000       1.870190        50.8905 
 683   0.0000       1.875838        51.0441 
 684   0.0000       1.879322        51.1390 
 685   0.0000       1.880645        51.1750 
 686   0.0000       1.885631        51.3106 
 687   0.0000       1.896125        51.5962 
 688   0.0000       1.907290        51.9000 
 689   0.0000       1.912320        52.0369 
 690   0.0000       1.916583        52.1529 
 691   0.0000       1.920681        52.2644 
 692   0.0000       1.923337        52.3367 
 693   0.0000       1.926585        52.4250 
 694   0.0000       1.928327        52.4724 
 695   0.0000       1.940935        52.8155 
 696   0.0000       1.943896        52.8961 
 697   0.0000       1.949558        53.0502 
 698   0.0000       1.951694        53.1083 
 699   0.0000       1.952427        53.1282 
 700   0.0000       1.959988        53.3340 
 701   0.0000       1.964271        53.4505 
 702   0.0000       1.965421        53.4818 
 703   0.0000       1.970430        53.6181 
 704   0.0000       1.974464        53.7279 
 705   0.0000       1.983756        53.9807 
 706   0.0000       1.988438        54.1081 
 707   0.0000       1.992049        54.2064 
 708   0.0000       1.993332        54.2413 
 709   0.0000       1.994360        54.2693 
 710   0.0000       1.997172        54.3458 
 711   0.0000       1.999045        54.3968 
 712   0.0000       2.001725        54.4697 
 713   0.0000       2.008717        54.6600 
 714   0.0000       2.010855        54.7182 
 715   0.0000       2.020863        54.9905 
 716   0.0000       2.023940        55.0742 
 717   0.0000       2.028480        55.1977 
 718   0.0000       2.031970        55.2927 
 719   0.0000       2.033986        55.3476 
 720   0.0000       2.035792        55.3967 
 721   0.0000       2.037424        55.4411 
 722   0.0000       2.039579        55.4998 
 723   0.0000       2.050455        55.7957 
 724   0.0000       2.054340        55.9014 
 725   0.0000       2.058898        56.0255 
 726   0.0000       2.064598        56.1806 
 727   0.0000       2.068747        56.2935 
 728   0.0000       2.073539        56.4239 
 729   0.0000       2.076011        56.4911 
 730   0.0000       2.081709        56.6462 
 731   0.0000       2.084966        56.7348 
 732   0.0000       2.093056        56.9550 
 733   0.0000       2.096008        57.0353 
 734   0.0000       2.096191        57.0403 
 735   0.0000       2.099930        57.1420 
 736   0.0000       2.102577        57.2140 
 737   0.0000       2.106336        57.3163 
 738   0.0000       2.115444        57.5642 
 739   0.0000       2.118641        57.6511 
 740   0.0000       2.120284        57.6959 
 741   0.0000       2.125014        57.8246 
 742   0.0000       2.125982        57.8509 
 743   0.0000       2.128610        57.9224 
 744   0.0000       2.130070        57.9621 
 745   0.0000       2.134436        58.0810 
 746   0.0000       2.136605        58.1400 
 747   0.0000       2.138734        58.1979 
 748   0.0000       2.157739        58.7151 
[...]
   Time for Sigma-Completion:     5.360
   Size of expansion space: 27
   Lowest Energy          :     0.124401769420
   Maximum Energy change  :     0.000782477711 (vector 2)
   Maximum residual norm  :     0.000109241036

                       ****Iteration    7****
   Time for densities:     0.761
   Using LibInt in JK Direct
   Time for J+K (Direct):   879.974
   Time for Sigma-Completion:     6.978
   Size of expansion space: 30
   Lowest Energy          :     0.124395925419
   Maximum Energy change  :     0.000374171335 (vector 2)
   Maximum residual norm  :     0.000050946569
   Rebuilding the expansion space

                       ****Iteration    8****
   Time for densities:     1.519
   Using LibInt in JK Direct
   Time for J+K (Direct):  1732.014
   Time for Sigma-Completion:    19.395
   Size of expansion space: 6
   Lowest Energy          :     0.124394801515
   Maximum Energy change  :     0.000128865008 (vector 2)
   Maximum residual norm  :     0.000024429361

                       ****Iteration    9****
   Time for densities:     0.772
   Using LibInt in JK Direct
   Time for J+K (Direct):   915.244
   Time for Sigma-Completion:    10.012
   Size of expansion space: 9
   Lowest Energy          :     0.124394312601
   Maximum Energy change  :     0.000088220373 (vector 2)
   Maximum residual norm  :     0.000018036061

                       ****Iteration   10****
   Time for densities:     0.764
   Using LibInt in JK Direct
   Time for J+K (Direct):   903.611
   Time for Sigma-Completion:    12.594
   Size of expansion space: 12
   Lowest Energy          :     0.124394061071
   Maximum Energy change  :     0.000062516284 (vector 2)
   Maximum residual norm  :     0.000008293252

                       ****Iteration   11****
   Time for densities:     0.758
   Using LibInt in JK Direct
   Time for J+K (Direct):   910.312
   Time for Sigma-Completion:    12.904
   Size of expansion space: 15
   Lowest Energy          :     0.124393964877
   Maximum Energy change  :     0.000033049643 (vector 2)
   Maximum residual norm  :     0.000007716470

                       ****Iteration   12****
   Time for densities:     0.758
   Using LibInt in JK Direct
   Time for J+K (Direct):   910.625
   Time for Sigma-Completion:    10.811
   Size of expansion space: 18
   Lowest Energy          :     0.124393933780
   Maximum Energy change  :     0.000018609786 (vector 2)
   Maximum residual norm  :     0.000002520053

                       ****Iteration   13****
   Time for densities:     0.757
   Using LibInt in JK Direct
   Time for J+K (Direct):   911.125
   Time for Sigma-Completion:    12.055
   Size of expansion space: 21
   Lowest Energy          :     0.124393926446
   Maximum Energy change  :     0.000007712145 (vector 2)
   Maximum residual norm  :     0.000000949119

                       ****Iteration   14****
   Time for densities:     0.775
   Using LibInt in JK Direct
   Time for J+K (Direct):   910.021
   Time for Sigma-Completion:     9.874
   Size of expansion space: 24
   Lowest Energy          :     0.124393924882
   Maximum Energy change  :     0.000003426492 (vector 2)
   Maximum residual norm  :     0.000000534888

                       ****Iteration   15****
   Time for densities:     0.762
   Using LibInt in JK Direct
   Time for J+K (Direct):   909.426
   Time for Sigma-Completion:     7.841
   Size of expansion space: 27
   Lowest Energy          :     0.124393924532
   Maximum Energy change  :     0.000001335214 (vector 2)
   Maximum residual norm  :     0.000000148343

      *** CONVERGENCE OF RESIDUAL NORM REACHED ***

Storing the converged CI vectors               ... BTN-4F.cis1

                 *** DAVIDSON DONE ***

Total time for solving the CIS problem: 17125.007sec

-----------------------------
CIS-EXCITED STATES (SINGLETS)
-----------------------------

the weight of the individual excitations are printed if larger than 1.0e-02

STATE  1:  E=   0.124394 au      3.385 eV    27301.3 cm**-1
   225a -> 229a  :     0.048233 (c=  0.21962004)
   225a -> 232a  :     0.010433 (c=  0.10214298)
   228a -> 229a  :     0.478536 (c=  0.69176304)
   228a -> 231a  :     0.243692 (c= -0.49365188)
   228a -> 232a  :     0.010928 (c=  0.10453902)
   228a -> 233a  :     0.044592 (c=  0.21116734)
   228a -> 236a  :     0.010297 (c= -0.10147631)

STATE  2:  E=   0.150385 au      4.092 eV    33005.8 cm**-1
   223a -> 229a  :     0.027249 (c= -0.16507345)
   225a -> 229a  :     0.103903 (c= -0.32234060)
   225a -> 231a  :     0.020849 (c=  0.14439199)
   226a -> 229a  :     0.011974 (c= -0.10942427)
   228a -> 229a  :     0.112167 (c= -0.33491381)
   228a -> 230a  :     0.017762 (c=  0.13327556)
   228a -> 231a  :     0.210366 (c= -0.45865657)
   228a -> 232a  :     0.014615 (c= -0.12089411)
   228a -> 233a  :     0.280072 (c=  0.52921804)
   228a -> 236a  :     0.020878 (c=  0.14449338)
   228a -> 237a  :     0.010562 (c= -0.10277354)

STATE  3:  E=   0.164978 au      4.489 eV    36208.4 cm**-1
   220a -> 230a  :     0.053747 (c= -0.23183349)
   221a -> 230a  :     0.011049 (c= -0.10511291)
   223a -> 230a  :     0.016258 (c= -0.12750656)
   223a -> 231a  :     0.025228 (c=  0.15883438)
   223a -> 232a  :     0.015470 (c=  0.12437942)
   225a -> 230a  :     0.039340 (c=  0.19834264)
   225a -> 231a  :     0.049590 (c= -0.22268867)
   225a -> 232a  :     0.058637 (c= -0.24215140)
   225a -> 234a  :     0.064810 (c= -0.25457765)
   226a -> 231a  :     0.012357 (c= -0.11116086)
   228a -> 230a  :     0.051098 (c= -0.22604779)
   228a -> 232a  :     0.088687 (c=  0.29780356)
   228a -> 233a  :     0.075142 (c=  0.27412107)
   228a -> 234a  :     0.171827 (c=  0.41451988)
   228a -> 235a  :     0.026049 (c= -0.16139622)


----------------------
CIS-EXCITATION SPECTRA
----------------------

Center of mass = (  5.8613, -0.8827, -0.1312)
Calculating the Dipole integrals                  ... done
Transforming integrals                            ... done
Calculating the Linear Momentum integrals         ... done
Transforming integrals                            ... done
Calculating angular momentum integrals            ... done
Transforming integrals                            ... done

-----------------------------------------------------------------------------
         ABSORPTION SPECTRUM VIA TRANSITION ELECTRIC DIPOLE MOMENTS
-----------------------------------------------------------------------------
State   Energy    Wavelength  fosc         T2        TX        TY        TZ  
        (cm-1)      (nm)                 (au**2)    (au)      (au)      (au) 
-----------------------------------------------------------------------------
   1   27301.3    366.3   2.175777465  26.23654   5.06046   0.77737  -0.15478
   2   33005.8    303.0   0.012496231   0.12464   0.12743   0.32918   0.00681
   3   36208.4    276.2   0.504076210   4.58313  -2.07103  -0.53292   0.09983

-----------------------------------------------------------------------------
         ABSORPTION SPECTRUM VIA TRANSITION VELOCITY DIPOLE MOMENTS
-----------------------------------------------------------------------------
State   Energy    Wavelength   fosc        P2         PX        PY        PZ  
        (cm-1)      (nm)                 (au**2)     (au)      (au)      (au) 
-----------------------------------------------------------------------------
   1   27301.3    366.3   1.121570369   0.20927  -0.45389  -0.05699   0.00335
   2   33005.8    303.0   0.036173423   0.00816   0.08952  -0.00338   0.01161
   3   36208.4    276.2   0.459550322   0.11372   0.33221   0.05795   0.00060

-------------------------------------------------------------------
                             CD SPECTRUM
-------------------------------------------------------------------
State  Energy     Wavelength     R         MX        MY        MZ   
       (cm-1)       (nm)     (1e40*cgs)   (au)      (au)      (au)  
-------------------------------------------------------------------
   1   27301.3    366.3     15.95058  -0.02852   0.00923  -1.10475
   2   33005.8    303.0     -8.07444   0.02718  -0.06128  -0.06130
   3   36208.4    276.2     90.71435  -0.11812   0.09262  -0.02865

Total run time:    17192.158 sec

           *** ORCA-CIS/TD-DFT FINISHED WITHOUT ERROR ***

-----------------------
CIS/TD-DFT TOTAL ENERGY
-----------------------

    E(SCF)  =  -3980.047799853 Eh
    DE(CIS) =      0.124393925 Eh (Root  1)
    ----------------------------- ---------
    E(tot)  =  -3979.923405928 Eh


-------------------------   --------------------
FINAL SINGLE POINT ENERGY     -3979.923405928310
-------------------------   --------------------

------------------------------------------------------------------------------
                         ORCA SCF GRADIENT CALCULATION
------------------------------------------------------------------------------


------------
CIS GRADIENT
------------

Reference wavefunction             ... RHF
State of interest                  ... 1
Basis dimension                    ... 1003
DFT-XC contribution needed         ... NO
RI-approximation                   ... OFF
CIS-vectors being read from        ... BTN-4F.cis

 => Number of Vectors found: 3
 => Orbital Window: 76...228 -> 229...1002

Reading the CIS file                     ... done
Norm of the CI vector                    ... 1.000000000
Making the CIS (pseudo)densities         ... done
Making operators G(D) and Q(T)           ... done
Transforming the Fock operators          ... done
Making the frozen-core relaxed density   ... done
Constructing the G(H) operator           ... done
Transforming the G(H) operator           ... done
Calculating the CIS Lagrangian           ... done
Solving the Z-vector equations           ... done
Finalizing the relaxed density           ... done
Storing the relaxed density              ... done
Constructing the G(Z) operator           ... done
Transforming the G(Z) operator           ... done
Making the W-matrix                      ... done
Finalizing the W-matrix                  ... done
Transforming the W-matrix                ... done
Nuclear repulsion gradient               ... done
One-Electron gradient                    ... done
Prescreening matrices                    ... done
Two-Electron gradient (4-center)         ... done
                 ---------------------------
                 EXCITED STATE GRADIENT DONE
                 ---------------------------


------------------
CARTESIAN GRADIENT
------------------

   1   C   :    0.027034046    0.064190136    0.000155096
   2   C   :    0.002080740   -0.032707045    0.000116933
   3   C   :   -0.007197987   -0.031936521    0.003534240
   4   C   :   -0.011451002    0.057707110   -0.013105633
   5   C   :   -0.022693822    0.035336565   -0.004590447
   6   C   :    0.025910507    0.039226811   -0.003977660
   7   N   :    0.068547744   -0.024532421    0.004410529
   8   S   :   -0.000902532    0.002852323    0.000168359
   9   N   :   -0.072634416   -0.020623215   -0.000453210
  10   N   :    0.005170304    0.018229050    0.000543669
  11   C   :    0.017639256   -0.034052444    0.002772399
  12   C   :   -0.025122826   -0.052643317    0.011784822
  13   C   :    0.009534847    0.011713102    0.001355638
  14   C   :    0.018079962   -0.048611552    0.002174080
  15   N   :    0.024326155   -0.013129273    0.002244070
  16   N   :   -0.019742987   -0.005077032   -0.006308495
  17   C   :   -0.015453143    0.027198975    0.006533160
  18   C   :   -0.029762689   -0.024949965    0.006362140
  19   C   :    0.015970199   -0.009329276    0.002208680
  20   C   :    0.035527462   -0.031139491    0.002752362
  21   S   :   -0.020235987    0.076693130   -0.014237125
  22   S   :   -0.036548270   -0.007753874    0.007056208
  23   C   :    0.052717658    0.007514981   -0.024615338
  24   C   :    0.002024822   -0.018279754    0.015359829
  25   C   :   -0.005081953    0.001659484    0.000470550
  26   C   :   -0.024750638   -0.028177761    0.004734792
  27   C   :    0.023115092    0.028897411   -0.005058850
  28   C   :   -0.014907183    0.009720240   -0.009766013
  29   C   :    0.025927519    0.030127934    0.012756602
  30   C   :   -0.022537147    0.002603586   -0.030936701
  31   C   :    0.008147020    0.007316616    0.004329015
  32   C   :   -0.008938602    0.012350485   -0.002154313
  33   C   :   -0.009379490   -0.000708719   -0.005335669
  34   C   :   -0.010824744   -0.014685379    0.066636455
  35   C   :    0.005943851   -0.005010839   -0.008462776
  36   C   :    0.005481484    0.025613761    0.003477447
  37   C   :   -0.042552524   -0.031481979    0.017806253
  38   C   :    0.006048473   -0.001586411    0.005855710
  39   C   :    0.001290861    0.016171296    0.000487716
  40   C   :    0.005747534    0.006475093    0.006043853
  41   C   :    0.003536415    0.001038320   -0.000085463
  42   C   :    0.001429168    0.005736226   -0.010878951
  43   C   :   -0.005209645    0.015308071   -0.002320437
  44   C   :   -0.002538354    0.015724181   -0.006218896
  45   C   :   -0.003704093    0.001928378    0.002045287
  46   O   :    0.027721569   -0.015330357    0.032931374
  47   C   :    0.005397903   -0.021512032    0.010749276
  48   C   :   -0.027129077   -0.190891087   -0.004606322
  49   C   :    0.186788291    0.053541233    0.002671268
  50   F   :    0.001337694   -0.026553749    0.003073827
  51   F   :   -0.021188335   -0.013430718   -0.016422149
  52   O   :   -0.001652799   -0.003304166   -0.062115540
  53   C   :    0.007399567    0.021222953    0.004163694
  54   C   :    0.018163425   -0.060554609    0.016316209
  55   C   :   -0.198794840    0.029304507   -0.019967966
  56   F   :    0.001413846   -0.017836050    0.026451589
  57   F   :    0.007971272   -0.025963651   -0.007124280
  58   N   :   -0.237741028   -0.086789303   -0.002286022
  59   N   :    0.043223170    0.248460998    0.001473189
  60   N   :    0.256042101   -0.024587792    0.003791148
  61   N   :   -0.018566797    0.051673668   -0.016005047
  62   C   :   -0.016922938    0.005093857   -0.002099020
  63   C   :    0.006223101    0.002105988   -0.000934896
  64   C   :    0.002023848    0.009989547    0.000702308
  65   H   :    0.000768097    0.003072384   -0.001555623
  66   H   :   -0.005628852    0.004089319    0.000260567
  67   H   :   -0.000340072   -0.007763647   -0.003765966
  68   H   :   -0.000307615   -0.007138432    0.004052509
  69   H   :   -0.003284054   -0.002105246   -0.008632633
  70   H   :   -0.011162186    0.000010866   -0.005807293
  71   H   :    0.002539348   -0.001123734    0.001071435
  72   H   :   -0.001932390    0.002340367   -0.005751614
  73   H   :    0.000452590    0.000429234   -0.002493546
  74   H   :   -0.004598842    0.001131990    0.002986665
  75   H   :    0.001265285    0.001018604    0.000251448
  76   H   :    0.000286927   -0.001319364   -0.003075113
  77   H   :    0.000462461   -0.001688371    0.003298528
  78   H   :    0.001429281    0.002591943    0.000742919
  79   H   :   -0.002061126   -0.005953572    0.004732667
  80   H   :   -0.002083157   -0.006736971   -0.002840579
  81   H   :    0.002503774   -0.001561058   -0.005714357
  82   H   :   -0.002527460   -0.002640005   -0.003558909
  83   H   :    0.003446933    0.003789461    0.009366339

Difference to translation invariance:
           :   -0.0000000003   -0.0000000001    0.0000000000

Norm of the cartesian gradient     ...    0.6310156644
RMS gradient                       ...    0.0399889929
MAX gradient                       ...    0.2560421014

-------
TIMINGS
-------

Total CIS gradient time            ...    13083.256 sec

Fock matrix formation       ....    1050.907 sec  (  8.0%)
  Coulomb formation         ....    1050.907 sec  (100.0% of F)
Z-vector equation           ....   10795.937 sec  ( 82.5%)
One electron gradient       ....       7.721 sec  (  0.1%)
Prescreening matrices       ....       0.896 sec  (  0.0%)
Two electron gradient       ....    1225.878 sec  (  9.4%)

                            ***************************************
                            *     ORCA property calculations      *
                            ***************************************

                                    ---------------------
                                    Active property flags
                                    ---------------------
   (+) Dipole Moment


------------------------------------------------------------------------------
                       ORCA ELECTRIC PROPERTIES CALCULATION
------------------------------------------------------------------------------

Dipole Moment Calculation                       ... on
Quadrupole Moment Calculation                   ... off
Polarizability Calculation                      ... off
GBWName                                         ... BTN-4F.gbw
Electron density file                           ... BTN-4F.scfp
The origin for moment calculation is the CENTER OF MASS  = ( 5.861267, -0.882727 -0.131183)

-------------
DIPOLE MOMENT
-------------
                                X             Y             Z
Electronic contribution:      7.90518     -26.75764       4.07479
Nuclear contribution   :     -7.96137      26.57389      -4.30435
                        -----------------------------------------
Total Dipole Moment    :     -0.05619      -0.18375      -0.22956
                        -----------------------------------------
Magnitude (a.u.)       :      0.29937
Magnitude (Debye)      :      0.76093



--------------------
Rotational spectrum 
--------------------
 
Rotational constants in cm-1:     0.003311     0.000280     0.000263 
Rotational constants in MHz :    99.261792     8.402558     7.882903 

 Dipole components along the rotational axes: 
x,y,z [a.u.] :    -0.078151     0.153329    -0.244954 
x,y,z [Debye]:    -0.198644     0.389731    -0.622625 

 

                        *** CIS RELAXED DENSITY ***

------------------------------------------------------------------------------
                       ORCA ELECTRIC PROPERTIES CALCULATION
------------------------------------------------------------------------------

Dipole Moment Calculation                       ... on
Quadrupole Moment Calculation                   ... off
Polarizability Calculation                      ... off
GBWName                                         ... BTN-4F.gbw
Electron density file                           ... BTN-4F.cisp
The origin for moment calculation is the CENTER OF MASS  = ( 5.861267, -0.882727 -0.131183)

-------------
DIPOLE MOMENT
-------------
                                X             Y             Z
Electronic contribution:     10.32008     -26.23239       4.03684
Nuclear contribution   :     -7.96137      26.57389      -4.30435
                        -----------------------------------------
Total Dipole Moment    :      2.35871       0.34150      -0.26751
                        -----------------------------------------
Magnitude (a.u.)       :      2.39827
Magnitude (Debye)      :      6.09591



--------------------
Rotational spectrum 
--------------------
 
Rotational constants in cm-1:     0.003311     0.000280     0.000263 
Rotational constants in MHz :    99.261792     8.402558     7.882903 

 Dipole components along the rotational axes: 
x,y,z [a.u.] :     2.386629    -0.030526    -0.233990 
x,y,z [Debye]:     6.066329    -0.077591    -0.594755 

 

Timings for individual modules:

Sum of individual times         ...    34305.767 sec (= 571.763 min)
GTO integral calculation        ...        1.909 sec (=   0.032 min)   0.0 %
SCF iterations                  ...     4025.138 sec (=  67.086 min)  11.7 %
CIS module                      ...    17193.873 sec (= 286.565 min)  50.1 %
SCF Gradient evaluation         ...    13084.847 sec (= 218.081 min)  38.1 %
                             ****ORCA TERMINATED NORMALLY****
TOTAL RUN TIME: 0 days 9 hours 31 minutes 47 seconds 998 msec
