
                                 *****************
                                 * O   R   C   A *
                                 *****************

           --- An Ab Initio, DFT and Semiempirical electronic structure package ---

                  #######################################################
                  #                        -***-                        #
                  #          Department of theory and spectroscopy      #
                  #               Directorship: Frank Neese             #
                  #        Max Planck Institute fuer Kohlenforschung    #
                  #                Kaiser Wilhelm Platz 1               #
                  #                 D-45470 Muelheim/Ruhr               #
                  #                      Germany                        #
                  #                                                     #
                  #                  All rights reserved                #
                  #                        -***-                        #
                  #######################################################


                         Program Version 4.2.0 -  RELEASE  -


 With contributions from (in alphabetic order):
   Daniel Aravena         : Magnetic Suceptibility
   Michael Atanasov       : Ab Initio Ligand Field Theory (pilot matlab implementation)
   Alexander A. Auer      : GIAO ZORA, VPT2
   Ute Becker             : Parallelization
   Giovanni Bistoni       : ED, misc. LED, open-shell LED, HFLED
   Martin Brehm           : Molecular dynamics
   Dmytro Bykov           : SCF Hessian
   Vijay G. Chilkuri      : MRCI spin determinant printing, contributions to CSF-ICE
   Dipayan Datta          : RHF DLPNO-CCSD density
   Achintya Kumar Dutta   : EOM-CC, STEOM-CC
   Dmitry Ganyushin       : Spin-Orbit,Spin-Spin,Magnetic field MRCI
   Miquel Garcia          : C-PCM Hessian, Gaussian charge scheme
   Yang Guo               : DLPNO-NEVPT2, CIM, IAO-localization
   Andreas Hansen         : Spin unrestricted coupled pair/coupled cluster methods
   Benjamin Helmich-Paris : CASSCF linear response (MC-RPA)
   Lee Huntington         : MR-EOM, pCC
   Robert Izsak           : Overlap fitted RIJCOSX, COSX-SCS-MP3, EOM
   Christian Kollmar      : KDIIS, OOCD, Brueckner-CCSD(T), CCSD density
   Simone Kossmann        : Meta GGA functionals, TD-DFT gradient, OOMP2, MP2 Hessian
   Martin Krupicka        : AUTO-CI
   Lucas Lang             : DCDCAS
   Dagmar Lenk            : GEPOL surface, SMD
   Dimitrios Liakos       : Extrapolation schemes; Compound Job, initial MDCI parallelization
   Dimitrios Manganas     : Further ROCIS development; embedding schemes
   Dimitrios Pantazis     : SARC Basis sets
   Taras Petrenko         : DFT Hessian,TD-DFT gradient, ASA, ECA, R-Raman, ABS, FL, XAS/XES, NRVS
   Peter Pinski           : DLPNO-MP2, DLPNO-MP2 Gradient
   Christoph Reimann      : Effective Core Potentials
   Marius Retegan         : Local ZFS, SOC
   Christoph Riplinger    : Optimizer, TS searches, QM/MM, DLPNO-CCSD(T), (RO)-DLPNO pert. Triples
   Tobias Risthaus        : Range-separated hybrids, TD-DFT gradient, RPA, STAB
   Michael Roemelt        : Original ROCIS implementation
   Masaaki Saitow         : Open-shell DLPNO-CCSD energy and density
   Barbara Sandhoefer     : DKH picture change effects
   Avijit Sen             : IP-ROCIS
   Kantharuban Sivalingam : CASSCF convergence, NEVPT2, FIC-MRCI
   Bernardo de Souza      : ESD, SOC TD-DFT
   Georgi Stoychev        : AutoAux, RI-MP2 NMR
   Willem Van den Heuvel  : Paramagnetic NMR
   Boris Wezisla          : Elementary symmetry handling
   Frank Wennmohs         : Technical directorship


 We gratefully acknowledge several colleagues who have allowed us to
 interface, adapt or use parts of their codes:
   Stefan Grimme, W. Hujo, H. Kruse,             : VdW corrections, initial TS optimization,
                  C. Bannwarth                     DFT functionals, gCP, sTDA/sTD-DF
   Ed Valeev, F. Pavosevic, A. Kumar             : LibInt (2-el integral package), F12 methods
   Garnet Chan, S. Sharma, J. Yang, R. Olivares  : DMRG
   Ulf Ekstrom                                   : XCFun DFT Library
   Mihaly Kallay                                 : mrcc  (arbitrary order and MRCC methods)
   Andreas Klamt, Michael Diedenhofen            : otool_cosmo (COSMO solvation model)
   Jiri Pittner, Ondrej Demel                    : Mk-CCSD
   Frank Weinhold                                : gennbo (NPA and NBO analysis)
   Christopher J. Cramer and Donald G. Truhlar   : smd solvation model
   Lars Goerigk                                  : TD-DFT with DH, B97 family of functionals
   V. Asgeirsson, H. Jonsson                     : NEB implementation
   FAccTs GmbH                                   : IRC, NEB, NEB-TS, Multilevel, MM, QM/MM, CI optimization
   S Lehtola, MJT Oliveira, MAL Marques          : LibXC Library


 Your calculation uses the libint2 library for the computation of 2-el integrals
 For citations please refer to: http://libint.valeyev.net

 Your ORCA version has been built with support for libXC version: 4.2.3
 For citations please refer to: https://tddft.org/programs/libxc/

 This ORCA versions uses:
   CBLAS   interface :  Fast vector & matrix operations
   LAPACKE interface :  Fast linear algebra routines
   SCALAPACK package :  Parallel linear algebra routines


----- Orbital basis set information -----
Your calculation utilizes the basis: def2-SVP
   F. Weigend and R. Ahlrichs, Phys. Chem. Chem. Phys. 7, 3297 (2005).

================================================================================
                                        WARNINGS
                       Please study these warnings very carefully!
================================================================================

INFO   : Checking CIS options ...

WARNING: CIS/ROCIS methods need fully converged wavefunctions
  ===> : Setting SCFConvForced true
         You can overwrite this default with %scf ConvForced false 


INFO   : the flag for use of LIBINT has been found!

================================================================================
                                       INPUT FILE
================================================================================
NAME = BTP-4Cl.inp
|  1> # ORCA input file
|  2> # BTP-4Cl.out
|  3> ! Engrad Keepdens
|  4> %maxcore 1000
|  5> %tddft
|  6>   nroots 3 
|  7>   # nroots is the number of states to be computed
|  8>   Iroot 1
|  9>   end
| 10> * xyz 0 1
| 11>    C        4.59755         2.87582         1.07531
| 12>    O        5.39216         2.17327         0.47468
| 13>    C        3.70908         3.89109         0.47533
| 14>    C        3.57391         4.24185        -0.85146
| 15>    C        2.65686         5.23304        -1.17927
| 16>   Cl        2.45262         5.69513        -2.82056
| 17>    C        1.89983         5.85060        -0.17863
| 18>   Cl        0.76836         7.07316        -0.59686
| 19>    C        2.04216         5.49383         1.15868
| 20>    C        2.95403         4.50559         1.48910
| 21>    C        3.32675         3.91708         2.77592
| 22>    C        2.81722         4.29679         3.99167
| 23>    C        3.17848         3.75788         5.24374
| 24>    N        3.41935         3.37722         6.30065
| 25>    C        1.84848         5.30859         4.16098
| 26>    N        1.06269         6.11838         4.37028
| 27>    C        4.32407         2.89989         2.51232
| 28>    C        4.89662         2.08581         3.46291
| 29>    C        5.85528         1.07743         3.35102
| 30>    S        6.64672         0.59327         1.84821
| 31>    C        7.55677        -0.59572         2.69830
| 32>    C        7.25364        -0.61134         4.07257
| 33>    C        6.30487         0.32547         4.45375
| 34>    C        5.80635         0.44801         5.85623
| 35>    C        4.51547        -0.35366         6.04658
| 36>    S        8.16234        -1.80782         4.97886
| 37>    C        8.94473        -2.27724         3.51058
| 38>    C        8.51866        -1.55889         2.38639
| 39>    N        9.18295        -1.99302         1.26783
| 40>    C        9.25690        -1.08742         0.14040
| 41>    C       10.32448        -0.01948         0.37118
| 42>    C       10.05313        -2.99516         1.66276
| 43>    C        9.93366        -3.16783         3.07427
| 44>    C       10.78167        -4.03687         3.79696
| 45>    N       10.80824        -4.26982         5.09957
| 46>    S       12.02585        -5.28821         5.41430
| 47>    N       12.56456        -5.47434         3.89922
| 48>    C       11.80900        -4.74598         3.09287
| 49>    C       11.85534        -4.65523         1.68347
| 50>    C       10.93519        -3.84765         0.94858
| 51>    N       11.11326        -4.10315        -0.39544
| 52>    C       10.26531        -3.81843        -1.53109
| 53>    C       10.89990        -2.80332        -2.48147
| 54>    C       12.13337        -5.00696        -0.52327
| 55>    C       12.62224        -5.35378         0.74401
| 56>    S       13.89334        -6.52471         0.70787
| 57>    C       13.75331        -6.57256        -1.04016
| 58>    C       12.76574        -5.70966        -1.55142
| 59>    S       12.64999        -5.80778        -3.26731
| 60>    C       13.93458        -7.01849        -3.29756
| 61>    C       14.42280        -7.30557        -2.00811
| 62>    C       15.47662        -8.31102        -1.67821
| 63>    C       14.88224        -9.71959        -1.59515
| 64>    C       14.41487        -7.64877        -4.44653
| 65>    C       14.04588        -7.52682        -5.76689
| 66>    C       14.61400        -8.28159        -6.86519
| 67>    C       15.59903        -9.23478        -6.80723
| 68>    C       16.09489        -9.92891        -7.93125
| 69>    N       16.54393       -10.53038        -8.79976
| 70>    C       16.26241        -9.66956        -5.64105
| 71>    N       16.85021       -10.08304        -4.74414
| 72>    C       13.93655        -7.84849        -8.08767
| 73>    C       14.07945        -8.24240        -9.40734
| 74>    C       13.27999        -7.64018       -10.37388
| 75>   Cl       13.45007        -8.12485       -12.01281
| 76>    C       12.34786        -6.65460       -10.03384
| 77>   Cl       11.37889        -5.93065       -11.25306
| 78>    C       12.20061        -6.25763        -8.71036
| 79>    C       12.99416        -6.85965        -7.75654
| 80>    C       13.02672        -6.62287        -6.29955
| 81>    O       12.33835        -5.82482        -5.68684
| 82>    H        4.16377         3.75625        -1.61305
| 83>    H        1.43979         5.99214         1.90004
| 84>    H        4.55070         2.23375         4.47666
| 85>    H        5.62745         1.49104         6.12094
| 86>    H        6.57235         0.05162         6.52560
| 87>    H        3.73149         0.01539         5.38949
| 88>    H        4.17499        -0.26244         7.07390
| 89>    H        4.68703        -1.40478         5.82679
| 90>    H        8.27621        -0.61324         0.04796
| 91>    H        9.46774        -1.62151        -0.77782
| 92>    H       11.30499        -0.47782         0.48434
| 93>    H       10.10342         0.55103         1.26974
| 94>    H       10.34946         0.66323        -0.47331
| 95>    H        9.28710        -3.49825        -1.16954
| 96>    H       10.12182        -4.75750        -2.07672
| 97>    H       10.18202        -2.51410        -3.24377
| 98>    H       11.75837        -3.24763        -2.97719
| 99>    H       11.23539        -1.91422        -1.95302
|100>    H       15.90489        -8.04890        -0.70893
|101>    H       16.27616        -8.29871        -2.42000
|102>    H       14.10754        -9.75906        -0.83336
|103>    H       15.66143       -10.43148        -1.33926
|104>    H       14.44899       -10.01306        -2.54805
|105>    H       15.20483        -8.35875        -4.24397
|106>    H       14.78632        -8.99739        -9.70938
|107>    H       11.48517        -5.49955        -8.43370
|108> *
|109> 
|110>                          ****END OF INPUT****
================================================================================

                     *******************************
                     * Energy+Gradient Calculation *
                     *******************************

---------------------------------
CARTESIAN COORDINATES (ANGSTROEM)
---------------------------------
  C      4.597550    2.875820    1.075310
  O      5.392160    2.173270    0.474680
  C      3.709080    3.891090    0.475330
  C      3.573910    4.241850   -0.851460
  C      2.656860    5.233040   -1.179270
  Cl     2.452620    5.695130   -2.820560
  C      1.899830    5.850600   -0.178630
  Cl     0.768360    7.073160   -0.596860
  C      2.042160    5.493830    1.158680
  C      2.954030    4.505590    1.489100
  C      3.326750    3.917080    2.775920
  C      2.817220    4.296790    3.991670
  C      3.178480    3.757880    5.243740
  N      3.419350    3.377220    6.300650
  C      1.848480    5.308590    4.160980
  N      1.062690    6.118380    4.370280
  C      4.324070    2.899890    2.512320
  C      4.896620    2.085810    3.462910
  C      5.855280    1.077430    3.351020
  S      6.646720    0.593270    1.848210
  C      7.556770   -0.595720    2.698300
  C      7.253640   -0.611340    4.072570
  C      6.304870    0.325470    4.453750
  C      5.806350    0.448010    5.856230
  C      4.515470   -0.353660    6.046580
  S      8.162340   -1.807820    4.978860
  C      8.944730   -2.277240    3.510580
  C      8.518660   -1.558890    2.386390
  N      9.182950   -1.993020    1.267830
  C      9.256900   -1.087420    0.140400
  C     10.324480   -0.019480    0.371180
  C     10.053130   -2.995160    1.662760
  C      9.933660   -3.167830    3.074270
  C     10.781670   -4.036870    3.796960
  N     10.808240   -4.269820    5.099570
  S     12.025850   -5.288210    5.414300
  N     12.564560   -5.474340    3.899220
  C     11.809000   -4.745980    3.092870
  C     11.855340   -4.655230    1.683470
  C     10.935190   -3.847650    0.948580
  N     11.113260   -4.103150   -0.395440
  C     10.265310   -3.818430   -1.531090
  C     10.899900   -2.803320   -2.481470
  C     12.133370   -5.006960   -0.523270
  C     12.622240   -5.353780    0.744010
  S     13.893340   -6.524710    0.707870
  C     13.753310   -6.572560   -1.040160
  C     12.765740   -5.709660   -1.551420
  S     12.649990   -5.807780   -3.267310
  C     13.934580   -7.018490   -3.297560
  C     14.422800   -7.305570   -2.008110
  C     15.476620   -8.311020   -1.678210
  C     14.882240   -9.719590   -1.595150
  C     14.414870   -7.648770   -4.446530
  C     14.045880   -7.526820   -5.766890
  C     14.614000   -8.281590   -6.865190
  C     15.599030   -9.234780   -6.807230
  C     16.094890   -9.928910   -7.931250
  N     16.543930  -10.530380   -8.799760
  C     16.262410   -9.669560   -5.641050
  N     16.850210  -10.083040   -4.744140
  C     13.936550   -7.848490   -8.087670
  C     14.079450   -8.242400   -9.407340
  C     13.279990   -7.640180  -10.373880
  Cl    13.450070   -8.124850  -12.012810
  C     12.347860   -6.654600  -10.033840
  Cl    11.378890   -5.930650  -11.253060
  C     12.200610   -6.257630   -8.710360
  C     12.994160   -6.859650   -7.756540
  C     13.026720   -6.622870   -6.299550
  O     12.338350   -5.824820   -5.686840
  H      4.163770    3.756250   -1.613050
  H      1.439790    5.992140    1.900040
  H      4.550700    2.233750    4.476660
  H      5.627450    1.491040    6.120940
  H      6.572350    0.051620    6.525600
  H      3.731490    0.015390    5.389490
  H      4.174990   -0.262440    7.073900
  H      4.687030   -1.404780    5.826790
  H      8.276210   -0.613240    0.047960
  H      9.467740   -1.621510   -0.777820
  H     11.304990   -0.477820    0.484340
  H     10.103420    0.551030    1.269740
  H     10.349460    0.663230   -0.473310
  H      9.287100   -3.498250   -1.169540
  H     10.121820   -4.757500   -2.076720
  H     10.182020   -2.514100   -3.243770
  H     11.758370   -3.247630   -2.977190
  H     11.235390   -1.914220   -1.953020
  H     15.904890   -8.048900   -0.708930
  H     16.276160   -8.298710   -2.420000
  H     14.107540   -9.759060   -0.833360
  H     15.661430  -10.431480   -1.339260
  H     14.448990  -10.013060   -2.548050
  H     15.204830   -8.358750   -4.243970
  H     14.786320   -8.997390   -9.709380
  H     11.485170   -5.499550   -8.433700

----------------------------
CARTESIAN COORDINATES (A.U.)
----------------------------
  NO LB      ZA    FRAG     MASS         X           Y           Z
   0 C     6.0000    0    12.011    8.688110    5.434512    2.032041
   1 O     8.0000    0    15.999   10.189706    4.106885    0.897015
   2 C     6.0000    0    12.011    7.009145    7.353094    0.898244
   3 C     6.0000    0    12.011    6.753711    8.015935   -1.609026
   4 C     6.0000    0    12.011    5.020738    9.889012   -2.228497
   5 Cl   17.0000    0    35.453    4.634780   10.762236   -5.330086
   6 C     6.0000    0    12.011    3.590158   11.056032   -0.337562
   7 Cl   17.0000    0    35.453    1.451990   13.366335   -1.127902
   8 C     6.0000    0    12.011    3.859123   10.381834    2.189588
   9 C     6.0000    0    12.011    5.582308    8.514331    2.813991
  10 C     6.0000    0    12.011    6.286646    7.402208    5.245729
  11 C     6.0000    0    12.011    5.323774    8.119756    7.543163
  12 C     6.0000    0    12.011    6.006457    7.101364    9.909233
  13 N     7.0000    0    14.007    6.461635    6.382021   11.906503
  14 C     6.0000    0    12.011    3.493121   10.031781    7.863113
  15 N     7.0000    0    14.007    2.008193   11.562063    8.258632
  16 C     6.0000    0    12.011    8.171308    5.479998    4.747597
  17 C     6.0000    0    12.011    9.253271    3.941610    6.543952
  18 C     6.0000    0    12.011   11.064876    2.036048    6.332510
  19 S    16.0000    0    32.060   12.560480    1.121118    3.492611
  20 C     6.0000    0    12.011   14.280226   -1.125748    5.099048
  21 C     6.0000    0    12.011   13.707393   -1.155265    7.696042
  22 C     6.0000    0    12.011   11.914478    0.615049    8.416368
  23 C     6.0000    0    12.011   10.972411    0.846616   11.066671
  24 C     6.0000    0    12.011    8.533002   -0.668321   11.426380
  25 S    16.0000    0    32.060   15.424587   -3.416285    9.408682
  26 C     6.0000    0    12.011   16.903090   -4.303360    6.634035
  27 C     6.0000    0    12.011   16.097934   -2.945875    4.509624
  28 N     7.0000    0    14.007   17.353261   -3.766262    2.395851
  29 C     6.0000    0    12.011   17.493006   -2.054926    0.265318
  30 C     6.0000    0    12.011   19.510440   -0.036812    0.701429
  31 C     6.0000    0    12.011   18.997662   -5.660032    3.142161
  32 C     6.0000    0    12.011   18.771897   -5.986331    5.809528
  33 C     6.0000    0    12.011   20.374404   -7.628579    7.175215
  34 N     7.0000    0    14.007   20.424614   -8.068790    9.636791
  35 S    16.0000    0    32.060   22.725563   -9.993269   10.231544
  36 N     7.0000    0    14.007   23.743577  -10.345003    7.368458
  37 C     6.0000    0    12.011   22.315776   -8.968602    5.844677
  38 C     6.0000    0    12.011   22.403346   -8.797110    3.181297
  39 C     6.0000    0    12.011   20.664514   -7.271005    1.792556
  40 N     7.0000    0    14.007   21.001018   -7.753830   -0.747273
  41 C     6.0000    0    12.011   19.398625   -7.215787   -2.893341
  42 C     6.0000    0    12.011   20.597826   -5.297507   -4.689299
  43 C     6.0000    0    12.011   22.928746   -9.461783   -0.988837
  44 C     6.0000    0    12.011   23.852577  -10.117178    1.405975
  45 S    16.0000    0    32.060   26.254608  -12.329915    1.337680
  46 C     6.0000    0    12.011   25.989989  -12.420338   -1.965618
  47 C     6.0000    0    12.011   24.123752  -10.789694   -2.931759
  48 S    16.0000    0    32.060   23.905017  -10.975114   -6.174321
  49 C     6.0000    0    12.011   26.332540  -13.263024   -6.231485
  50 C     6.0000    0    12.011   27.255142  -13.805527   -3.794778
  51 C     6.0000    0    12.011   29.246573  -15.705552   -3.171357
  52 C     6.0000    0    12.011   28.123358  -18.367363   -3.014397
  53 C     6.0000    0    12.011   27.240157  -14.454081   -8.402724
  54 C     6.0000    0    12.011   26.542867  -14.223628  -10.897843
  55 C     6.0000    0    12.011   27.616458  -15.649937  -12.973329
  56 C     6.0000    0    12.011   29.477895  -17.451205  -12.863800
  57 C     6.0000    0    12.011   30.414934  -18.762921  -14.987890
  58 N     7.0000    0    14.007   31.263497  -19.899534  -16.629136
  59 C     6.0000    0    12.011   30.731501  -18.272820  -10.660040
  60 N     7.0000    0    14.007   31.842282  -19.054184   -8.965125
  61 C     6.0000    0    12.011   26.336263  -14.831497  -15.283481
  62 C     6.0000    0    12.011   26.606305  -15.575879  -17.777296
  63 C     6.0000    0    12.011   25.095544  -14.437848  -19.603792
  64 Cl   17.0000    0    35.453   25.416949  -15.353741  -22.700921
  65 C     6.0000    0    12.011   23.334074  -12.575372  -18.961210
  66 Cl   17.0000    0    35.453   21.502986  -11.207304  -21.265202
  67 C     6.0000    0    12.011   23.055812  -11.825207  -16.460195
  68 C     6.0000    0    12.011   24.555404  -12.962860  -14.657736
  69 C     6.0000    0    12.011   24.616933  -12.515411  -11.904424
  70 O     8.0000    0    15.999   23.316102  -11.007315  -10.746570
  71 H     1.0000    0     1.008    7.868385    7.098284   -3.048223
  72 H     1.0000    0     1.008    2.720809   11.323504    3.590555
  73 H     1.0000    0     1.008    8.599577    4.221176    8.459661
  74 H     1.0000    0     1.008   10.634339    2.817657   11.566900
  75 H     1.0000    0     1.008   12.419942    0.097548   12.331597
  76 H     1.0000    0     1.008    7.051494    0.029083   10.184660
  77 H     1.0000    0     1.008    7.889588   -0.495940   13.367734
  78 H     1.0000    0     1.008    8.857203   -2.654649   11.011037
  79 H     1.0000    0     1.008   15.639770   -1.158856    0.090631
  80 H     1.0000    0     1.008   17.891436   -3.064210   -1.469867
  81 H     1.0000    0     1.008   21.363335   -0.902949    0.915270
  82 H     1.0000    0     1.008   19.092697    1.041296    2.399461
  83 H     1.0000    0     1.008   19.557645    1.253323   -0.894426
  84 H     1.0000    0     1.008   17.550076   -6.610734   -2.210110
  85 H     1.0000    0     1.008   19.127468   -8.990372   -3.924432
  86 H     1.0000    0     1.008   19.241229   -4.750960   -6.129837
  87 H     1.0000    0     1.008   22.220099   -6.137131   -5.626074
  88 H     1.0000    0     1.008   21.231810   -3.617352   -3.690673
  89 H     1.0000    0     1.008   30.055886  -15.210217   -1.339684
  90 H     1.0000    0     1.008   30.757485  -15.682289   -4.573137
  91 H     1.0000    0     1.008   26.659387  -18.441951   -1.574822
  92 H     1.0000    0     1.008   29.595814  -19.712640   -2.530835
  93 H     1.0000    0     1.008   27.304634  -18.921941   -4.815117
  94 H     1.0000    0     1.008   28.732965  -15.795748   -8.019941
  95 H     1.0000    0     1.008   27.942095  -17.002603  -18.348069
  96 H     1.0000    0     1.008   21.703826  -10.392643  -15.937383

--------------------------------
INTERNAL COORDINATES (ANGSTROEM)
--------------------------------
 C      0   0   0     0.000000000000     0.00000000     0.00000000
 O      1   0   0     1.218908508256     0.00000000     0.00000000
 C      1   2   0     1.476525690328   126.04064998     0.00000000
 C      3   1   2     1.379012404078   128.67014991     0.99477189
 C      4   3   1     1.389567455973   118.23549971   179.66293950
 Cl     5   4   3     1.717286816405   119.72882151   180.25929506
 C      5   4   3     1.398483172620   120.22804187     0.09328301
 Cl     7   5   4     1.717496331117   119.78313861   180.06829889
 C      7   5   4     1.391380860117   121.27239477     0.00000000
 C      9   7   5     1.384666953061   118.66734325   359.93182198
 C     10   9   7     1.463273703345   131.65449373   180.11474780
 C     11  10   9     1.371804857660   124.99029215   358.16324037
 C     12  11  10     1.410181570082   125.86958555   181.08838063
 N     13  12  11     1.148903451383   175.64448922   176.84399357
 C     12  11  10     1.410979200307   124.04514955     0.52924921
 N     15  12  11     1.147620258709   176.36369534   179.36277166
 C     11  10   9     1.448726212402   107.32100364   178.95091971
 C     17  11  10     1.376285252773   125.17146526   182.23922279
 C     18  17  11     1.395843326488   131.12184103   179.96063783
 S     19  18  17     1.766133085387   125.03070636     1.45971078
 C     20  19  18     1.721784315964    90.34645638   179.90120575
 C     21  20  19     1.407391137602   112.08178270     0.15290555
 C     22  21  20     1.386750042870   114.09593088   359.63421756
 C     23  22  21     1.493481969225   122.81482650   177.94709764
 C     24  23  22     1.531430405144   110.80180002   265.27048550
 S     22  21  20     1.754611536637   113.60228246   180.12011842
 C     26  22  21     1.728680250046    88.90285122     0.10043886
 C     21  20  19     1.396501582205   136.89160742   179.86702191
 N     28  21  20     1.371468750865   137.23183189     0.49549589
 C     29  28  21     1.447991148937   117.50323224    21.26598935
 C     30  29  28     1.527573994411   110.81163226    78.16246076
 C     29  28  21     1.384726513395   107.50901200   178.77067043
 C     27  26  22     1.400535436574   139.18808258   177.60549338
 C     33  27  26     1.413022405272   130.95900681   355.30975189
 N     34  33  27     1.323542398074   128.58358351     3.32879406
 S     35  34  33     1.618254391961   108.49842600   183.14005333
 N     36  35  34     1.618740327353    98.09016806   359.87210828
 C     37  36  35     1.323472525480   108.48046032   359.95557239
 C     38  37  36     1.413078666635   128.63114480   183.92187589
 C     32  29  28     1.419444298344   132.97280972   176.37028477
 N     40  32  29     1.379629999420   132.96756538   350.02794967
 C     41  40  32     1.445609076964   130.77761882   344.01629001
 C     42  41  40     1.528520501858   112.06919699   114.49082548
 C     41  40  32     1.368881819990   108.02508597   178.90842395
 C     39  38  37     1.399533066455   130.95258160     5.01390126
 S     45  39  38     1.728605904913   139.03204401   355.20564327
 C     46  45  39     1.754282447128    88.88915663   175.38375190
 C     44  41  40     1.396700228897   137.58919872   176.69844198
 S     48  44  41     1.722586453273   137.01234674     2.16281101
 C     49  48  44     1.765475923002    90.41465676   180.67565166
 C     47  46  45     1.386523610582   132.18312411   180.83966056
 C     51  47  46     1.493418998439   122.84959745     1.41658304
 C     52  51  47     1.531096336910   110.94219337    94.91050010
 C     50  49  48     1.395730426479   125.04123590   178.52767251
 C     54  50  49     1.376363306762   131.10515333   359.26658633
 C     55  54  50     1.448689399871   125.16888367   181.84342145
 C     56  55  54     1.371938277985   127.69924915     0.00000000
 C     57  56  55     1.411068586887   124.08520693   179.81248717
 N     58  57  56     1.147916679293   176.28307288   180.34904469
 C     57  56  55     1.410348348884   125.93256632   359.89425042
 N     60  57  56     1.149313751114   175.38002121   178.61146400
 C     56  55  54     1.463205885342   107.31504216   179.75599698
 C     62  56  55     1.384599005850   131.62937602   180.45885407
 C     63  62  56     1.391403892333   118.66211573   179.99355980
 Cl    64  63  62     1.717534209325   118.93563163   180.07385379
 C     64  63  62     1.398521174277   121.27030336     0.06898822
 Cl    66  64  63     1.717411969156   120.03346159   179.91127791
 C     66  64  63     1.389556423396   120.23436502   359.86392459
 C     68  66  64     1.379101981472   118.23256097     0.02607720
 C     55  54  50     1.462716439950   126.22027843     1.95325074
 O     70  55  54     1.219077767618   127.94963132     0.43853763
 H      4   3   1     1.078777784208   120.74038562   359.82274606
 H      9   7   5     1.077393671134   119.05025254   180.07337425
 H     18  17  11     1.081312143879   115.69146741     0.48593526
 H     24  23  22     1.090865791470   111.16583064   143.39488043
 H     24  23  22     1.091758777844   108.16556992    24.65796185
 H     25  24  23     1.087469452904   110.78900860   299.09603513
 H     25  24  23     1.086109617488   109.74573739   179.32288733
 H     25  24  23     1.087471255758   110.35756536    59.46301751
 H     30  29  28     1.093226738650   106.93550484   318.68935338
 H     30  29  28     1.082974423567   111.20280141   200.43412925
 H     31  30  29     1.088246571922   110.54532363    61.09757568
 H     31  30  29     1.087087511335   110.46626957   300.91870675
 H     31  30  29     1.086222953449   109.75622272   181.30988264
 H     42  41  40     1.090930079794   108.86943039   349.33522291
 H     42  41  40     1.095515377300   107.41357501   233.32227086
 H     43  42  41     1.086324625883   109.80151635   187.71412470
 H     43  42  41     1.086333482592   109.88828941    68.92102321
 H     43  42  41     1.087341598855   111.65090759   308.85381273
 H     52  51  47     1.091616143935   108.13916777   335.46418418
 H     52  51  47     1.090719098485   111.06526541   216.79256264
 H     53  52  51     1.087217538030   110.36664350   300.77378416
 H     53  52  51     1.086003738622   109.71288911   180.88840874
 H     53  52  51     1.087128609411   110.82449774    61.22769896
 H     54  50  49     1.081267291469   113.18514197   179.99919304
 H     63  62  56     1.077452207107   122.29251002     0.00000000
 H     68  66  64     1.078462069616   121.02720217   180.05951925

---------------------------
INTERNAL COORDINATES (A.U.)
---------------------------
 C      0   0   0     0.000000000000     0.00000000     0.00000000
 O      1   0   0     2.303403262911     0.00000000     0.00000000
 C      1   2   0     2.790229184420   126.04064998     0.00000000
 C      3   1   2     2.605955778987   128.67014991     0.99477189
 C      4   3   1     2.625901936399   118.23549971   179.66293950
 Cl     5   4   3     3.245201776400   119.72882151   180.25929506
 C      5   4   3     2.642750199148   120.22804187     0.09328301
 Cl     7   5   4     3.245597701825   119.78313861   180.06829889
 C      7   5   4     2.629328773601   121.27239477     0.00000000
 C      9   7   5     2.616641327977   118.66734325   359.93182198
 C     10   9   7     2.765186558290   131.65449373   180.11474780
 C     11  10   9     2.592335490161   124.99029215   358.16324037
 C     12  11  10     2.664856966559   125.86958555   181.08838063
 N     13  12  11     2.171112877431   175.64448922   176.84399357
 C     12  11  10     2.666364269240   124.04514955     0.52924921
 N     15  12  11     2.168687994700   176.36369534   179.36277166
 C     11  10   9     2.737695784472   107.32100364   178.95091971
 C     17  11  10     2.600802209895   125.17146526   182.23922279
 C     18  17  11     2.637761612923   131.12184103   179.96063783
 S     19  18  17     3.337507847440   125.03070636     1.45971078
 C     20  19  18     3.253700818853    90.34645638   179.90120575
 C     21  20  19     2.659583813375   112.08178270     0.15290555
 C     22  21  20     2.620577797228   114.09593088   359.63421756
 C     23  22  21     2.822271907785   122.81482650   177.94709764
 C     24  23  22     2.893984058883   110.80180002   265.27048550
 S     22  21  20     3.315735275663   113.60228246   180.12011842
 C     26  22  21     3.266732245706    88.90285122     0.10043886
 C     21  20  19     2.639005535954   136.89160742   179.86702191
 N     28  21  20     2.591700340366   137.23183189     0.49549589
 C     29  28  21     2.736306715833   117.50323224    21.26598935
 C     30  29  28     2.886696498736   110.81163226    78.16246076
 C     29  28  21     2.616753880697   107.50901200   178.77067043
 C     27  26  22     2.646628415977   139.18808258   177.60549338
 C     33  27  26     2.670225367058   130.95900681   355.30975189
 N     34  33  27     2.501132658994   128.58358351     3.32879406
 S     35  34  33     3.058057615821   108.49842600   183.14005333
 N     36  35  34     3.058975900632    98.09016806   359.87210828
 C     37  36  35     2.501000618926   108.48046032   359.95557239
 C     38  37  36     2.670331685627   128.63114480   183.92187589
 C     32  29  28     2.682360986225   132.97280972   176.37028477
 N     40  32  29     2.607122865046   132.96756538   350.02794967
 C     41  40  32     2.731805252172   130.77761882   344.01629001
 C     42  41  40     2.888485138595   112.06919699   114.49082548
 C     41  40  32     2.586811749485   108.02508597   178.90842395
 C     39  38  37     2.644734210966   130.95258160     5.01390126
 S     45  39  38     3.266591753765   139.03204401   355.20564327
 C     46  45  39     3.315113386616    88.88915663   175.38375190
 C     44  41  40     2.639380923800   137.58919872   176.69844198
 S     48  44  41     3.255216638689   137.01234674     2.16281101
 C     49  48  44     3.336265990506    90.41465676   180.67565166
 C     47  46  45     2.620149902215   132.18312411   180.83966056
 C     51  47  46     2.822152910246   122.84959745     1.41658304
 C     52  51  47     2.893352761410   110.94219337    94.91050010
 C     50  49  48     2.637548262827   125.04123590   178.52767251
 C     54  50  49     2.600949710558   131.10515333   359.26658633
 C     55  54  50     2.737626218872   125.16888367   181.84342145
 C     56  55  54     2.592587618035   127.69924915     0.00000000
 C     57  56  55     2.666533185396   124.08520693   179.81248717
 N     58  57  56     2.169248148425   176.28307288   180.34904469
 C     57  56  55     2.665172132819   125.93256632   359.89425042
 N     60  57  56     2.171888231555   175.38002121   178.61146400
 C     56  55  54     2.765058400839   107.31504216   179.75599698
 C     62  56  55     2.616512926356   131.62937602   180.45885407
 C     63  62  56     2.629372298182   118.66211573   179.99355980
 Cl    64  63  62     3.245669281264   118.93563163   180.07385379
 C     64  63  62     2.642822011873   121.27030336     0.06898822
 Cl    66  64  63     3.245438280823   120.03346159   179.91127791
 C     66  64  63     2.625881087849   120.23436502   359.86392459
 C     68  66  64     2.606125055730   118.23256097     0.02607720
 C     55  54  50     2.764133483090   126.22027843     1.95325074
 O     70  55  54     2.303723116750   127.94963132     0.43853763
 H      4   3   1     2.038594571511   120.74038562   359.82274606
 H      9   7   5     2.035978976864   119.05025254   180.07337425
 H     18  17  11     2.043383817214   115.69146741     0.48593526
 H     24  23  22     2.061437594742   111.16583064   143.39488043
 H     24  23  22     2.063125094430   108.16556992    24.65796185
 H     25  24  23     2.055019444994   110.78900860   299.09603513
 H     25  24  23     2.052449728470   109.74573739   179.32288733
 H     25  24  23     2.055022851894   110.35756536    59.46301751
 H     30  29  28     2.065899138329   106.93550484   318.68935338
 H     30  29  28     2.046525070583   111.20280141   200.43412925
 H     31  30  29     2.056487987111   110.54532363    61.09757568
 H     31  30  29     2.054297680029   110.46626957   300.91870675
 H     31  30  29     2.052663902398   109.75622272   181.30988264
 H     42  41  40     2.061559082068   108.86943039   349.33522291
 H     42  41  40     2.070224038596   107.41357501   233.32227086
 H     43  42  41     2.052856035453   109.80151635   187.71412470
 H     43  42  41     2.052872772207   109.88828941    68.92102321
 H     43  42  41     2.054777835856   111.65090759   308.85381273
 H     52  51  47     2.062855555405   108.13916777   335.46418418
 H     52  51  47     2.061160385174   111.06526541   216.79256264
 H     53  52  51     2.054543394873   110.36664350   300.77378416
 H     53  52  51     2.052249646409   109.71288911   180.88840874
 H     53  52  51     2.054375344138   110.82449774    61.22769896
 H     54  50  49     2.043299058443   113.18514197   179.99919304
 H     63  62  56     2.036089593821   122.29251002     0.00000000
 H     68  66  64     2.037997957396   121.02720217   180.05951925

---------------------
BASIS SET INFORMATION
---------------------
There are 6 groups of distinct atoms

 Group   1 Type C   : 7s4p1d contracted to 3s2p1d pattern {511/31/1}
 Group   2 Type O   : 7s4p1d contracted to 3s2p1d pattern {511/31/1}
 Group   3 Type Cl  : 10s7p1d contracted to 4s3p1d pattern {5311/511/1}
 Group   4 Type N   : 7s4p1d contracted to 3s2p1d pattern {511/31/1}
 Group   5 Type S   : 10s7p1d contracted to 4s3p1d pattern {5311/511/1}
 Group   6 Type H   : 4s1p contracted to 2s1p pattern {31/1}

Atom   0C    basis set group =>   1
Atom   1O    basis set group =>   2
Atom   2C    basis set group =>   1
Atom   3C    basis set group =>   1
Atom   4C    basis set group =>   1
Atom   5Cl   basis set group =>   3
Atom   6C    basis set group =>   1
Atom   7Cl   basis set group =>   3
Atom   8C    basis set group =>   1
Atom   9C    basis set group =>   1
Atom  10C    basis set group =>   1
Atom  11C    basis set group =>   1
Atom  12C    basis set group =>   1
Atom  13N    basis set group =>   4
Atom  14C    basis set group =>   1
Atom  15N    basis set group =>   4
Atom  16C    basis set group =>   1
Atom  17C    basis set group =>   1
Atom  18C    basis set group =>   1
Atom  19S    basis set group =>   5
Atom  20C    basis set group =>   1
Atom  21C    basis set group =>   1
Atom  22C    basis set group =>   1
Atom  23C    basis set group =>   1
Atom  24C    basis set group =>   1
Atom  25S    basis set group =>   5
Atom  26C    basis set group =>   1
Atom  27C    basis set group =>   1
Atom  28N    basis set group =>   4
Atom  29C    basis set group =>   1
Atom  30C    basis set group =>   1
Atom  31C    basis set group =>   1
Atom  32C    basis set group =>   1
Atom  33C    basis set group =>   1
Atom  34N    basis set group =>   4
Atom  35S    basis set group =>   5
Atom  36N    basis set group =>   4
Atom  37C    basis set group =>   1
Atom  38C    basis set group =>   1
Atom  39C    basis set group =>   1
Atom  40N    basis set group =>   4
Atom  41C    basis set group =>   1
Atom  42C    basis set group =>   1
Atom  43C    basis set group =>   1
Atom  44C    basis set group =>   1
Atom  45S    basis set group =>   5
Atom  46C    basis set group =>   1
Atom  47C    basis set group =>   1
Atom  48S    basis set group =>   5
Atom  49C    basis set group =>   1
Atom  50C    basis set group =>   1
Atom  51C    basis set group =>   1
Atom  52C    basis set group =>   1
Atom  53C    basis set group =>   1
Atom  54C    basis set group =>   1
Atom  55C    basis set group =>   1
Atom  56C    basis set group =>   1
Atom  57C    basis set group =>   1
Atom  58N    basis set group =>   4
Atom  59C    basis set group =>   1
Atom  60N    basis set group =>   4
Atom  61C    basis set group =>   1
Atom  62C    basis set group =>   1
Atom  63C    basis set group =>   1
Atom  64Cl   basis set group =>   3
Atom  65C    basis set group =>   1
Atom  66Cl   basis set group =>   3
Atom  67C    basis set group =>   1
Atom  68C    basis set group =>   1
Atom  69C    basis set group =>   1
Atom  70O    basis set group =>   2
Atom  71H    basis set group =>   6
Atom  72H    basis set group =>   6
Atom  73H    basis set group =>   6
Atom  74H    basis set group =>   6
Atom  75H    basis set group =>   6
Atom  76H    basis set group =>   6
Atom  77H    basis set group =>   6
Atom  78H    basis set group =>   6
Atom  79H    basis set group =>   6
Atom  80H    basis set group =>   6
Atom  81H    basis set group =>   6
Atom  82H    basis set group =>   6
Atom  83H    basis set group =>   6
Atom  84H    basis set group =>   6
Atom  85H    basis set group =>   6
Atom  86H    basis set group =>   6
Atom  87H    basis set group =>   6
Atom  88H    basis set group =>   6
Atom  89H    basis set group =>   6
Atom  90H    basis set group =>   6
Atom  91H    basis set group =>   6
Atom  92H    basis set group =>   6
Atom  93H    basis set group =>   6
Atom  94H    basis set group =>   6
Atom  95H    basis set group =>   6
Atom  96H    basis set group =>   6
------------------------------------------------------------------------------
                           ORCA GTO INTEGRAL CALCULATION
------------------------------------------------------------------------------

                         BASIS SET STATISTICS AND STARTUP INFO

 # of primitive gaussian shells          ... 1036
 # of primitive gaussian functions       ... 1994
 # of contracted shells                  ...  522
 # of contracted basis functions         ... 1160
 Highest angular momentum                ...    2
 Maximum contraction depth               ...    5
 Integral package used                   ... LIBINT
 Integral threshhold            Thresh   ...  2.500e-11
 Primitive cut-off              TCut     ...  2.500e-12


------------------------------ INTEGRAL EVALUATION ----------------------------


 * One electron integrals 
 Pre-screening matrix                    ... done
 Shell pair data                         ... done (   0.017 sec)

-------------------------------------------------------------------------------
                                 ORCA SCF
-------------------------------------------------------------------------------

------------
SCF SETTINGS
------------
Hamiltonian:
 Ab initio Hamiltonian  Method          .... Hartree-Fock(GTOs)


General Settings:
 Integral files         IntName         .... BTP-4Cl
 Hartree-Fock type      HFTyp           .... RHF
 Total Charge           Charge          ....    0
 Multiplicity           Mult            ....    1
 Number of Electrons    NEL             ....  558
 Basis Dimension        Dim             .... 1160
 Nuclear Repulsion      ENuc            ....  11815.6975455998 Eh

Convergence Acceleration:
 DIIS                   CNVDIIS         .... on
   Start iteration      DIISMaxIt       ....    12
   Startup error        DIISStart       ....  0.200000
   # of expansion vecs  DIISMaxEq       ....     5
   Bias factor          DIISBfac        ....   1.050
   Max. coefficient     DIISMaxC        ....  10.000
 Newton-Raphson         CNVNR           .... off
 SOSCF                  CNVSOSCF        .... on
   Start iteration      SOSCFMaxIt      ....   150
   Startup grad/error   SOSCFStart      ....  0.003300
 Level Shifting         CNVShift        .... on
   Level shift para.    LevelShift      ....    0.2500
   Turn off err/grad.   ShiftErr        ....    0.0010
 Zerner damping         CNVZerner       .... off
 Static damping         CNVDamp         .... on
   Fraction old density DampFac         ....    0.7000
   Max. Damping (<1)    DampMax         ....    0.9800
   Min. Damping (>=0)   DampMin         ....    0.0000
   Turn off err/grad.   DampErr         ....    0.1000
 Fernandez-Rico         CNVRico         .... off

SCF Procedure:
 Maximum # iterations   MaxIter         ....   125
 SCF integral mode      SCFMode         .... Direct
   Integral package                     .... LIBINT
 Reset frequency        DirectResetFreq ....    20
 Integral Threshold     Thresh          ....  2.500e-11 Eh
 Primitive CutOff       TCut            ....  2.500e-12 Eh

Convergence Tolerance:
 Convergence Check Mode ConvCheckMode   .... Total+1el-Energy
 Convergence forced     ConvForced      .... 1
 Energy Change          TolE            ....  1.000e-08 Eh
 1-El. energy change                    ....  1.000e-05 Eh
 Orbital Gradient       TolG            ....  1.000e-05
 Orbital Rotation angle TolX            ....  1.000e-05
 DIIS Error             TolErr          ....  5.000e-07


Diagonalization of the overlap matrix:
Smallest eigenvalue                        ... 9.647e-05
Time for diagonalization                   ...    0.323 sec
Threshold for overlap eigenvalues          ... 1.000e-08
Number of eigenvalues below threshold      ... 0
Time for construction of square roots      ...    0.127 sec
Total time needed                          ...    0.455 sec

-------------------
DFT GRID GENERATION
-------------------

General Integration Accuracy     IntAcc      ...  4.340
Radial Grid Type                 RadialGrid  ... Gauss-Chebyshev
Angular Grid (max. acc.)         AngularGrid ... Lebedev-110
Angular grid pruning method      GridPruning ... 3 (G Style)
Weight generation scheme         WeightScheme... Becke
Basis function cutoff            BFCut       ...    1.0000e-11
Integration weight cutoff        WCut        ...    1.0000e-14
Grids for H and He will be reduced by one unit

# of grid points (after initial pruning)     ... 140210 (   0.2 sec)
# of grid points (after weights+screening)   ... 123114 (   5.4 sec)
nearest neighbour list constructed           ...    0.0 sec
Grid point re-assignment to atoms done       ...    0.0 sec
Grid point division into batches done        ...    0.1 sec
Reduced shell lists constructed in    2.0 sec

Total number of grid points                  ...   123114
Total number of batches                      ...     1976
Average number of points per batch           ...       62
Average number of grid points per atom       ...     1269
Average number of shells per batch           ...   106.68 (20.44%)
Average number of basis functions per batch  ...   223.41 (19.26%)
Average number of large shells per batch     ...    64.55 (60.51%)
Average number of large basis fcns per batch ...   137.41 (61.51%)
Maximum spatial batch extension              ...  23.56, 23.97, 19.50 au
Average spatial batch extension              ...   3.59,  3.54,  3.04 au

Time for grid setup =    7.525 sec

------------------------------
INITIAL GUESS: MODEL POTENTIAL
------------------------------
Loading Hartree-Fock densities                     ... done
Calculating cut-offs                               ... done
Setting up the integral package                    ... done
Initializing the effective Hamiltonian             ... done
Starting the Coulomb interaction                   ... done (   8.2 sec)
Reading the grid                                   ... done
Mapping shells                                     ... done
Starting the XC term evaluation                    ... done (   1.8 sec)
Transforming the Hamiltonian                       ... done (   0.1 sec)
Diagonalizing the Hamiltonian                      ... done (   0.3 sec)
Back transforming the eigenvectors                 ... done (   0.0 sec)
Now organizing SCF variables                       ... done
                      ------------------
                      INITIAL GUESS DONE (  18.2 sec)
                      ------------------
--------------
SCF ITERATIONS
--------------
ITER       Energy         Delta-E        Max-DP      RMS-DP      [F,P]     Damp
               ***  Starting incremental Fock matrix formation  ***
  0  -6389.7451334432   0.000000000000 0.10925010  0.00151510  0.2243537 0.7000
  1  -6390.4806221282  -0.735488685070 0.08217102  0.00115783  0.1379789 0.7000
                               ***Turning on DIIS***
  2  -6390.9262831849  -0.445661056663 0.19603269  0.00269956  0.0781207 0.0000
  3  -6388.3727866381   2.553496546829 0.07725038  0.00054195  0.0490311 0.0000
  4  -6392.1911555957  -3.818368957582 0.01527682  0.00022972  0.0158653 0.0000
  5  -6392.0493359140   0.141819681710 0.00714303  0.00010976  0.0076532 0.0000
  6  -6391.8267510690   0.222584844985 0.00711136  0.00006911  0.0032361 0.0000
                      *** Initiating the SOSCF procedure ***
                           *** Shutting down DIIS ***
                      *** Re-Reading the Fockian *** 
                      *** Removing any level shift *** 
ITER      Energy       Delta-E        Grad      Rot      Max-DP    RMS-DP
  7  -6391.91890790  -0.0921568311  0.003250  0.003250  0.003734  0.000042
               *** Restarting incremental Fock matrix formation ***
  8  -6391.90310172   0.0158061812  0.002004  0.008327  0.002668  0.000028
  9  -6391.90335389  -0.0002521664  0.000671  0.007819  0.004412  0.000040
 10  -6391.90347052  -0.0001166340  0.000290  0.000858  0.000810  0.000009
 11  -6391.90347901  -0.0000084916  0.000207  0.000781  0.000305  0.000003
 12  -6391.90348150  -0.0000024933  0.000036  0.000155  0.000127  0.000001
 13  -6391.90348175  -0.0000002490  0.000017  0.000099  0.000106  0.000001
 14  -6391.90348183  -0.0000000768  0.000007  0.000038  0.000030  0.000000
 15  -6391.90348186  -0.0000000300  0.000004  0.000018  0.000010  0.000000
                  ***Gradient check signals convergence***
              ***Rediagonalizing the Fockian in SOSCF/NRSCF***

               *****************************************************
               *                     SUCCESS                       *
               *           SCF CONVERGED AFTER  16 CYCLES          *
               *****************************************************


----------------
TOTAL SCF ENERGY
----------------

Total Energy       :        -6391.90348183 Eh         -173932.53630 eV

Components:
Nuclear Repulsion  :        11815.69754560 Eh          321521.47605 eV
Electronic Energy  :       -18207.60102743 Eh         -495454.01235 eV
One Electron Energy:       -32325.54048711 Eh         -879622.67581 eV
Two Electron Energy:        14117.93945968 Eh          384168.66346 eV

Virial components:
Potential Energy   :       -12773.94918175 Eh         -347596.82872 eV
Kinetic Energy     :         6382.04569992 Eh          173664.29242 eV
Virial Ratio       :            2.00154461


---------------
SCF CONVERGENCE
---------------

  Last Energy change         ...    2.9140e-08  Tolerance :   1.0000e-08
  Last MAX-Density change    ...    7.4896e-06  Tolerance :   1.0000e-07
  Last RMS-Density change    ...    7.6313e-08  Tolerance :   5.0000e-09
  Last Orbital Gradient      ...    1.4873e-06  Tolerance :   1.0000e-05
  Last Orbital Rotation      ...    9.7867e-06  Tolerance :   1.0000e-05

             **** THE GBW FILE WAS UPDATED (BTP-4Cl.gbw) ****
             **** DENSITY FILE WAS UPDATED (BTP-4Cl.scfp) ****
             **** ENERGY FILE WAS UPDATED (BTP-4Cl.en.tmp) ****
             **** THE GBW FILE WAS UPDATED (BTP-4Cl.gbw) ****
             **** DENSITY FILE WAS UPDATED (BTP-4Cl.scfp) ****
----------------
ORBITAL ENERGIES
----------------

  NO   OCC          E(Eh)            E(eV) 
   0   2.0000    -104.825877     -2852.4571 
   1   2.0000    -104.825838     -2852.4561 
   2   2.0000    -104.822976     -2852.3782 
   3   2.0000    -104.822933     -2852.3770 
   4   2.0000     -92.026628     -2504.1719 
   5   2.0000     -91.979367     -2502.8858 
   6   2.0000     -91.978946     -2502.8744 
   7   2.0000     -91.978836     -2502.8714 
   8   2.0000     -91.978514     -2502.8626 
   9   2.0000     -20.573125      -559.8232 
  10   2.0000     -20.573026      -559.8205 
  11   2.0000     -15.660885      -426.1544 
  12   2.0000     -15.657891      -426.0729 
  13   2.0000     -15.616201      -424.9384 
  14   2.0000     -15.615352      -424.9153 
  15   2.0000     -15.597078      -424.4181 
  16   2.0000     -15.596964      -424.4150 
  17   2.0000     -15.588756      -424.1916 
  18   2.0000     -15.588754      -424.1915 
  19   2.0000     -11.371225      -309.4268 
  20   2.0000     -11.371086      -309.4230 
  21   2.0000     -11.347355      -308.7772 
  22   2.0000     -11.347295      -308.7756 
  23   2.0000     -11.345886      -308.7372 
  24   2.0000     -11.345823      -308.7355 
  25   2.0000     -11.344979      -308.7126 
  26   2.0000     -11.344969      -308.7123 
  27   2.0000     -11.339699      -308.5689 
  28   2.0000     -11.338277      -308.5302 
  29   2.0000     -11.323708      -308.1338 
  30   2.0000     -11.323598      -308.1308 
  31   2.0000     -11.320867      -308.0565 
  32   2.0000     -11.320849      -308.0560 
  33   2.0000     -11.318399      -307.9893 
  34   2.0000     -11.314731      -307.8895 
  35   2.0000     -11.313632      -307.8596 
  36   2.0000     -11.312796      -307.8368 
  37   2.0000     -11.312786      -307.8366 
  38   2.0000     -11.311825      -307.8104 
  39   2.0000     -11.310833      -307.7834 
  40   2.0000     -11.310316      -307.7694 
  41   2.0000     -11.308849      -307.7294 
  42   2.0000     -11.308799      -307.7281 
  43   2.0000     -11.306467      -307.6646 
  44   2.0000     -11.306274      -307.6593 
  45   2.0000     -11.302949      -307.5689 
  46   2.0000     -11.302915      -307.5680 
  47   2.0000     -11.300197      -307.4940 
  48   2.0000     -11.300172      -307.4933 
  49   2.0000     -11.299873      -307.4852 
  50   2.0000     -11.299745      -307.4817 
  51   2.0000     -11.298416      -307.4455 
  52   2.0000     -11.298318      -307.4429 
  53   2.0000     -11.297479      -307.4200 
  54   2.0000     -11.297390      -307.4176 
  55   2.0000     -11.296363      -307.3897 
  56   2.0000     -11.296330      -307.3888 
  57   2.0000     -11.292639      -307.2883 
  58   2.0000     -11.292635      -307.2882 
  59   2.0000     -11.288598      -307.1784 
  60   2.0000     -11.288510      -307.1760 
  61   2.0000     -11.282180      -307.0037 
  62   2.0000     -11.280072      -306.9464 
  63   2.0000     -11.274565      -306.7965 
  64   2.0000     -11.274497      -306.7947 
  65   2.0000     -11.264987      -306.5359 
  66   2.0000     -11.264891      -306.5333 
  67   2.0000     -11.259702      -306.3921 
  68   2.0000     -11.256707      -306.3106 
  69   2.0000     -11.244354      -305.9744 
  70   2.0000     -11.243088      -305.9400 
  71   2.0000     -10.589656      -288.1592 
  72   2.0000     -10.589619      -288.1582 
  73   2.0000     -10.586768      -288.0806 
  74   2.0000     -10.586727      -288.0795 
  75   2.0000      -9.058456      -246.4931 
  76   2.0000      -9.013332      -245.2652 
  77   2.0000      -9.013044      -245.2574 
  78   2.0000      -9.012864      -245.2525 
  79   2.0000      -9.012447      -245.2412 
  80   2.0000      -8.064759      -219.4532 
  81   2.0000      -8.064723      -219.4523 
  82   2.0000      -8.061867      -219.3746 
  83   2.0000      -8.061826      -219.3734 
  84   2.0000      -8.060973      -219.3502 
  85   2.0000      -8.060968      -219.3501 
  86   2.0000      -8.060936      -219.3492 
  87   2.0000      -8.060931      -219.3491 
  88   2.0000      -8.058072      -219.2713 
  89   2.0000      -8.058059      -219.2709 
  90   2.0000      -8.058031      -219.2702 
  91   2.0000      -8.058017      -219.2698 
  92   2.0000      -6.745753      -183.5613 
  93   2.0000      -6.743925      -183.5115 
  94   2.0000      -6.742271      -183.4665 
  95   2.0000      -6.700880      -182.3402 
  96   2.0000      -6.700592      -182.3324 
  97   2.0000      -6.700075      -182.3183 
  98   2.0000      -6.700064      -182.3180 
  99   2.0000      -6.699775      -182.3101 
 100   2.0000      -6.699664      -182.3071 
 101   2.0000      -6.698684      -182.2805 
 102   2.0000      -6.698274      -182.2693 
 103   2.0000      -6.697714      -182.2541 
 104   2.0000      -6.697422      -182.2461 
 105   2.0000      -6.696634      -182.2247 
 106   2.0000      -6.696227      -182.2136 
 107   2.0000      -1.406809       -38.2812 
 108   2.0000      -1.406730       -38.2791 
 109   2.0000      -1.367309       -37.2064 
 110   2.0000      -1.355551       -36.8864 
 111   2.0000      -1.348933       -36.7063 
 112   2.0000      -1.260025       -34.2870 
 113   2.0000      -1.259990       -34.2861 
 114   2.0000      -1.247599       -33.9489 
 115   2.0000      -1.247517       -33.9467 
 116   2.0000      -1.236293       -33.6412 
 117   2.0000      -1.234495       -33.5923 
 118   2.0000      -1.229433       -33.4546 
 119   2.0000      -1.229191       -33.4480 
 120   2.0000      -1.212391       -32.9908 
 121   2.0000      -1.212330       -32.9892 
 122   2.0000      -1.199353       -32.6361 
 123   2.0000      -1.180141       -32.1133 
 124   2.0000      -1.165699       -31.7203 
 125   2.0000      -1.163159       -31.6512 
 126   2.0000      -1.163128       -31.6503 
 127   2.0000      -1.159114       -31.5411 
 128   2.0000      -1.138874       -30.9903 
 129   2.0000      -1.136521       -30.9263 
 130   2.0000      -1.115371       -30.3508 
 131   2.0000      -1.102908       -30.0117 
 132   2.0000      -1.097453       -29.8632 
 133   2.0000      -1.091911       -29.7124 
 134   2.0000      -1.086935       -29.5770 
 135   2.0000      -1.080179       -29.3932 
 136   2.0000      -1.063989       -28.9526 
 137   2.0000      -1.058312       -28.7981 
 138   2.0000      -1.054270       -28.6881 
 139   2.0000      -1.054211       -28.6865 
 140   2.0000      -1.044991       -28.4356 
 141   2.0000      -1.034233       -28.1429 
 142   2.0000      -1.017405       -27.6850 
 143   2.0000      -1.010147       -27.4875 
 144   2.0000      -1.002528       -27.2802 
 145   2.0000      -0.983320       -26.7575 
 146   2.0000      -0.971483       -26.4354 
 147   2.0000      -0.967395       -26.3242 
 148   2.0000      -0.954820       -25.9820 
 149   2.0000      -0.937572       -25.5126 
 150   2.0000      -0.935710       -25.4620 
 151   2.0000      -0.923183       -25.1211 
 152   2.0000      -0.913405       -24.8550 
 153   2.0000      -0.908012       -24.7083 
 154   2.0000      -0.895708       -24.3735 
 155   2.0000      -0.882711       -24.0198 
 156   2.0000      -0.877362       -23.8742 
 157   2.0000      -0.871920       -23.7262 
 158   2.0000      -0.865363       -23.5477 
 159   2.0000      -0.849490       -23.1158 
 160   2.0000      -0.844969       -22.9928 
 161   2.0000      -0.840635       -22.8748 
 162   2.0000      -0.839745       -22.8506 
 163   2.0000      -0.832108       -22.6428 
 164   2.0000      -0.810150       -22.0453 
 165   2.0000      -0.799300       -21.7501 
 166   2.0000      -0.797051       -21.6888 
 167   2.0000      -0.790379       -21.5073 
 168   2.0000      -0.770035       -20.9537 
 169   2.0000      -0.765047       -20.8180 
 170   2.0000      -0.761291       -20.7158 
 171   2.0000      -0.755777       -20.5657 
 172   2.0000      -0.753989       -20.5171 
 173   2.0000      -0.751364       -20.4457 
 174   2.0000      -0.743463       -20.2307 
 175   2.0000      -0.733624       -19.9629 
 176   2.0000      -0.721344       -19.6288 
 177   2.0000      -0.715251       -19.4630 
 178   2.0000      -0.710525       -19.3344 
 179   2.0000      -0.706644       -19.2288 
 180   2.0000      -0.704513       -19.1708 
 181   2.0000      -0.692613       -18.8470 
 182   2.0000      -0.687521       -18.7084 
 183   2.0000      -0.687046       -18.6955 
 184   2.0000      -0.681055       -18.5325 
 185   2.0000      -0.672283       -18.2938 
 186   2.0000      -0.670510       -18.2455 
 187   2.0000      -0.666415       -18.1341 
 188   2.0000      -0.662056       -18.0155 
 189   2.0000      -0.660160       -17.9639 
 190   2.0000      -0.657792       -17.8994 
 191   2.0000      -0.657238       -17.8844 
 192   2.0000      -0.655637       -17.8408 
 193   2.0000      -0.654281       -17.8039 
 194   2.0000      -0.644660       -17.5421 
 195   2.0000      -0.640769       -17.4362 
 196   2.0000      -0.636321       -17.3152 
 197   2.0000      -0.635377       -17.2895 
 198   2.0000      -0.631459       -17.1829 
 199   2.0000      -0.630444       -17.1552 
 200   2.0000      -0.628188       -17.0939 
 201   2.0000      -0.624986       -17.0067 
 202   2.0000      -0.620291       -16.8790 
 203   2.0000      -0.618279       -16.8242 
 204   2.0000      -0.613445       -16.6927 
 205   2.0000      -0.613212       -16.6863 
 206   2.0000      -0.599482       -16.3127 
 207   2.0000      -0.595492       -16.2042 
 208   2.0000      -0.591135       -16.0856 
 209   2.0000      -0.589759       -16.0482 
 210   2.0000      -0.588820       -16.0226 
 211   2.0000      -0.584976       -15.9180 
 212   2.0000      -0.583369       -15.8743 
 213   2.0000      -0.583140       -15.8681 
 214   2.0000      -0.581834       -15.8325 
 215   2.0000      -0.580243       -15.7892 
 216   2.0000      -0.580041       -15.7837 
 217   2.0000      -0.579552       -15.7704 
 218   2.0000      -0.576463       -15.6864 
 219   2.0000      -0.574987       -15.6462 
 220   2.0000      -0.571512       -15.5516 
 221   2.0000      -0.569337       -15.4924 
 222   2.0000      -0.566780       -15.4229 
 223   2.0000      -0.565765       -15.3952 
 224   2.0000      -0.565450       -15.3867 
 225   2.0000      -0.564446       -15.3593 
 226   2.0000      -0.561405       -15.2766 
 227   2.0000      -0.560976       -15.2649 
 228   2.0000      -0.553202       -15.0534 
 229   2.0000      -0.547422       -14.8961 
 230   2.0000      -0.544420       -14.8144 
 231   2.0000      -0.541632       -14.7385 
 232   2.0000      -0.539021       -14.6675 
 233   2.0000      -0.534445       -14.5430 
 234   2.0000      -0.530067       -14.4239 
 235   2.0000      -0.521478       -14.1901 
 236   2.0000      -0.521050       -14.1785 
 237   2.0000      -0.514304       -13.9949 
 238   2.0000      -0.514294       -13.9947 
 239   2.0000      -0.513581       -13.9753 
 240   2.0000      -0.513152       -13.9636 
 241   2.0000      -0.511746       -13.9253 
 242   2.0000      -0.506807       -13.7909 
 243   2.0000      -0.506717       -13.7885 
 244   2.0000      -0.505881       -13.7657 
 245   2.0000      -0.502006       -13.6603 
 246   2.0000      -0.501316       -13.6415 
 247   2.0000      -0.499572       -13.5940 
 248   2.0000      -0.498524       -13.5655 
 249   2.0000      -0.498304       -13.5595 
 250   2.0000      -0.495504       -13.4834 
 251   2.0000      -0.488217       -13.2851 
 252   2.0000      -0.486051       -13.2261 
 253   2.0000      -0.485393       -13.2082 
 254   2.0000      -0.478331       -13.0160 
 255   2.0000      -0.478098       -13.0097 
 256   2.0000      -0.475529       -12.9398 
 257   2.0000      -0.472927       -12.8690 
 258   2.0000      -0.469384       -12.7726 
 259   2.0000      -0.464489       -12.6394 
 260   2.0000      -0.464438       -12.6380 
 261   2.0000      -0.456615       -12.4251 
 262   2.0000      -0.454478       -12.3670 
 263   2.0000      -0.437137       -11.8951 
 264   2.0000      -0.437034       -11.8923 
 265   2.0000      -0.417964       -11.3734 
 266   2.0000      -0.416673       -11.3382 
 267   2.0000      -0.393192       -10.6993 
 268   2.0000      -0.388813       -10.5801 
 269   2.0000      -0.384277       -10.4567 
 270   2.0000      -0.380555       -10.3554 
 271   2.0000      -0.358063        -9.7434 
 272   2.0000      -0.357211        -9.7202 
 273   2.0000      -0.353711        -9.6250 
 274   2.0000      -0.344120        -9.3640 
 275   2.0000      -0.333745        -9.0817 
 276   2.0000      -0.316628        -8.6159 
 277   2.0000      -0.306817        -8.3489 
 278   2.0000      -0.262465        -7.1420 
 279   0.0000      -0.037729        -1.0267 
 280   0.0000      -0.019292        -0.5250 
 281   0.0000       0.005485         0.1493 
 282   0.0000       0.011113         0.3024 
 283   0.0000       0.028593         0.7781 
 284   0.0000       0.060812         1.6548 
 285   0.0000       0.067852         1.8463 
 286   0.0000       0.106576         2.9001 
 287   0.0000       0.118632         3.2282 
 288   0.0000       0.136499         3.7143 
 289   0.0000       0.137958         3.7540 
 290   0.0000       0.139659         3.8003 
 291   0.0000       0.141377         3.8471 
 292   0.0000       0.143533         3.9057 
 293   0.0000       0.147443         4.0121 
 294   0.0000       0.154286         4.1983 
 295   0.0000       0.155382         4.2282 
 296   0.0000       0.158937         4.3249 
 297   0.0000       0.163126         4.4389 
 298   0.0000       0.170979         4.6526 
 299   0.0000       0.171133         4.6568 
 300   0.0000       0.174614         4.7515 
 301   0.0000       0.176212         4.7950 
 302   0.0000       0.182710         4.9718 
 303   0.0000       0.184368         5.0169 
 304   0.0000       0.191803         5.2192 
 305   0.0000       0.196015         5.3338 
 306   0.0000       0.197267         5.3679 
 307   0.0000       0.202976         5.5233 
 308   0.0000       0.206168         5.6101 
 309   0.0000       0.207730         5.6526 
 310   0.0000       0.210770         5.7353 
 311   0.0000       0.212599         5.7851 
 312   0.0000       0.216964         5.9039 
 313   0.0000       0.219523         5.9735 
 314   0.0000       0.221045         6.0149 
 315   0.0000       0.221556         6.0288 
 316   0.0000       0.222170         6.0455 
 317   0.0000       0.223721         6.0878 
 318   0.0000       0.227144         6.1809 
 319   0.0000       0.228289         6.2121 
 320   0.0000       0.232143         6.3169 
 321   0.0000       0.234396         6.3782 
 322   0.0000       0.236855         6.4451 
 323   0.0000       0.240517         6.5448 
 324   0.0000       0.242576         6.6008 
 325   0.0000       0.252144         6.8612 
 326   0.0000       0.254728         6.9315 
 327   0.0000       0.259462         7.0603 
 328   0.0000       0.261906         7.1268 
 329   0.0000       0.263306         7.1649 
 330   0.0000       0.263654         7.1744 
 331   0.0000       0.264075         7.1858 
 332   0.0000       0.266095         7.2408 
 333   0.0000       0.267251         7.2723 
 334   0.0000       0.269011         7.3202 
 335   0.0000       0.271180         7.3792 
 336   0.0000       0.275330         7.4921 
 337   0.0000       0.282212         7.6794 
 338   0.0000       0.283923         7.7259 
 339   0.0000       0.289088         7.8665 
 340   0.0000       0.290967         7.9176 
 341   0.0000       0.295463         8.0399 
 342   0.0000       0.297103         8.0846 
 343   0.0000       0.301563         8.2060 
 344   0.0000       0.309002         8.4084 
 345   0.0000       0.313672         8.5354 
 346   0.0000       0.315301         8.5798 
 347   0.0000       0.319822         8.7028 
 348   0.0000       0.326435         8.8827 
 349   0.0000       0.329571         8.9681 
 350   0.0000       0.331442         9.0190 
 351   0.0000       0.332357         9.0439 
 352   0.0000       0.332954         9.0601 
 353   0.0000       0.337435         9.1821 
 354   0.0000       0.339077         9.2267 
 355   0.0000       0.340584         9.2678 
 356   0.0000       0.346622         9.4321 
 357   0.0000       0.349574         9.5124 
 358   0.0000       0.355275         9.6675 
 359   0.0000       0.356140         9.6911 
 360   0.0000       0.357967         9.7408 
 361   0.0000       0.361650         9.8410 
 362   0.0000       0.362923         9.8756 
 363   0.0000       0.368708        10.0331 
 364   0.0000       0.369773        10.0620 
 365   0.0000       0.371752        10.1159 
 366   0.0000       0.375830        10.2269 
 367   0.0000       0.377901        10.2832 
 368   0.0000       0.385989        10.5033 
 369   0.0000       0.386560        10.5188 
 370   0.0000       0.393775        10.7152 
 371   0.0000       0.398097        10.8328 
 372   0.0000       0.398687        10.8488 
 373   0.0000       0.400579        10.9003 
 374   0.0000       0.402903        10.9636 
 375   0.0000       0.403892        10.9905 
 376   0.0000       0.407540        11.0897 
 377   0.0000       0.408932        11.1276 
 378   0.0000       0.418991        11.4013 
 379   0.0000       0.422343        11.4925 
 380   0.0000       0.423538        11.5251 
 381   0.0000       0.426031        11.5929 
 382   0.0000       0.427992        11.6462 
 383   0.0000       0.431633        11.7453 
 384   0.0000       0.433597        11.7988 
 385   0.0000       0.437611        11.9080 
 386   0.0000       0.442775        12.0485 
 387   0.0000       0.447989        12.1904 
 388   0.0000       0.449967        12.2442 
 389   0.0000       0.450713        12.2645 
 390   0.0000       0.456712        12.4278 
 391   0.0000       0.459925        12.5152 
 392   0.0000       0.461514        12.5584 
 393   0.0000       0.465164        12.6578 
 394   0.0000       0.471187        12.8216 
 395   0.0000       0.471737        12.8366 
 396   0.0000       0.479894        13.0586 
 397   0.0000       0.486265        13.2319 
 398   0.0000       0.486804        13.2466 
 399   0.0000       0.491589        13.3768 
 400   0.0000       0.492267        13.3953 
 401   0.0000       0.498896        13.5757 
 402   0.0000       0.501152        13.6370 
 403   0.0000       0.502408        13.6712 
 404   0.0000       0.503511        13.7012 
 405   0.0000       0.512080        13.9344 
 406   0.0000       0.512572        13.9478 
 407   0.0000       0.516801        14.0629 
 408   0.0000       0.520277        14.1574 
 409   0.0000       0.528389        14.3782 
 410   0.0000       0.533361        14.5135 
 411   0.0000       0.540134        14.6978 
 412   0.0000       0.542291        14.7565 
 413   0.0000       0.546203        14.8629 
 414   0.0000       0.549888        14.9632 
 415   0.0000       0.555145        15.1063 
 416   0.0000       0.564926        15.3724 
 417   0.0000       0.570785        15.5319 
 418   0.0000       0.574195        15.6246 
 419   0.0000       0.576980        15.7004 
 420   0.0000       0.579685        15.7740 
 421   0.0000       0.586271        15.9532 
 422   0.0000       0.589890        16.0517 
 423   0.0000       0.592933        16.1345 
 424   0.0000       0.593538        16.1510 
 425   0.0000       0.596748        16.2383 
 426   0.0000       0.598955        16.2984 
 427   0.0000       0.603085        16.4108 
 428   0.0000       0.605845        16.4859 
 429   0.0000       0.609289        16.5796 
 430   0.0000       0.610565        16.6143 
 431   0.0000       0.611316        16.6348 
 432   0.0000       0.615262        16.7421 
 433   0.0000       0.616817        16.7844 
 434   0.0000       0.619542        16.8586 
 435   0.0000       0.621081        16.9005 
 436   0.0000       0.623602        16.9691 
 437   0.0000       0.627342        17.0708 
 438   0.0000       0.629522        17.1302 
 439   0.0000       0.632568        17.2131 
 440   0.0000       0.635047        17.2805 
 441   0.0000       0.638140        17.3647 
 442   0.0000       0.640138        17.4190 
 443   0.0000       0.640678        17.4337 
 444   0.0000       0.641668        17.4607 
 445   0.0000       0.643148        17.5009 
 446   0.0000       0.644455        17.5365 
 447   0.0000       0.651255        17.7215 
 448   0.0000       0.653408        17.7801 
 449   0.0000       0.657959        17.9040 
 450   0.0000       0.658700        17.9241 
 451   0.0000       0.659765        17.9531 
 452   0.0000       0.663584        18.0570 
 453   0.0000       0.665729        18.1154 
 454   0.0000       0.668819        18.1995 
 455   0.0000       0.669518        18.2185 
 456   0.0000       0.673202        18.3188 
 457   0.0000       0.679156        18.4808 
 458   0.0000       0.680141        18.5076 
 459   0.0000       0.691043        18.8042 
 460   0.0000       0.694407        18.8958 
 461   0.0000       0.694931        18.9100 
 462   0.0000       0.697239        18.9728 
 463   0.0000       0.704313        19.1653 
 464   0.0000       0.707644        19.2560 
 465   0.0000       0.709465        19.3055 
 466   0.0000       0.710340        19.3293 
 467   0.0000       0.712694        19.3934 
 468   0.0000       0.712956        19.4005 
 469   0.0000       0.718097        19.5404 
 470   0.0000       0.722154        19.6508 
 471   0.0000       0.725425        19.7398 
 472   0.0000       0.731464        19.9041 
 473   0.0000       0.735541        20.0151 
 474   0.0000       0.735985        20.0272 
 475   0.0000       0.737092        20.0573 
 476   0.0000       0.737545        20.0696 
 477   0.0000       0.739691        20.1280 
 478   0.0000       0.739764        20.1300 
 479   0.0000       0.742023        20.1915 
 480   0.0000       0.749363        20.3912 
 481   0.0000       0.749823        20.4037 
 482   0.0000       0.751011        20.4360 
 483   0.0000       0.754756        20.5380 
 484   0.0000       0.759946        20.6792 
 485   0.0000       0.761699        20.7269 
 486   0.0000       0.764130        20.7930 
 487   0.0000       0.765613        20.8334 
 488   0.0000       0.772746        21.0275 
 489   0.0000       0.775935        21.1143 
 490   0.0000       0.778350        21.1800 
 491   0.0000       0.786140        21.3920 
 492   0.0000       0.786986        21.4150 
 493   0.0000       0.789996        21.4969 
 494   0.0000       0.791966        21.5505 
 495   0.0000       0.796544        21.6751 
 496   0.0000       0.800435        21.7810 
 497   0.0000       0.801812        21.8184 
 498   0.0000       0.804752        21.8984 
 499   0.0000       0.807500        21.9732 
 500   0.0000       0.809931        22.0393 
 501   0.0000       0.812149        22.0997 
 502   0.0000       0.822701        22.3868 
 503   0.0000       0.825505        22.4631 
 504   0.0000       0.827968        22.5302 
 505   0.0000       0.830760        22.6061 
 506   0.0000       0.833268        22.6744 
 507   0.0000       0.834256        22.7013 
 508   0.0000       0.836648        22.7663 
 509   0.0000       0.837217        22.7818 
 510   0.0000       0.839576        22.8460 
 511   0.0000       0.841404        22.8958 
 512   0.0000       0.843623        22.9561 
 513   0.0000       0.844118        22.9696 
 514   0.0000       0.845394        23.0043 
 515   0.0000       0.850369        23.1397 
 516   0.0000       0.851287        23.1647 
 517   0.0000       0.852371        23.1942 
 518   0.0000       0.853432        23.2231 
 519   0.0000       0.855798        23.2874 
 520   0.0000       0.857131        23.3237 
 521   0.0000       0.859418        23.3860 
 522   0.0000       0.860572        23.4174 
 523   0.0000       0.861723        23.4487 
 524   0.0000       0.863367        23.4934 
 525   0.0000       0.864874        23.5344 
 526   0.0000       0.867473        23.6052 
 527   0.0000       0.870388        23.6845 
 528   0.0000       0.872199        23.7337 
 529   0.0000       0.872775        23.7494 
 530   0.0000       0.876059        23.8388 
 531   0.0000       0.876793        23.8588 
 532   0.0000       0.877527        23.8787 
 533   0.0000       0.879352        23.9284 
 534   0.0000       0.881964        23.9995 
 535   0.0000       0.883537        24.0423 
 536   0.0000       0.885646        24.0997 
 537   0.0000       0.889589        24.2069 
 538   0.0000       0.890171        24.2228 
 539   0.0000       0.891583        24.2612 
 540   0.0000       0.891942        24.2710 
 541   0.0000       0.894712        24.3464 
 542   0.0000       0.896934        24.4068 
 543   0.0000       0.897199        24.4140 
 544   0.0000       0.902541        24.5594 
 545   0.0000       0.903663        24.5899 
 546   0.0000       0.906382        24.6639 
 547   0.0000       0.908941        24.7335 
 548   0.0000       0.910060        24.7640 
 549   0.0000       0.911331        24.7986 
 550   0.0000       0.913343        24.8533 
 551   0.0000       0.915022        24.8990 
 552   0.0000       0.917996        24.9799 
 553   0.0000       0.919298        25.0154 
 554   0.0000       0.921431        25.0734 
 555   0.0000       0.922222        25.0949 
 556   0.0000       0.923599        25.1324 
 557   0.0000       0.925857        25.1938 
 558   0.0000       0.927838        25.2478 
 559   0.0000       0.929876        25.3032 
 560   0.0000       0.930777        25.3277 
 561   0.0000       0.932283        25.3687 
 562   0.0000       0.932365        25.3709 
 563   0.0000       0.933026        25.3889 
 564   0.0000       0.935992        25.4696 
 565   0.0000       0.938161        25.5287 
 566   0.0000       0.941300        25.6141 
 567   0.0000       0.942876        25.6570 
 568   0.0000       0.944996        25.7147 
 569   0.0000       0.946444        25.7540 
 570   0.0000       0.949229        25.8298 
 571   0.0000       0.949738        25.8437 
 572   0.0000       0.954578        25.9754 
 573   0.0000       0.955561        26.0021 
 574   0.0000       0.957574        26.0569 
 575   0.0000       0.959544        26.1105 
 576   0.0000       0.961205        26.1557 
 577   0.0000       0.964771        26.2527 
 578   0.0000       0.967321        26.3222 
 579   0.0000       0.967772        26.3344 
 580   0.0000       0.970252        26.4019 
 581   0.0000       0.973605        26.4931 
 582   0.0000       0.975229        26.5373 
 583   0.0000       0.979216        26.6458 
 584   0.0000       0.979625        26.6569 
 585   0.0000       0.982884        26.7456 
 586   0.0000       0.984193        26.7812 
 587   0.0000       0.989963        26.9383 
 588   0.0000       0.991111        26.9695 
 589   0.0000       0.992764        27.0145 
 590   0.0000       0.994442        27.0601 
 591   0.0000       0.996942        27.1282 
 592   0.0000       0.997665        27.1479 
 593   0.0000       1.002170        27.2704 
 594   0.0000       1.004857        27.3436 
 595   0.0000       1.008294        27.4371 
 596   0.0000       1.009916        27.4812 
 597   0.0000       1.010789        27.5050 
 598   0.0000       1.011693        27.5296 
 599   0.0000       1.014927        27.6176 
 600   0.0000       1.015963        27.6458 
 601   0.0000       1.016380        27.6571 
 602   0.0000       1.017547        27.6889 
 603   0.0000       1.020690        27.7744 
 604   0.0000       1.022148        27.8141 
 605   0.0000       1.024618        27.8813 
 606   0.0000       1.025161        27.8960 
 607   0.0000       1.025713        27.9111 
 608   0.0000       1.028068        27.9752 
 609   0.0000       1.029994        28.0276 
 610   0.0000       1.036747        28.2113 
 611   0.0000       1.038679        28.2639 
 612   0.0000       1.044684        28.4273 
 613   0.0000       1.050321        28.5807 
 614   0.0000       1.051919        28.6242 
 615   0.0000       1.054931        28.7061 
 616   0.0000       1.055107        28.7109 
 617   0.0000       1.060096        28.8467 
 618   0.0000       1.062573        28.9141 
 619   0.0000       1.063159        28.9300 
 620   0.0000       1.070020        29.1167 
 621   0.0000       1.071665        29.1615 
 622   0.0000       1.073692        29.2166 
 623   0.0000       1.077155        29.3109 
 624   0.0000       1.079400        29.3720 
 625   0.0000       1.079990        29.3880 
 626   0.0000       1.081659        29.4334 
 627   0.0000       1.083247        29.4766 
 628   0.0000       1.085977        29.5509 
 629   0.0000       1.088162        29.6104 
 630   0.0000       1.089800        29.6550 
 631   0.0000       1.091808        29.7096 
 632   0.0000       1.094862        29.7927 
 633   0.0000       1.097702        29.8700 
 634   0.0000       1.100092        29.9350 
 635   0.0000       1.102525        30.0012 
 636   0.0000       1.105277        30.0761 
 637   0.0000       1.109735        30.1974 
 638   0.0000       1.110614        30.2213 
 639   0.0000       1.112148        30.2631 
 640   0.0000       1.112752        30.2795 
 641   0.0000       1.118237        30.4288 
 642   0.0000       1.119163        30.4540 
 643   0.0000       1.125094        30.6154 
 644   0.0000       1.126815        30.6622 
 645   0.0000       1.131132        30.7797 
[...]
   Maximum residual norm  :     0.013576328717

                       ****Iteration    1****
   Time for densities:     1.122
   Using LibInt in JK Direct
   Time for J+K (Direct):  1262.201
   Time for Sigma-Completion:     7.907
   Size of expansion space: 12
   Lowest Energy          :     0.100168969382
   Maximum Energy change  :     0.028625992898 (vector 1)
   Maximum residual norm  :     0.003189773844

                       ****Iteration    2****
   Time for densities:     1.123
   Using LibInt in JK Direct
   Time for J+K (Direct):  1279.827
   Time for Sigma-Completion:     8.515
   Size of expansion space: 15
   Lowest Energy          :     0.097476131704
   Maximum Energy change  :     0.008676968392 (vector 2)
   Maximum residual norm  :     0.000640228467

                       ****Iteration    3****
   Time for densities:     1.120
   Using LibInt in JK Direct
   Time for J+K (Direct):  1261.302
   Time for Sigma-Completion:     8.775
   Size of expansion space: 18
   Lowest Energy          :     0.097187783732
   Maximum Energy change  :     0.002267566223 (vector 2)
   Maximum residual norm  :     0.000285554173

                       ****Iteration    4****
   Time for densities:     1.122
   Using LibInt in JK Direct
   Time for J+K (Direct):  1294.654
   Time for Sigma-Completion:     8.725
   Size of expansion space: 21
   Lowest Energy          :     0.097144328815
   Maximum Energy change  :     0.000556767487 (vector 2)
   Maximum residual norm  :     0.000063198711

                       ****Iteration    5****
   Time for densities:     1.127
   Using LibInt in JK Direct
   Time for J+K (Direct):  1326.455
   Time for Sigma-Completion:     8.874
   Size of expansion space: 24
   Lowest Energy          :     0.097137474526
   Maximum Energy change  :     0.000151384372 (vector 2)
   Maximum residual norm  :     0.000012926563

                       ****Iteration    6****
   Time for densities:     1.125
   Using LibInt in JK Direct
   Time for J+K (Direct):  1320.620
   Time for Sigma-Completion:     9.008
   Size of expansion space: 27
   Lowest Energy          :     0.097136471644
   Maximum Energy change  :     0.000034447031 (vector 2)
   Maximum residual norm  :     0.000005665380

                       ****Iteration    7****
   Time for densities:     1.123
   Using LibInt in JK Direct
   Time for J+K (Direct):  1334.525
   Time for Sigma-Completion:     8.917
   Size of expansion space: 30
   Lowest Energy          :     0.097136246526
   Maximum Energy change  :     0.000016357934 (vector 2)
   Maximum residual norm  :     0.000002238021
   Rebuilding the expansion space

                       ****Iteration    8****
   Time for densities:     2.264
   Using LibInt in JK Direct
   Time for J+K (Direct):  2589.723
   Time for Sigma-Completion:    17.643
   Size of expansion space: 6
   Lowest Energy          :     0.097136214116
   Maximum Energy change  :     0.000003835437 (vector 2)
   Maximum residual norm  :     0.000000592426

                       ****Iteration    9****
   Time for densities:     1.128
   Using LibInt in JK Direct
   Time for J+K (Direct):  1309.723
   Time for Sigma-Completion:     8.668
   Size of expansion space: 9
   Lowest Energy          :     0.097136204404
   Maximum Energy change  :     0.000001654684 (vector 2)
   Maximum residual norm  :     0.000000217212

      *** CONVERGENCE OF RESIDUAL NORM REACHED ***

Storing the converged CI vectors               ... BTP-4Cl.cis1

                 *** DAVIDSON DONE ***

Total time for solving the CIS problem: 17047.601sec

-----------------------------
CIS-EXCITED STATES (SINGLETS)
-----------------------------

the weight of the individual excitations are printed if larger than 1.0e-02

STATE  1:  E=   0.097136 au      2.643 eV    21318.9 cm**-1
   274a -> 283a  :     0.012470 (c= -0.11166940)
   277a -> 280a  :     0.152727 (c= -0.39080323)
   277a -> 282a  :     0.015182 (c= -0.12321370)
   278a -> 279a  :     0.705552 (c= -0.83997129)
   278a -> 281a  :     0.024363 (c=  0.15608773)

STATE  2:  E=   0.122053 au      3.321 eV    26787.6 cm**-1
   274a -> 280a  :     0.059819 (c= -0.24458014)
   277a -> 279a  :     0.362922 (c= -0.60242986)
   277a -> 283a  :     0.015449 (c= -0.12429207)
   278a -> 280a  :     0.414398 (c= -0.64373733)
   278a -> 282a  :     0.032290 (c= -0.17969327)
   278a -> 285a  :     0.012625 (c=  0.11235969)

STATE  3:  E=   0.152493 au      4.150 eV    33468.4 cm**-1
   267a -> 280a  :     0.010232 (c=  0.10115305)
   272a -> 279a  :     0.017537 (c= -0.13242587)
   274a -> 279a  :     0.135116 (c= -0.36758169)
   274a -> 283a  :     0.012029 (c=  0.10967897)
   277a -> 280a  :     0.170312 (c= -0.41268905)
   277a -> 282a  :     0.019613 (c=  0.14004687)
   278a -> 281a  :     0.236781 (c= -0.48660108)
   278a -> 283a  :     0.224912 (c= -0.47424894)


----------------------
CIS-EXCITATION SPECTRA
----------------------

Center of mass = ( 17.8147, -4.8511, -1.9442)
Calculating the Dipole integrals                  ... done
Transforming integrals                            ... done
Calculating the Linear Momentum integrals         ... done
Transforming integrals                            ... done
Calculating angular momentum integrals            ... done
Transforming integrals                            ... done

-----------------------------------------------------------------------------
         ABSORPTION SPECTRUM VIA TRANSITION ELECTRIC DIPOLE MOMENTS
-----------------------------------------------------------------------------
State   Energy    Wavelength  fosc         T2        TX        TY        TZ  
        (cm-1)      (nm)                 (au**2)    (au)      (au)      (au) 
-----------------------------------------------------------------------------
   1   21318.9    469.1   2.798091318  43.20878   3.82028  -4.19487  -3.31923
   2   26787.6    373.3   0.961528552  11.81691  -1.29254   1.17723  -2.95979
   3   33468.4    298.8   0.029930778   0.29441   0.20758  -0.43582  -0.24777

-----------------------------------------------------------------------------
         ABSORPTION SPECTRUM VIA TRANSITION VELOCITY DIPOLE MOMENTS
-----------------------------------------------------------------------------
State   Energy    Wavelength   fosc        P2         PX        PY        PZ  
        (cm-1)      (nm)                 (au**2)     (au)      (au)      (au) 
-----------------------------------------------------------------------------
   1   21318.9    469.1   1.533971221   0.22351  -0.26851   0.30755   0.23838
   2   26787.6    373.3   0.263771344   0.04829   0.08442  -0.07534   0.18838
   3   33468.4    298.8   0.088836972   0.02032  -0.09685   0.07952   0.06795

-------------------------------------------------------------------
                             CD SPECTRUM
-------------------------------------------------------------------
State  Energy     Wavelength     R         MX        MY        MZ   
       (cm-1)       (nm)     (1e40*cgs)   (au)      (au)      (au)  
-------------------------------------------------------------------
   1   21318.9    469.1    -226.03006   1.86366   1.88828  -0.09701
   2   26787.6    373.3    295.30526  -0.09014   0.07995  -0.14046
   3   33468.4    298.8    -88.84747   0.50814   0.63180   0.07501

Total run time:    17096.951 sec

           *** ORCA-CIS/TD-DFT FINISHED WITHOUT ERROR ***

-----------------------
CIS/TD-DFT TOTAL ENERGY
-----------------------

    E(SCF)  =  -6391.903481831 Eh
    DE(CIS) =      0.097136204 Eh (Root  1)
    ----------------------------- ---------
    E(tot)  =  -6391.806345626 Eh


-------------------------   --------------------
FINAL SINGLE POINT ENERGY     -6391.806345626497
-------------------------   --------------------

------------------------------------------------------------------------------
                         ORCA SCF GRADIENT CALCULATION
------------------------------------------------------------------------------


------------
CIS GRADIENT
------------

Reference wavefunction             ... RHF
State of interest                  ... 1
Basis dimension                    ... 1160
DFT-XC contribution needed         ... NO
RI-approximation                   ... OFF
CIS-vectors being read from        ... BTP-4Cl.cis

 => Number of Vectors found: 3
 => Orbital Window: 107...278 -> 279...1159

Reading the CIS file                     ... done
Norm of the CI vector                    ... 1.000000000
Making the CIS (pseudo)densities         ... done
Making operators G(D) and Q(T)           ... done
Transforming the Fock operators          ... done
Making the frozen-core relaxed density   ... done
Constructing the G(H) operator           ... done
Transforming the G(H) operator           ... done
Calculating the CIS Lagrangian           ... done
Solving the Z-vector equations           ... done
Finalizing the relaxed density           ... done
Storing the relaxed density              ... done
Constructing the G(Z) operator           ... done
Transforming the G(Z) operator           ... done
Making the W-matrix                      ... done
Finalizing the W-matrix                  ... done
Transforming the W-matrix                ... done
Nuclear repulsion gradient               ... done
One-Electron gradient                    ... done
Prescreening matrices                    ... done
Two-Electron gradient (4-center)         ... done
                 ---------------------------
                 EXCITED STATE GRADIENT DONE
                 ---------------------------


------------------
CARTESIAN GRADIENT
------------------

   1   C   :   -0.026373514    0.022031088    0.023556921
   2   O   :    0.039214480   -0.037830957   -0.013551648
   3   C   :    0.009828731   -0.010033169   -0.000097714
   4   C   :   -0.001930134    0.002646761   -0.003822346
   5   C   :    0.003049417   -0.002064683   -0.005948404
   6   Cl  :   -0.002384302    0.001258870    0.006633765
   7   C   :   -0.004459803    0.004006420    0.003686757
   8   Cl  :    0.004617738   -0.004359761   -0.002399341
   9   C   :    0.000427686   -0.000097423   -0.001481581
  10   C   :   -0.002003147   -0.001480858    0.023013547
  11   C   :   -0.001932567    0.004034692   -0.019600893
  12   C   :   -0.005555155    0.004032375    0.018720289
  13   C   :   -0.013913459    0.020252760   -0.051890367
  14   N   :    0.006079968   -0.009858863    0.031507206
  15   C   :    0.038946748   -0.040404946   -0.006481871
  16   N   :   -0.021890156    0.022392063    0.006818360
  17   C   :    0.000745743   -0.000118722   -0.003528812
  18   C   :    0.002631686   -0.001387971   -0.006760339
  19   C   :   -0.004852603    0.002361264    0.008686372
  20   S   :   -0.013586071    0.015870530   -0.003880007
  21   C   :    0.000698992    0.001372122   -0.008036832
  22   C   :   -0.000115177   -0.002972107    0.006352557
  23   C   :   -0.008387925    0.003455701    0.001234086
  24   C   :    0.006742783    0.001645890   -0.003935642
  25   C   :   -0.002114895   -0.001849008   -0.002403498
  26   S   :   -0.000170799    0.001718832   -0.005420416
  27   C   :   -0.010723984    0.006703865    0.009984464
  28   C   :    0.001483597    0.006153057   -0.006241274
  29   N   :    0.009010895    0.004281540   -0.003810762
  30   C   :   -0.008720055   -0.010711138    0.004727922
  31   C   :    0.003701784    0.002490996    0.002460005
  32   C   :   -0.002172052    0.003991740    0.000697510
  33   C   :    0.023128464   -0.024691703    0.001977237
  34   C   :   -0.018155299    0.022152572   -0.039712363
  35   N   :    0.004618583   -0.008648708    0.027355562
  36   S   :    0.001658286   -0.002155161    0.004724011
  37   N   :    0.013589057   -0.013946569    0.021592931
  38   C   :   -0.012942282    0.016215679   -0.043999204
  39   C   :   -0.011910355    0.010133298    0.030275368
  40   C   :    0.002337155   -0.001901150   -0.002941946
  41   N   :   -0.005218727    0.003238809   -0.001448641
  42   C   :    0.004933462   -0.004973480    0.009392379
  43   C   :    0.002811227    0.002680625   -0.002572101
  44   C   :   -0.004838651    0.001792109   -0.006154649
  45   C   :    0.011594769   -0.009639964   -0.006758392
  46   S   :   -0.003150107    0.002592253   -0.003828659
  47   C   :    0.003199711   -0.002806767    0.004989243
  48   C   :   -0.004771814    0.004642824   -0.004521282
  49   S   :    0.003428885   -0.004953709   -0.019475404
  50   C   :    0.007172435   -0.007143045    0.000070698
  51   C   :    0.000988255   -0.007132406   -0.005957133
  52   C   :   -0.000521343    0.007927303   -0.000094489
  53   C   :   -0.003241789   -0.001051030   -0.000713180
  54   C   :   -0.005615293    0.004597204   -0.001140196
  55   C   :   -0.002910817    0.002172502   -0.000876578
  56   C   :   -0.011792503    0.009242020   -0.013436454
  57   C   :    0.014213044   -0.013467216    0.003243075
  58   C   :   -0.019984804    0.027958494    0.045668135
  59   N   :    0.013468803   -0.017688958   -0.024121770
  60   C   :   -0.028558719    0.019589327   -0.046733021
  61   N   :    0.018447749   -0.013686616    0.025838621
  62   C   :    0.015471061   -0.013088811    0.011096052
  63   C   :   -0.001109819    0.000959550   -0.000362447
  64   C   :    0.004092967   -0.004707489   -0.003318959
  65   Cl  :   -0.003318392    0.004047576    0.004245139
  66   C   :   -0.004961600    0.004963670    0.000290112
  67   Cl  :    0.005117503   -0.004849734    0.001027553
  68   C   :   -0.001878354    0.000982458   -0.004751550
  69   C   :   -0.003797418    0.006192352    0.012120246
  70   C   :    0.024760488   -0.028601078   -0.017639123
  71   O   :   -0.024252496    0.030699308    0.040347769
  72   H   :   -0.000182511   -0.000019581    0.000978056
  73   H   :   -0.000023629   -0.000480594    0.002815694
  74   H   :   -0.003638612    0.002664066    0.005487476
  75   H   :   -0.002963286    0.001769452   -0.001340541
  76   H   :    0.000466664   -0.003985325   -0.000980960
  77   H   :    0.002259951    0.000669942   -0.000035029
  78   H   :    0.002367632    0.000548092   -0.002364820
  79   H   :    0.001213935    0.002416997    0.000267237
  80   H   :   -0.003887721    0.004983323    0.003742252
  81   H   :    0.004876614   -0.001743830   -0.003869109
  82   H   :   -0.002226483   -0.000308080    0.000313153
  83   H   :   -0.000527766   -0.001965667   -0.001016106
  84   H   :   -0.001263421   -0.002735790    0.002069846
  85   H   :   -0.003647383    0.003240481    0.001837863
  86   H   :    0.003603570   -0.003228036   -0.004149210
  87   H   :    0.001287120   -0.001151471    0.003150441
  88   H   :   -0.000977763   -0.002524606    0.001319032
  89   H   :   -0.000281034   -0.001268305    0.000143900
  90   H   :   -0.003165310   -0.000295609    0.002680524
  91   H   :   -0.000715978   -0.001467372   -0.003151199
  92   H   :    0.001993652    0.001471536   -0.001338819
  93   H   :   -0.000981942    0.003208262   -0.000348928
  94   H   :    0.000797732    0.002188962    0.000421226
  95   H   :    0.004938879   -0.004917120   -0.001101523
  96   H   :    0.001797738   -0.001504519    0.001650466
  97   H   :    0.000883576   -0.000742509    0.000334476

Difference to translation invariance:
           :   -0.0000000009    0.0000000003    0.0000000001

Norm of the cartesian gradient     ...    0.2078198728
RMS gradient                       ...    0.0121826167
MAX gradient                       ...    0.0518903670

-------
TIMINGS
-------

Total CIS gradient time            ...    18206.938 sec

Fock matrix formation       ....    1462.030 sec  (  8.0%)
  Coulomb formation         ....    1462.030 sec  (100.0% of F)
Z-vector equation           ....   15000.020 sec  ( 82.4%)
One electron gradient       ....      11.418 sec  (  0.1%)
Prescreening matrices       ....       1.094 sec  (  0.0%)
Two electron gradient       ....    1729.760 sec  (  9.5%)

                            ***************************************
                            *     ORCA property calculations      *
                            ***************************************

                                    ---------------------
                                    Active property flags
                                    ---------------------
   (+) Dipole Moment


------------------------------------------------------------------------------
                       ORCA ELECTRIC PROPERTIES CALCULATION
------------------------------------------------------------------------------

Dipole Moment Calculation                       ... on
Quadrupole Moment Calculation                   ... off
Polarizability Calculation                      ... off
GBWName                                         ... BTP-4Cl.gbw
Electron density file                           ... BTP-4Cl.scfp
The origin for moment calculation is the CENTER OF MASS  = (17.814651, -4.851079 -1.944190)

-------------
DIPOLE MOMENT
-------------
                                X             Y             Z
Electronic contribution:    -22.03745      19.86960     -50.28565
Nuclear contribution   :     21.99858     -19.60592      49.92314
                        -----------------------------------------
Total Dipole Moment    :     -0.03887       0.26367      -0.36251
                        -----------------------------------------
Magnitude (a.u.)       :      0.44994
Magnitude (Debye)      :      1.14365



--------------------
Rotational spectrum 
--------------------
 
Rotational constants in cm-1:     0.001014     0.000269     0.000214 
Rotational constants in MHz :    30.392305     8.054301     6.420837 

 Dipole components along the rotational axes: 
x,y,z [a.u.] :     0.010213    -0.420889    -0.158721 
x,y,z [Debye]:     0.025961    -1.069816    -0.403436 

 

                        *** CIS RELAXED DENSITY ***

------------------------------------------------------------------------------
                       ORCA ELECTRIC PROPERTIES CALCULATION
------------------------------------------------------------------------------

Dipole Moment Calculation                       ... on
Quadrupole Moment Calculation                   ... off
Polarizability Calculation                      ... off
GBWName                                         ... BTP-4Cl.gbw
Electron density file                           ... BTP-4Cl.cisp
The origin for moment calculation is the CENTER OF MASS  = (17.814651, -4.851079 -1.944190)

-------------
DIPOLE MOMENT
-------------
                                X             Y             Z
Electronic contribution:    -21.73947      19.62538     -49.62270
Nuclear contribution   :     21.99858     -19.60592      49.92314
                        -----------------------------------------
Total Dipole Moment    :      0.25911       0.01946       0.30044
                        -----------------------------------------
Magnitude (a.u.)       :      0.39721
Magnitude (Debye)      :      1.00963



--------------------
Rotational spectrum 
--------------------
 
Rotational constants in cm-1:     0.001014     0.000269     0.000214 
Rotational constants in MHz :    30.392305     8.054301     6.420837 

 Dipole components along the rotational axes: 
x,y,z [a.u.] :     0.011889     0.344936    -0.196609 
x,y,z [Debye]:     0.030219     0.876758    -0.499741 

 

Timings for individual modules:

Sum of individual times         ...    40856.569 sec (= 680.943 min)
GTO integral calculation        ...        2.331 sec (=   0.039 min)   0.0 %
SCF iterations                  ...     5550.256 sec (=  92.504 min)  13.6 %
CIS module                      ...    17097.013 sec (= 284.950 min)  41.8 %
SCF Gradient evaluation         ...    18206.969 sec (= 303.449 min)  44.6 %
                             ****ORCA TERMINATED NORMALLY****
TOTAL RUN TIME: 0 days 11 hours 20 minutes 57 seconds 336 msec
