
                                 *****************
                                 * O   R   C   A *
                                 *****************

           --- An Ab Initio, DFT and Semiempirical electronic structure package ---

                  #######################################################
                  #                        -***-                        #
                  #          Department of theory and spectroscopy      #
                  #               Directorship: Frank Neese             #
                  #        Max Planck Institute fuer Kohlenforschung    #
                  #                Kaiser Wilhelm Platz 1               #
                  #                 D-45470 Muelheim/Ruhr               #
                  #                      Germany                        #
                  #                                                     #
                  #                  All rights reserved                #
                  #                        -***-                        #
                  #######################################################


                         Program Version 4.2.0 -  RELEASE  -


 With contributions from (in alphabetic order):
   Daniel Aravena         : Magnetic Suceptibility
   Michael Atanasov       : Ab Initio Ligand Field Theory (pilot matlab implementation)
   Alexander A. Auer      : GIAO ZORA, VPT2
   Ute Becker             : Parallelization
   Giovanni Bistoni       : ED, misc. LED, open-shell LED, HFLED
   Martin Brehm           : Molecular dynamics
   Dmytro Bykov           : SCF Hessian
   Vijay G. Chilkuri      : MRCI spin determinant printing, contributions to CSF-ICE
   Dipayan Datta          : RHF DLPNO-CCSD density
   Achintya Kumar Dutta   : EOM-CC, STEOM-CC
   Dmitry Ganyushin       : Spin-Orbit,Spin-Spin,Magnetic field MRCI
   Miquel Garcia          : C-PCM Hessian, Gaussian charge scheme
   Yang Guo               : DLPNO-NEVPT2, CIM, IAO-localization
   Andreas Hansen         : Spin unrestricted coupled pair/coupled cluster methods
   Benjamin Helmich-Paris : CASSCF linear response (MC-RPA)
   Lee Huntington         : MR-EOM, pCC
   Robert Izsak           : Overlap fitted RIJCOSX, COSX-SCS-MP3, EOM
   Christian Kollmar      : KDIIS, OOCD, Brueckner-CCSD(T), CCSD density
   Simone Kossmann        : Meta GGA functionals, TD-DFT gradient, OOMP2, MP2 Hessian
   Martin Krupicka        : AUTO-CI
   Lucas Lang             : DCDCAS
   Dagmar Lenk            : GEPOL surface, SMD
   Dimitrios Liakos       : Extrapolation schemes; Compound Job, initial MDCI parallelization
   Dimitrios Manganas     : Further ROCIS development; embedding schemes
   Dimitrios Pantazis     : SARC Basis sets
   Taras Petrenko         : DFT Hessian,TD-DFT gradient, ASA, ECA, R-Raman, ABS, FL, XAS/XES, NRVS
   Peter Pinski           : DLPNO-MP2, DLPNO-MP2 Gradient
   Christoph Reimann      : Effective Core Potentials
   Marius Retegan         : Local ZFS, SOC
   Christoph Riplinger    : Optimizer, TS searches, QM/MM, DLPNO-CCSD(T), (RO)-DLPNO pert. Triples
   Tobias Risthaus        : Range-separated hybrids, TD-DFT gradient, RPA, STAB
   Michael Roemelt        : Original ROCIS implementation
   Masaaki Saitow         : Open-shell DLPNO-CCSD energy and density
   Barbara Sandhoefer     : DKH picture change effects
   Avijit Sen             : IP-ROCIS
   Kantharuban Sivalingam : CASSCF convergence, NEVPT2, FIC-MRCI
   Bernardo de Souza      : ESD, SOC TD-DFT
   Georgi Stoychev        : AutoAux, RI-MP2 NMR
   Willem Van den Heuvel  : Paramagnetic NMR
   Boris Wezisla          : Elementary symmetry handling
   Frank Wennmohs         : Technical directorship


 We gratefully acknowledge several colleagues who have allowed us to
 interface, adapt or use parts of their codes:
   Stefan Grimme, W. Hujo, H. Kruse,             : VdW corrections, initial TS optimization,
                  C. Bannwarth                     DFT functionals, gCP, sTDA/sTD-DF
   Ed Valeev, F. Pavosevic, A. Kumar             : LibInt (2-el integral package), F12 methods
   Garnet Chan, S. Sharma, J. Yang, R. Olivares  : DMRG
   Ulf Ekstrom                                   : XCFun DFT Library
   Mihaly Kallay                                 : mrcc  (arbitrary order and MRCC methods)
   Andreas Klamt, Michael Diedenhofen            : otool_cosmo (COSMO solvation model)
   Jiri Pittner, Ondrej Demel                    : Mk-CCSD
   Frank Weinhold                                : gennbo (NPA and NBO analysis)
   Christopher J. Cramer and Donald G. Truhlar   : smd solvation model
   Lars Goerigk                                  : TD-DFT with DH, B97 family of functionals
   V. Asgeirsson, H. Jonsson                     : NEB implementation
   FAccTs GmbH                                   : IRC, NEB, NEB-TS, Multilevel, MM, QM/MM, CI optimization
   S Lehtola, MJT Oliveira, MAL Marques          : LibXC Library


 Your calculation uses the libint2 library for the computation of 2-el integrals
 For citations please refer to: http://libint.valeyev.net

 Your ORCA version has been built with support for libXC version: 4.2.3
 For citations please refer to: https://tddft.org/programs/libxc/

 This ORCA versions uses:
   CBLAS   interface :  Fast vector & matrix operations
   LAPACKE interface :  Fast linear algebra routines
   SCALAPACK package :  Parallel linear algebra routines


----- Orbital basis set information -----
Your calculation utilizes the basis: def2-SVP
   F. Weigend and R. Ahlrichs, Phys. Chem. Chem. Phys. 7, 3297 (2005).

================================================================================
                                        WARNINGS
                       Please study these warnings very carefully!
================================================================================

INFO   : Checking CIS options ...

WARNING: CIS/ROCIS methods need fully converged wavefunctions
  ===> : Setting SCFConvForced true
         You can overwrite this default with %scf ConvForced false 


INFO   : the flag for use of LIBINT has been found!

================================================================================
                                       INPUT FILE
================================================================================
NAME = BTP-PhC6.inp
|  1> # ORCA input file
|  2> # BTP-PhC6.out: Geometry 75
|  3> ! Engrad Keepdens
|  4> %maxcore 1000
|  5> %tddft
|  6>   nroots 3 
|  7>   # nroots is the number of states to be computed
|  8>   Iroot 1
|  9>   end
| 10> * xyz 0 1
| 11>    C        4.29960         0.53434        -1.77100
| 12>    O        5.46748         0.82682        -1.57630
| 13>    C        3.60760         0.56990        -3.08239
| 14>    C        4.16534         0.83374        -4.32839
| 15>    C        3.33135         0.75221        -5.43740
| 16>    F        3.79878         0.97809        -6.66265
| 17>    C        1.97444         0.41654        -5.28224
| 18>    F        1.22015         0.32792        -6.37468
| 19>    C        1.41494         0.17067        -4.03061
| 20>    C        2.25057         0.23938        -2.90745
| 21>    C        2.00280        -0.01169        -1.46379
| 22>    C        0.76128        -0.28514        -0.91527
| 23>    C        0.53568        -0.48049         0.48353
| 24>    N        0.31524        -0.64157         1.61368
| 25>    C       -0.42538        -0.38844        -1.70705
| 26>    N       -1.39482        -0.48747        -2.34097
| 27>    C        3.29638         0.07679        -0.78043
| 28>    C        3.57038        -0.36642         0.50139
| 29>    C        4.77440        -0.60013         1.21062
| 30>    S        6.41918        -0.09577         0.73785
| 31>    C        7.09235        -0.99622         2.05367
| 32>    C        6.10382        -1.64286         2.82477
| 33>    C        4.79263        -1.41126         2.37980
| 34>    C        3.62009        -2.02912         3.03625
| 35>    S        6.76111        -2.81587         3.97290
| 36>    C        8.35950        -2.45360         3.37359
| 37>    C        8.37949        -1.45936         2.39196
| 38>    N        9.67219        -1.25329         1.91437
| 39>    C       10.00855         0.19666         1.69080
| 40>    C       11.20259         0.62326         2.55256
| 41>    C       10.47014        -2.25806         2.51008
| 42>    C        9.67604        -2.96281         3.46716
| 43>    C       10.18732        -4.07584         4.20477
| 44>    N        9.54078        -4.79244         5.11376
| 45>    S       10.58005        -5.98102         5.61113
| 46>    N       11.87800        -5.60360         4.65392
| 47>    C       11.53206        -4.54300         3.93717
| 48>    C       12.27074        -3.93840         2.86951
| 49>    C       11.74120        -2.82203         2.13332
| 50>    N       12.51780        -2.66702         0.98673
| 51>    C       12.41543        -1.73970        -0.12984
| 52>    C       13.32656        -0.49283        -0.07364
| 53>    C       13.47411        -3.66250         0.97375
| 54>    C       13.37256        -4.43363         2.14099
| 55>    S       14.42697        -5.82719         2.14667
| 56>    C       14.95157        -5.40365         0.50825
| 57>    C       14.35777        -4.21924         0.02256
| 58>    S       14.84198        -3.84727        -1.59885
| 59>    C       15.81153        -5.33518        -1.66636
| 60>    C       15.79603        -6.03608        -0.42226
| 61>    C       16.50134        -7.30852        -0.19643
| 62>    C       16.38485        -5.89891        -2.82753
| 63>    C       16.55709        -5.45510        -4.12539
| 64>    C       17.19182        -6.21458        -5.20058
| 65>    C       17.47363        -7.57059        -5.23268
| 66>    C       18.14305        -8.19207        -6.33254
| 67>    N       18.69680        -8.71152        -7.21274
| 68>    C       17.08621        -8.49302        -4.20979
| 69>    N       16.77455        -9.28523        -3.41765
| 70>    C       17.43341        -5.27146        -6.32072
| 71>    C       18.08597        -5.42432        -7.55010
| 72>    C       18.13412        -4.32804        -8.40692
| 73>    F       18.77145        -4.43080        -9.57033
| 74>    C       17.52560        -3.10300        -8.07908
| 75>    F       17.58447        -2.10166        -8.95252
| 76>    C       16.87950        -2.94062        -6.85794
| 77>    C       16.85472        -4.02905        -5.99532
| 78>    C       16.27151        -4.09422        -4.63145
| 79>    O       15.69754        -3.18288        -4.05775
| 80>    C       14.74409        -0.75053         0.47323
| 81>    C       14.86082        -0.79905         1.99671
| 82>    C       13.36831         0.13430        -1.47938
| 83>    C       13.71836         1.62013        -1.46656
| 84>    C       10.84104         0.73887         4.03384
| 85>    C       10.02104         0.62724         0.21766
| 86>    C        9.66523         2.10431         0.05170
| 87>    C       15.81126        -8.40910         0.34083
| 88>    C       16.42637        -9.65563         0.42913
| 89>    C       17.74545        -9.84725        -0.00508
| 90>    C       18.45116        -8.73098        -0.47908
| 91>    C       17.84666        -7.48213        -0.57256
| 92>    C        3.35617        -1.73589         4.38590
| 93>    C        2.28095        -2.32978         5.04040
| 94>    C        1.44806        -3.24998         4.38376
| 95>    C        1.72231        -3.54548         3.04210
| 96>    C        2.78833        -2.94391         2.37324
| 97>    C        0.33709        -3.94572         5.13340
| 98>    C        0.87097        -5.04096         6.06725
| 99>    C       18.36502       -11.22127        -0.04829
|100>    C       18.36116       -11.80562        -1.46840
|101>    H        5.22007         1.09165        -4.43608
|102>    H        0.35958        -0.08848        -3.98462
|103>    H        2.71238        -0.71387         1.07632
|104>    H        9.13965         0.71810         2.11958
|105>    H       11.56778         1.59393         2.18133
|106>    H       12.03378        -0.08277         2.42243
|107>    H       11.36585        -1.44580        -0.23940
|108>    H       12.66244        -2.31970        -1.03307
|109>    H       12.85229         0.23869         0.59518
|110>    H       16.76656        -6.89891        -2.62721
|111>    H       18.56648        -6.34638        -7.86991
|112>    H       16.41219        -1.99146        -6.59213
|113>    H       15.40003         0.05431         0.10614
|114>    H       15.15479        -1.66773         0.02679
|115>    H       14.61125         0.17724         2.44318
|116>    H       15.88835        -1.05097         2.30231
|117>    H       14.19708        -1.54531         2.45226
|118>    H       12.38973         0.00776        -1.97489
|119>    H       14.08774        -0.42906        -2.09802
|120>    H       12.94834         2.20172        -0.93314
|121>    H       13.79558         2.02497        -2.48697
|122>    H       14.67920         1.81063        -0.96251
|123>    H       10.04448         1.48445         4.18905
|124>    H       11.70899         1.04869         4.63490
|125>    H       10.47796        -0.21976         4.43647
|126>    H        9.28777         0.00896        -0.32420
|127>    H       10.99320         0.44344        -0.24827
|128>    H        8.64957         2.31579         0.42295
|129>    H        9.70093         2.39887        -1.00762
|130>    H       10.36578         2.75582         0.59688
|131>    H       14.77003        -8.29525         0.64871
|132>    H       15.86027       -10.50599         0.81730
|133>    H       19.48783        -8.85154        -0.80451
|134>    H       18.41497        -6.62919        -0.94861
|135>    H        3.99420        -1.02482         4.91557
|136>    H        2.07789        -2.06888         6.08238
|137>    H        1.08719        -4.25725         2.50850
|138>    H        2.99234        -3.20079         1.33205
|139>    H       -0.37393        -4.38409         4.41474
|140>    H       -0.22841        -3.20362         5.72298
|141>    H        1.42886        -5.80265         5.49971
|142>    H        0.05080        -5.54471         6.60274
|143>    H        1.55851        -4.61952         6.81870
|144>    H       17.81705       -11.89334         0.63072
|145>    H       19.40145       -11.17340         0.32757
|146>    H       17.33819       -11.87006        -1.86791
|147>    H       18.81415       -12.80938        -1.48106
|148>    H       18.92935       -11.16394        -2.15809
|149> *
|150> 
|151>                          ****END OF INPUT****
================================================================================

                     *******************************
                     * Energy+Gradient Calculation *
                     *******************************

---------------------------------
CARTESIAN COORDINATES (ANGSTROEM)
---------------------------------
  C      4.299600    0.534340   -1.771000
  O      5.467480    0.826820   -1.576300
  C      3.607600    0.569900   -3.082390
  C      4.165340    0.833740   -4.328390
  C      3.331350    0.752210   -5.437400
  F      3.798780    0.978090   -6.662650
  C      1.974440    0.416540   -5.282240
  F      1.220150    0.327920   -6.374680
  C      1.414940    0.170670   -4.030610
  C      2.250570    0.239380   -2.907450
  C      2.002800   -0.011690   -1.463790
  C      0.761280   -0.285140   -0.915270
  C      0.535680   -0.480490    0.483530
  N      0.315240   -0.641570    1.613680
  C     -0.425380   -0.388440   -1.707050
  N     -1.394820   -0.487470   -2.340970
  C      3.296380    0.076790   -0.780430
  C      3.570380   -0.366420    0.501390
  C      4.774400   -0.600130    1.210620
  S      6.419180   -0.095770    0.737850
  C      7.092350   -0.996220    2.053670
  C      6.103820   -1.642860    2.824770
  C      4.792630   -1.411260    2.379800
  C      3.620090   -2.029120    3.036250
  S      6.761110   -2.815870    3.972900
  C      8.359500   -2.453600    3.373590
  C      8.379490   -1.459360    2.391960
  N      9.672190   -1.253290    1.914370
  C     10.008550    0.196660    1.690800
  C     11.202590    0.623260    2.552560
  C     10.470140   -2.258060    2.510080
  C      9.676040   -2.962810    3.467160
  C     10.187320   -4.075840    4.204770
  N      9.540780   -4.792440    5.113760
  S     10.580050   -5.981020    5.611130
  N     11.878000   -5.603600    4.653920
  C     11.532060   -4.543000    3.937170
  C     12.270740   -3.938400    2.869510
  C     11.741200   -2.822030    2.133320
  N     12.517800   -2.667020    0.986730
  C     12.415430   -1.739700   -0.129840
  C     13.326560   -0.492830   -0.073640
  C     13.474110   -3.662500    0.973750
  C     13.372560   -4.433630    2.140990
  S     14.426970   -5.827190    2.146670
  C     14.951570   -5.403650    0.508250
  C     14.357770   -4.219240    0.022560
  S     14.841980   -3.847270   -1.598850
  C     15.811530   -5.335180   -1.666360
  C     15.796030   -6.036080   -0.422260
  C     16.501340   -7.308520   -0.196430
  C     16.384850   -5.898910   -2.827530
  C     16.557090   -5.455100   -4.125390
  C     17.191820   -6.214580   -5.200580
  C     17.473630   -7.570590   -5.232680
  C     18.143050   -8.192070   -6.332540
  N     18.696800   -8.711520   -7.212740
  C     17.086210   -8.493020   -4.209790
  N     16.774550   -9.285230   -3.417650
  C     17.433410   -5.271460   -6.320720
  C     18.085970   -5.424320   -7.550100
  C     18.134120   -4.328040   -8.406920
  F     18.771450   -4.430800   -9.570330
  C     17.525600   -3.103000   -8.079080
  F     17.584470   -2.101660   -8.952520
  C     16.879500   -2.940620   -6.857940
  C     16.854720   -4.029050   -5.995320
  C     16.271510   -4.094220   -4.631450
  O     15.697540   -3.182880   -4.057750
  C     14.744090   -0.750530    0.473230
  C     14.860820   -0.799050    1.996710
  C     13.368310    0.134300   -1.479380
  C     13.718360    1.620130   -1.466560
  C     10.841040    0.738870    4.033840
  C     10.021040    0.627240    0.217660
  C      9.665230    2.104310    0.051700
  C     15.811260   -8.409100    0.340830
  C     16.426370   -9.655630    0.429130
  C     17.745450   -9.847250   -0.005080
  C     18.451160   -8.730980   -0.479080
  C     17.846660   -7.482130   -0.572560
  C      3.356170   -1.735890    4.385900
  C      2.280950   -2.329780    5.040400
  C      1.448060   -3.249980    4.383760
  C      1.722310   -3.545480    3.042100
  C      2.788330   -2.943910    2.373240
  C      0.337090   -3.945720    5.133400
  C      0.870970   -5.040960    6.067250
  C     18.365020  -11.221270   -0.048290
  C     18.361160  -11.805620   -1.468400
  H      5.220070    1.091650   -4.436080
  H      0.359580   -0.088480   -3.984620
  H      2.712380   -0.713870    1.076320
  H      9.139650    0.718100    2.119580
  H     11.567780    1.593930    2.181330
  H     12.033780   -0.082770    2.422430
  H     11.365850   -1.445800   -0.239400
  H     12.662440   -2.319700   -1.033070
  H     12.852290    0.238690    0.595180
  H     16.766560   -6.898910   -2.627210
  H     18.566480   -6.346380   -7.869910
  H     16.412190   -1.991460   -6.592130
  H     15.400030    0.054310    0.106140
  H     15.154790   -1.667730    0.026790
  H     14.611250    0.177240    2.443180
  H     15.888350   -1.050970    2.302310
  H     14.197080   -1.545310    2.452260
  H     12.389730    0.007760   -1.974890
  H     14.087740   -0.429060   -2.098020
  H     12.948340    2.201720   -0.933140
  H     13.795580    2.024970   -2.486970
  H     14.679200    1.810630   -0.962510
  H     10.044480    1.484450    4.189050
  H     11.708990    1.048690    4.634900
  H     10.477960   -0.219760    4.436470
  H      9.287770    0.008960   -0.324200
  H     10.993200    0.443440   -0.248270
  H      8.649570    2.315790    0.422950
  H      9.700930    2.398870   -1.007620
  H     10.365780    2.755820    0.596880
  H     14.770030   -8.295250    0.648710
  H     15.860270  -10.505990    0.817300
  H     19.487830   -8.851540   -0.804510
  H     18.414970   -6.629190   -0.948610
  H      3.994200   -1.024820    4.915570
  H      2.077890   -2.068880    6.082380
  H      1.087190   -4.257250    2.508500
  H      2.992340   -3.200790    1.332050
  H     -0.373930   -4.384090    4.414740
  H     -0.228410   -3.203620    5.722980
  H      1.428860   -5.802650    5.499710
  H      0.050800   -5.544710    6.602740
  H      1.558510   -4.619520    6.818700
  H     17.817050  -11.893340    0.630720
  H     19.401450  -11.173400    0.327570
  H     17.338190  -11.870060   -1.867910
  H     18.814150  -12.809380   -1.481060
  H     18.929350  -11.163940   -2.158090

----------------------------
CARTESIAN COORDINATES (A.U.)
----------------------------
  NO LB      ZA    FRAG     MASS         X           Y           Z
   0 C     6.0000    0    12.011    8.125066    1.009756   -3.346705
   1 O     8.0000    0    15.999   10.332040    1.562463   -2.978775
   2 C     6.0000    0    12.011    6.817376    1.076955   -5.824873
   3 C     6.0000    0    12.011    7.871352    1.575540   -8.179472
   4 C     6.0000    0    12.011    6.295339    1.421471  -10.275197
   5 F     9.0000    0    18.998    7.178654    1.848322  -12.590584
   6 C     6.0000    0    12.011    3.731151    0.787147   -9.981987
   7 F     9.0000    0    18.998    2.305749    0.619679  -12.046399
   8 C     6.0000    0    12.011    2.673849    0.322520   -7.616749
   9 C     6.0000    0    12.011    4.252961    0.452363   -5.494284
  10 C     6.0000    0    12.011    3.784744   -0.022091   -2.766162
  11 C     6.0000    0    12.011    1.438611   -0.538837   -1.729610
  12 C     6.0000    0    12.011    1.012288   -0.907995    0.913739
  13 N     7.0000    0    14.007    0.595717   -1.212392    3.049413
  14 C     6.0000    0    12.011   -0.803852   -0.734045   -3.225857
  15 N     7.0000    0    14.007   -2.635828   -0.921185   -4.423792
  16 C     6.0000    0    12.011    6.229255    0.145112   -1.474799
  17 C     6.0000    0    12.011    6.747040   -0.692433    0.947490
  18 C     6.0000    0    12.011    9.022308   -1.134081    2.287740
  19 S    16.0000    0    32.060   12.130492   -0.180979    1.394334
  20 C     6.0000    0    12.011   13.402599   -1.882583    3.880874
  21 C     6.0000    0    12.011   11.534548   -3.104555    5.338042
  22 C     6.0000    0    12.011    9.056758   -2.666895    4.497170
  23 C     6.0000    0    12.011    6.840979   -3.834481    5.737681
  24 S    16.0000    0    32.060   12.776646   -5.321223    7.507693
  25 C     6.0000    0    12.011   15.797166   -4.636632    6.375161
  26 C     6.0000    0    12.011   15.834941   -2.757791    4.520149
  27 N     7.0000    0    14.007   18.277790   -2.368375    3.617635
  28 C     6.0000    0    12.011   18.913418    0.371634    3.195149
  29 C     6.0000    0    12.011   21.169827    1.177791    4.823639
  30 C     6.0000    0    12.011   19.785697   -4.267115    4.743364
  31 C     6.0000    0    12.011   18.285066   -5.598899    6.551983
  32 C     6.0000    0    12.011   19.251245   -7.702221    7.945864
  33 N     7.0000    0    14.007   18.029461   -9.056399    9.663606
  34 S    16.0000    0    32.060   19.993397  -11.302490   10.603499
  35 N     7.0000    0    14.007   22.446167  -10.589269    8.794634
  36 C     6.0000    0    12.011   21.792435   -8.585026    7.440173
  37 C     6.0000    0    12.011   23.188338   -7.442497    5.422588
  38 C     6.0000    0    12.011   22.187652   -5.332864    4.031391
  39 N     7.0000    0    14.007   23.655214   -5.039937    1.864649
  40 C     6.0000    0    12.011   23.461763   -3.287557   -0.245362
  41 C     6.0000    0    12.011   25.183549   -0.931314   -0.139159
  42 C     6.0000    0    12.011   25.462378   -6.921122    1.840121
  43 C     6.0000    0    12.011   25.270476   -8.378346    4.045885
  44 S    16.0000    0    32.060   27.263022  -11.011793    4.056618
  45 C     6.0000    0    12.011   28.254373  -10.211419    0.960453
  46 C     6.0000    0    12.011   27.132253   -7.973208    0.042632
  47 S    16.0000    0    32.060   28.047277   -7.270287   -3.021389
  48 C     6.0000    0    12.011   29.879461  -10.082029   -3.148964
  49 C     6.0000    0    12.011   29.850171  -11.406538   -0.797956
  50 C     6.0000    0    12.011   31.183013  -13.811101   -0.371199
  51 C     6.0000    0    12.011   30.962879  -11.147324   -5.343257
  52 C     6.0000    0    12.011   31.288366  -10.308645   -7.795857
  53 C     6.0000    0    12.011   32.487832  -11.743854   -9.827672
  54 C     6.0000    0    12.011   33.020375  -14.306342   -9.888332
  55 C     6.0000    0    12.011   34.285396  -15.480769  -11.966766
  56 N     7.0000    0    14.007   35.331832  -16.462387  -13.630103
  57 C     6.0000    0    12.011   32.288258  -16.049482   -7.955350
  58 N     7.0000    0    14.007   31.699306  -17.546542   -6.458423
  59 C     6.0000    0    12.011   32.944370   -9.961616  -11.944430
  60 C     6.0000    0    12.011   34.177530  -10.250479  -14.267621
  61 C     6.0000    0    12.011   34.268520   -8.178810  -15.886776
  62 F     9.0000    0    18.998   35.472900   -8.372999  -18.085303
  63 C     6.0000    0    12.011   33.118584   -5.863820  -15.267249
  64 F     9.0000    0    18.998   33.229833   -3.971562  -16.917811
  65 C     6.0000    0    12.011   31.897632   -5.556966  -12.959628
  66 C     6.0000    0    12.011   31.850805   -7.613801  -11.329513
  67 C     6.0000    0    12.011   30.748698   -7.736955   -8.752172
  68 O     8.0000    0    15.999   29.664052   -6.014772   -7.668036
  69 C     6.0000    0    12.011   27.862292   -1.418296    0.894275
  70 C     6.0000    0    12.011   28.082880   -1.509986    3.773235
  71 C     6.0000    0    12.011   25.262445    0.253790   -2.795623
  72 C     6.0000    0    12.011   25.923943    3.061602   -2.771397
  73 C     6.0000    0    12.011   20.486597    1.396262    7.622853
  74 C     6.0000    0    12.011   18.937021    1.185312    0.411318
  75 C     6.0000    0    12.011   18.264638    3.976570    0.097699
  76 C     6.0000    0    12.011   29.878951  -15.890896    0.644075
  77 C     6.0000    0    12.011   31.041341  -18.246496    0.810938
  78 C     6.0000    0    12.011   33.534041  -18.608606   -0.009600
  79 C     6.0000    0    12.011   34.867639  -16.499161   -0.905330
  80 C     6.0000    0    12.011   33.725300  -14.139177   -1.081982
  81 C     6.0000    0    12.011    6.342242   -3.280357    8.288150
  82 C     6.0000    0    12.011    4.310371   -4.402646    9.524976
  83 C     6.0000    0    12.011    2.736437   -6.141572    8.284106
  84 C     6.0000    0    12.011    3.254694   -6.699986    5.748736
  85 C     6.0000    0    12.011    5.269180   -5.563184    4.484774
  86 C     6.0000    0    12.011    0.637008   -7.456330    9.700720
  87 C     6.0000    0    12.011    1.645895   -9.526034   11.465441
  88 C     6.0000    0    12.011   34.704858  -21.205127   -0.091255
  89 C     6.0000    0    12.011   34.697564  -22.309389   -2.774874
  90 H     1.0000    0     1.008    9.864503    2.062920   -8.382976
  91 H     1.0000    0     1.008    0.679508   -0.167203   -7.529841
  92 H     1.0000    0     1.008    5.125655   -1.349019    2.033950
  93 H     1.0000    0     1.008   17.271435    1.357012    4.005426
  94 H     1.0000    0     1.008   21.859936    3.012091    4.122116
  95 H     1.0000    0     1.008   22.740549   -0.156413    4.577729
  96 H     1.0000    0     1.008   21.478344   -2.732166   -0.452400
  97 H     1.0000    0     1.008   23.928544   -4.383598   -1.952219
  98 H     1.0000    0     1.008   24.287308    0.451059    1.124727
  99 H     1.0000    0     1.008   31.684207  -13.037051   -4.964707
 100 H     1.0000    0     1.008   35.085562  -11.992920  -14.871975
 101 H     1.0000    0     1.008   31.014544   -3.763314  -12.457320
 102 H     1.0000    0     1.008   29.101839    0.102631    0.200576
 103 H     1.0000    0     1.008   28.638403   -3.151553    0.050626
 104 H     1.0000    0     1.008   27.611261    0.334935    4.616941
 105 H     1.0000    0     1.008   30.024630   -1.986045    4.350735
 106 H     1.0000    0     1.008   26.828593   -2.920213    4.634100
 107 H     1.0000    0     1.008   23.413197    0.014664   -3.732001
 108 H     1.0000    0     1.008   26.621970   -0.810806   -3.964683
 109 H     1.0000    0     1.008   24.468816    4.160648   -1.763379
 110 H     1.0000    0     1.008   26.069868    3.826639   -4.699692
 111 H     1.0000    0     1.008   27.739668    3.421595   -1.818880
 112 H     1.0000    0     1.008   18.981316    2.805204    7.916157
 113 H     1.0000    0     1.008   22.126784    1.981737    8.758692
 114 H     1.0000    0     1.008   19.800475   -0.415286    8.383713
 115 H     1.0000    0     1.008   17.551342    0.016932   -0.612649
 116 H     1.0000    0     1.008   20.774137    0.837980   -0.469162
 117 H     1.0000    0     1.008   16.345318    4.376209    0.799260
 118 H     1.0000    0     1.008   18.332101    4.533207   -1.904126
 119 H     1.0000    0     1.008   19.588485    5.207745    1.127940
 120 H     1.0000    0     1.008   27.911312  -15.675751    1.225884
 121 H     1.0000    0     1.008   29.971567  -19.853444    1.544473
 122 H     1.0000    0     1.008   36.826662  -16.726986   -1.520304
 123 H     1.0000    0     1.008   34.799250  -12.527354   -1.792613
 124 H     1.0000    0     1.008    7.547944   -1.936629    9.289081
 125 H     1.0000    0     1.008    3.926643   -3.909617   11.494032
 126 H     1.0000    0     1.008    2.054491   -8.045037    4.740378
 127 H     1.0000    0     1.008    5.654703   -6.048617    2.517210
 128 H     1.0000    0     1.008   -0.706625   -8.284729    8.342650
 129 H     1.0000    0     1.008   -0.431632   -6.053964   10.814865
 130 H     1.0000    0     1.008    2.700154  -10.965419   10.392946
 131 H     1.0000    0     1.008    0.095998  -10.477983   12.477370
 132 H     1.0000    0     1.008    2.945157   -8.729628   12.885476
 133 H     1.0000    0     1.008   33.669345  -22.475155    1.191888
 134 H     1.0000    0     1.008   36.663427  -21.114666    0.619018
 135 H     1.0000    0     1.008   32.764431  -22.431163   -3.529838
 136 H     1.0000    0     1.008   35.553591  -24.206220   -2.798798
 137 H     1.0000    0     1.008   35.771287  -21.096789   -4.078199

--------------------------------
INTERNAL COORDINATES (ANGSTROEM)
--------------------------------
 C      0   0   0     0.000000000000     0.00000000     0.00000000
 O      1   0   0     1.219588592436     0.00000000     0.00000000
 C      1   2   0     1.483196630828   125.60404227     0.00000000
 C      3   1   2     1.390396149736   127.57047257     5.42313016
 C      4   3   1     1.389996273772   117.59260777   177.07361153
 F      5   4   3     1.330695360253   120.92487740   180.69464808
 C      5   4   3     1.406397426974   120.32199856     0.15226115
 F      7   5   4     1.330500680984   118.18279361   181.14247875
 C      7   5   4     1.392863943032   121.92607258     0.73161574
 C      9   7   5     1.401601564854   118.16069145   358.75342330
 C     10   9   7     1.486129305747   132.12571471   182.70492405
 C     11  10   9     1.384565275926   124.59063548   354.36133447
 C     12  11  10     1.430279141462   123.76987737   182.15276084
 N     13  12  11     1.162660562030   178.13902067   175.13598784
 C     12  11  10     1.430296617489   122.60870734     1.66318595
 N     15  12  11     1.162529750544   179.08565289   136.29357444
 C     11  10   9     1.465659856993   107.19215352   173.89637029
 C     17  11  10     1.383681183113   125.96991077   194.83280095
 C     18  17  11     1.416789228291   133.22460971   165.60799180
 S     19  18  17     1.784150142477   127.16833639    12.34175246
 C     20  19  18     1.730708041179    90.57495173   186.99497924
 C     21  20  19     1.410648808350   112.42776573   359.51940894
 C     22  21  20     1.403871816442   113.92981880   359.26932219
 C     23  22  21     1.479029287641   122.06245084   178.44387675
 S     22  21  20     1.768102118403   113.48845078   168.72064911
 C     25  22  21     1.745068084947    88.84068739   358.62433514
 C     26  25  22     1.397322523471   113.70813839     2.14546012
 N     27  26  25     1.393423963839   111.05598805   182.44977382
 C     28  27  26     1.505150024748   113.62151681   220.61886474
 C     29  28  27     1.533084922371   111.01516248   119.97756869
 C     28  27  26     1.414622691568   105.89794210     6.61408787
 C     26  25  22     1.414682911680   139.02230254   191.27272926
 C     32  26  25     1.429794226943   130.32375687   358.50033165
 N     33  32  26     1.325817616303   126.87468151   350.91594072
 S     34  33  32     1.655349348687   106.73389649   178.16592332
 N     35  34  33     1.656312483501    98.90122478   359.48621958
 C     36  35  34     1.326000530204   106.86996242     0.40408167
 C     37  36  35     1.432161715031   127.30548214   187.11083320
 C     38  37  36     1.438287281665   121.28895478   176.98941893
 N     39  38  37     1.393486378907   107.59687812   193.87550440
 C     40  39  38     1.455036275905   131.53701097   177.63580123
 C     41  40  39     1.545315862146   116.41325330    98.01269790
 C     40  39  38     1.380462866904   108.27585178     1.62274092
 C     43  40  39     1.402641471296   109.78377517   357.11057958
 S     44  43  40     1.747518865163   113.41794385   173.84601633
 C     45  44  43     1.771725539693    89.14146970   357.24531895
 C     46  45  44     1.411141475615   113.22458010     1.76068832
 S     47  46  45     1.732567861037   112.62489654   181.84870456
 C     48  47  46     1.777205944932    90.47393282     2.13374148
 C     46  45  44     1.406744204395   132.99754560   184.75783903
 C     50  46  45     1.472265240573   125.07648683   359.34496613
 C     49  48  47     1.412374987105   125.93354744   168.10821697
 C     52  49  48     1.382416186718   133.97072381    10.70836518
 C     53  52  49     1.461412186688   125.30948882   179.98983672
 C     54  53  52     1.385355696635   127.88502619    15.01287152
 C     55  54  53     1.429703656846   122.58532244   182.16685609
 N     56  55  54     1.162419633781   178.91183128   146.84276816
 C     55  54  53     1.430830288119   124.01302546     4.68009822
 N     58  55  54     1.162847547746   177.14594095   156.48164188
 C     54  53  52     1.484100630719   107.20196016   192.19233226
 C     60  54  53     1.400205669750   132.00297198   175.04024015
 C     61  60  54     1.392224397610   118.06701871   179.42132810
 F     62  61  60     1.330515679953   119.59645732   178.55438835
 C     62  61  60     1.406591147989   121.82941133   358.59380937
 F     64  62  61     1.330054474862   118.91273499   181.33008360
 C     64  62  61     1.391041111542   120.47833628     1.67721494
 C     66  64  62     1.389031021144   117.51539761   359.54556873
 C     53  52  49     1.479745597865   126.31885128     7.07743617
 O     68  53  52     1.220292524971   128.08454057   350.53081257
 C     42  41  40     1.541060475063   114.85503509    39.10784408
 C     70  42  41     1.528715602622   115.41651785   278.75514836
 C     42  41  40     1.539850657369   108.14344501   164.38737256
 C     72  42  41     1.526561542749   113.26290264   156.05071520
 C     30  29  28     1.529141757000   112.42054271   287.58245818
 C     29  28  27     1.534827871815   114.49641576   255.27887441
 C     75  29  28     1.528358355426   111.92876588   151.27360691
 C     51  50  46     1.405750707060   120.00678244    47.04672275
 C     77  51  50     1.392836761074   120.53805621   173.24463679
 C     78  77  51     1.401866111617   121.21421379     0.36132167
 C     79  78  77     1.403125552828   117.97875661     2.72988884
 C     80  79  78     1.390606012823   121.23399230   357.22400366
 C     24  23  22     1.406126851248   119.18915365    61.46600559
 C     82  24  23     1.391823850385   120.48905955   181.71364387
 C     83  82  24     1.404154507773   121.19547547     1.10373912
 C     84  83  82     1.400922863009   118.03244624   359.39089037
 C     85  84  83     1.394868741101   121.18959220   359.86946790
 C     84  83  82     1.510055832776   120.41010691   176.33863288
 C     87  84  83     1.535139842001   112.01428436   285.44619987
 C     79  78  77     1.507867716148   121.33616816   186.59873603
 C     89  79  78     1.535640659204   111.85229167   100.35603255
 H      4   3   1     1.091132474588   121.40295491   357.32595910
 H      9   7   5     1.087684941608   118.02165502   180.27965003
 H     18  17  11     1.089692620605   115.78405594   353.23626083
 H     29  28  27     1.100335935976   102.83598535     7.78453845
 H     30  29  28     1.101533339441   108.29911378   166.12822766
 H     30  29  28     1.098311883711   110.11756871    50.64067627
 H     41  40  39     1.095444558159   108.36968116   332.62099685
 H     41  40  39     1.101471004158   106.13500908   219.24548270
 H     42  41  40     1.098805595044   107.74703451   279.99380704
 H     52  49  48     1.088958505408   110.95173005   190.61546598
 H     61  60  54     1.087824866327   123.81530914   358.74211391
 H     66  64  62     1.090842929940   120.96134209   179.48452418
 H     70  42  41     1.101262810277   107.90135053   157.81987691
 H     70  42  41     1.099654038141   109.81296512    44.39002798
 H     71  70  42     1.102162787387   110.99542539   295.75700555
 H     71  70  42     1.101214305801   110.79780531   176.33589255
 H     71  70  42     1.097716073354   112.89126253    56.25771917
 H     72  42  41     1.104156396576   109.81472439    34.48684765
 H     72  42  41     1.103480613378   108.75693663   279.47008669
 H     73  72  42     1.102594497039   110.93582738   296.80095762
 H     73  72  42     1.100497579325   111.49116211   176.80660563
 H     73  72  42     1.101621603864   111.84873207    56.50255518
 H     74  30  29     1.102037891408   111.00693977   300.05920392
 H     74  30  29     1.100272129293   111.34346883   180.17635738
 H     74  30  29     1.101321696962   111.48668463    59.76154190
 H     75  29  28     1.101620311587   108.01328777    30.63901954
 H     75  29  28     1.093603342396   111.65461599   273.59071739
 H     76  75  29     1.101869134017   111.31484629   298.53264208
 H     76  75  29     1.100090426283   110.84138871   178.76291587
 H     76  75  29     1.101116167804   111.71239506    59.12948838
 H     77  51  50     1.091747145542   119.62481933   356.04907022
 H     78  77  51     1.092820794321   119.35015154   182.14979088
 H     80  79  78     1.093217310236   119.32529994   178.78854105
 H     81  80  79     1.091740125763   119.90041663   180.26853852
 H     82  24  23     1.092361265653   119.44110583     2.61292910
 H     83  82  24     1.093171758691   119.33314925   181.54857647
 H     85  84  83     1.093033808855   119.41532555   180.11510805
 H     86  85  84     1.091642812737   119.91351209   179.07636591
 H     87  84  83     1.101902850936   109.52719066   163.47838339
 H     87  84  83     1.103678955313   109.41211191    46.99685598
 H     88  87  84     1.101596368821   110.85653001   300.77145904
 H     88  87  84     1.101450149349   111.28937623   180.37081059
 H     88  87  84     1.102270396817   111.02970851    60.11711038
 H     89  79  78     1.101364510914   109.50859293   338.55849324
 H     89  79  78     1.103516842373   109.67123816   222.04754313
 H     90  89  79     1.100103801739   111.12859908   301.50888340
 H     90  89  79     1.101314829329   110.88017928   180.16113616
 H     90  89  79     1.100120627295   110.88573871    59.96645733

---------------------------
INTERNAL COORDINATES (A.U.)
---------------------------
 C      0   0   0     0.000000000000     0.00000000     0.00000000
 O      1   0   0     2.304688435759     0.00000000     0.00000000
 C      1   2   0     2.802835435020   125.60404227     0.00000000
 C      3   1   2     2.627467940659   127.57047257     5.42313016
 C      4   3   1     2.626712284600   117.59260777   177.07361153
 F      5   4   3     2.514649798559   120.92487740   180.69464808
 C      5   4   3     2.657705972433   120.32199856     0.15226115
 F      7   5   4     2.514281908056   118.18279361   181.14247875
 C      7   5   4     2.632131394145   121.92607258     0.73161574
 C      9   7   5     2.648643106449   118.16069145   358.75342330
 C     10   9   7     2.808377387456   132.12571471   182.70492405
 C     11  10   9     2.616449186037   124.59063548   354.36133447
 C     12  11  10     2.702835872422   123.76987737   182.15276084
 N     13  12  11     2.197110048948   178.13902067   175.13598784
 C     12  11  10     2.702868897328   122.60870734     1.66318595
 N     15  12  11     2.196862851064   179.08565289   136.29357444
 C     11  10   9     2.769695735198   107.19215352   173.89637029
 C     17  11  10     2.614778492743   125.96991077   194.83280095
 C     18  17  11     2.677343630959   133.22460971   165.60799180
 S     19  18  17     3.371555151078   127.16833639    12.34175246
 C     20  19  18     3.270564215603    90.57495173   186.99497924
 C     21  20  19     2.665739918924   112.42776573   359.51940894
 C     22  21  20     2.652933260206   113.92981880   359.26932219
 C     23  22  21     2.794960297690   122.06245084   178.44387675
 S     22  21  20     3.341228780587   113.48845078   168.72064911
 C     25  22  21     3.297700765596    88.84068739   358.62433514
 C     26  25  22     2.640556890120   113.70813839     2.14546012
 N     27  26  25     2.633189680098   111.05598805   182.44977382
 C     28  27  26     2.844321337239   113.62151681   220.61886474
 C     29  28  27     2.897110643324   111.01516248   119.97756869
 C     28  27  26     2.673249469895   105.89794210     6.61408787
 C     26  25  22     2.673363269414   139.02230254   191.27272926
 C     32  26  25     2.701919516784   130.32375687   358.50033165
 N     33  32  26     2.505432198341   126.87468151   350.91594072
 S     34  33  32     3.128156924984   106.73389649   178.16592332
 N     35  34  33     3.129976986011    98.90122478   359.48621958
 C     36  35  34     2.505777855519   106.86996242     0.40408167
 C     37  36  35     2.706393420895   127.30548214   187.11083320
 C     38  37  36     2.717969064249   121.28895478   176.98941893
 N     39  38  37     2.633307627484   107.59687812   193.87550440
 C     40  39  38     2.749620076381   131.53701097   177.63580123
 C     41  40  39     2.920223769860   116.41325330    98.01269790
 C     40  39  38     2.608696756496   108.27585178     1.62274092
 C     43  40  39     2.650608244830   109.78377517   357.11057958
 S     44  43  40     3.302332069019   113.41794385   173.84601633
 C     45  44  43     3.348076054493    89.14146970   357.24531895
 C     46  45  44     2.666670925129   113.22458010     1.76068832
 S     47  46  45     3.274078765795   112.62489654   181.84870456
 C     48  47  46     3.358432519497    90.47393282     2.13374148
 C     46  45  44     2.658361286788   132.99754560   184.75783903
 C     50  46  45     2.782178101175   125.07648683   359.34496613
 C     49  48  47     2.669001924029   125.93354744   168.10821697
 C     52  49  48     2.612387995997   133.97072381    10.70836518
 C     53  52  49     2.761668801615   125.30948882   179.98983672
 C     54  53  52     2.617942864708   127.88502619    15.01287152
 C     55  54  53     2.701748364105   122.58532244   182.16685609
 N     56  55  54     2.196654760539   178.91183128   146.84276816
 C     55  54  53     2.703877388665   124.01302546     4.68009822
 N     58  55  54     2.197463400743   177.14594095   156.48164188
 C     54  53  52     2.804543747238   107.20196016   192.19233226
 C     60  54  53     2.646005246991   132.00297198   175.04024015
 C     61  60  54     2.630922828446   118.06701871   179.42132810
 F     62  61  60     2.514310251999   119.59645732   178.55438835
 C     62  61  60     2.658072052096   121.82941133   358.59380937
 F     64  62  61     2.513438700685   118.91273499   181.33008360
 C     64  62  61     2.628686741840   120.47833628     1.67721494
 C     66  64  62     2.624888221483   117.51539761   359.54556873
 C     53  52  49     2.796313927840   126.31885128     7.07743617
 O     68  53  52     2.306018675466   128.08454057   350.53081257
 C     42  41  40     2.912182253679   114.85503509    39.10784408
 C     70  42  41     2.888853825608   115.41651785   278.75514836
 C     42  41  40     2.909896029566   108.14344501   164.38737256
 C     72  42  41     2.884783242372   113.26290264   156.05071520
 C     30  29  28     2.889659140673   112.42054271   287.58245818
 C     29  28  27     2.900404340439   114.49641576   255.27887441
 C     75  29  28     2.888178726245   111.92876588   151.27360691
 C     51  50  46     2.656483848910   120.00678244    47.04672275
 C     77  51  50     2.632080027688   120.53805621   173.24463679
 C     78  77  51     2.649143027381   121.21421379     0.36132167
 C     79  78  77     2.651523026353   117.97875661     2.72988884
 C     80  79  78     2.627864524420   121.23399230   357.22400366
 C     24  23  22     2.657194658411   119.18915365    61.46600559
 C     82  24  23     2.630165903887   120.48905955   181.71364387
 C     83  82  24     2.653467469402   121.19547547     1.10373912
 C     84  83  82     2.647360545835   118.03244624   359.39089037
 C     85  84  83     2.635919913448   121.18959220   359.86946790
 C     84  83  82     2.853591970877   120.41010691   176.33863288
 C     87  84  83     2.900993878654   112.01428436   285.44619987
 C     79  78  77     2.849457029700   121.33616816   186.59873603
 C     89  79  78     2.901940286010   111.85229167   100.35603255
 H      4   3   1     2.061941552799   121.40295491   357.32595910
 H      9   7   5     2.055426659629   118.02165502   180.27965003
 H     18  17  11     2.059220623098   115.78405594   353.23626083
 H     29  28  27     2.079333574306   102.83598535     7.78453845
 H     30  29  28     2.081596338927   108.29911378   166.12822766
 H     30  29  28     2.075508669844   110.11756871    50.64067627
 H     41  40  39     2.070090209815   108.36968116   332.62099685
 H     41  40  39     2.081478542313   106.13500908   219.24548270
 H     42  41  40     2.076441649054   107.74703451   279.99380704
 H     52  49  48     2.057833346425   110.95173005   190.61546598
 H     61  60  54     2.055691079028   123.81530914   358.74211391
 H     66  64  62     2.061394392711   120.96134209   179.48452418
 H     70  42  41     2.081085112897   107.90135053   157.81987691
 H     70  42  41     2.078044974147   109.81296512    44.39002798
 H     71  70  42     2.082785823160   110.99542539   295.75700555
 H     71  70  42     2.080993452719   110.79780531   176.33589255
 H     71  70  42     2.074382751443   112.89126253    56.25771917
 H     72  42  41     2.086553198546   109.81472439    34.48684765
 H     72  42  41     2.085276153375   108.75693663   279.47008669
 H     73  72  42     2.083601636172   110.93582738   296.80095762
 H     73  72  42     2.079639035967   111.49116211   176.80660563
 H     73  72  42     2.081763134514   111.84873207    56.50255518
 H     74  30  29     2.082549803966   111.00693977   300.05920392
 H     74  30  29     2.079212997151   111.34346883   180.17635738
 H     74  30  29     2.081196392604   111.48668463    59.76154190
 H     75  29  28     2.081760692464   108.01328777    30.63901954
 H     75  29  28     2.066610816270   111.65461599   273.59071739
 H     76  75  29     2.082230898714   111.31484629   298.53264208
 H     76  75  29     2.078869628224   110.84138871   178.76291587
 H     76  75  29     2.080807998783   111.71239506    59.12948838
 H     77  51  50     2.063103112565   119.62481933   356.04907022
 H     78  77  51     2.065132014721   119.35015154   182.14979088
 H     80  79  78     2.065881321208   119.32529994   178.78854105
 H     81  80  79     2.063089847104   119.90041663   180.26853852
 H     82  24  23     2.064263631389   119.44110583     2.61292910
 H     83  82  24     2.065795241263   119.33314925   181.54857647
 H     85  84  83     2.065534553853   119.41532555   180.11510805
 H     86  85  84     2.062905952136   119.91351209   179.07636591
 H     87  84  83     2.082294614455   109.52719066   163.47838339
 H     87  84  83     2.085650965313   109.41211191    46.99685598
 H     88  87  84     2.081715447194   110.85653001   300.77145904
 H     88  87  84     2.081439132435   111.28937623   180.37081059
 H     88  87  84     2.082989175514   111.02970851    60.11711038
 H     89  79  78     2.081277299247   109.50859293   338.55849324
 H     89  79  78     2.085344616254   109.67123816   222.04754313
 H     90  89  79     2.078894904172   111.12859908   301.50888340
 H     90  89  79     2.081183414658   110.88017928   180.16113616
 H     90  89  79     2.078926699865   110.88573871    59.96645733

---------------------
BASIS SET INFORMATION
---------------------
There are 6 groups of distinct atoms

 Group   1 Type C   : 7s4p1d contracted to 3s2p1d pattern {511/31/1}
 Group   2 Type O   : 7s4p1d contracted to 3s2p1d pattern {511/31/1}
 Group   3 Type F   : 7s4p1d contracted to 3s2p1d pattern {511/31/1}
 Group   4 Type N   : 7s4p1d contracted to 3s2p1d pattern {511/31/1}
 Group   5 Type S   : 10s7p1d contracted to 4s3p1d pattern {5311/511/1}
 Group   6 Type H   : 4s1p contracted to 2s1p pattern {31/1}

Atom   0C    basis set group =>   1
Atom   1O    basis set group =>   2
Atom   2C    basis set group =>   1
Atom   3C    basis set group =>   1
Atom   4C    basis set group =>   1
Atom   5F    basis set group =>   3
Atom   6C    basis set group =>   1
Atom   7F    basis set group =>   3
Atom   8C    basis set group =>   1
Atom   9C    basis set group =>   1
Atom  10C    basis set group =>   1
Atom  11C    basis set group =>   1
Atom  12C    basis set group =>   1
Atom  13N    basis set group =>   4
Atom  14C    basis set group =>   1
Atom  15N    basis set group =>   4
Atom  16C    basis set group =>   1
Atom  17C    basis set group =>   1
Atom  18C    basis set group =>   1
Atom  19S    basis set group =>   5
Atom  20C    basis set group =>   1
Atom  21C    basis set group =>   1
Atom  22C    basis set group =>   1
Atom  23C    basis set group =>   1
Atom  24S    basis set group =>   5
Atom  25C    basis set group =>   1
Atom  26C    basis set group =>   1
Atom  27N    basis set group =>   4
Atom  28C    basis set group =>   1
Atom  29C    basis set group =>   1
Atom  30C    basis set group =>   1
Atom  31C    basis set group =>   1
Atom  32C    basis set group =>   1
Atom  33N    basis set group =>   4
Atom  34S    basis set group =>   5
Atom  35N    basis set group =>   4
Atom  36C    basis set group =>   1
Atom  37C    basis set group =>   1
Atom  38C    basis set group =>   1
Atom  39N    basis set group =>   4
Atom  40C    basis set group =>   1
Atom  41C    basis set group =>   1
Atom  42C    basis set group =>   1
Atom  43C    basis set group =>   1
Atom  44S    basis set group =>   5
Atom  45C    basis set group =>   1
Atom  46C    basis set group =>   1
Atom  47S    basis set group =>   5
Atom  48C    basis set group =>   1
Atom  49C    basis set group =>   1
Atom  50C    basis set group =>   1
Atom  51C    basis set group =>   1
Atom  52C    basis set group =>   1
Atom  53C    basis set group =>   1
Atom  54C    basis set group =>   1
Atom  55C    basis set group =>   1
Atom  56N    basis set group =>   4
Atom  57C    basis set group =>   1
Atom  58N    basis set group =>   4
Atom  59C    basis set group =>   1
Atom  60C    basis set group =>   1
Atom  61C    basis set group =>   1
Atom  62F    basis set group =>   3
Atom  63C    basis set group =>   1
Atom  64F    basis set group =>   3
Atom  65C    basis set group =>   1
Atom  66C    basis set group =>   1
Atom  67C    basis set group =>   1
Atom  68O    basis set group =>   2
Atom  69C    basis set group =>   1
Atom  70C    basis set group =>   1
Atom  71C    basis set group =>   1
Atom  72C    basis set group =>   1
Atom  73C    basis set group =>   1
Atom  74C    basis set group =>   1
Atom  75C    basis set group =>   1
Atom  76C    basis set group =>   1
Atom  77C    basis set group =>   1
Atom  78C    basis set group =>   1
Atom  79C    basis set group =>   1
Atom  80C    basis set group =>   1
Atom  81C    basis set group =>   1
Atom  82C    basis set group =>   1
Atom  83C    basis set group =>   1
Atom  84C    basis set group =>   1
Atom  85C    basis set group =>   1
Atom  86C    basis set group =>   1
Atom  87C    basis set group =>   1
Atom  88C    basis set group =>   1
Atom  89C    basis set group =>   1
Atom  90H    basis set group =>   6
Atom  91H    basis set group =>   6
Atom  92H    basis set group =>   6
Atom  93H    basis set group =>   6
Atom  94H    basis set group =>   6
Atom  95H    basis set group =>   6
Atom  96H    basis set group =>   6
Atom  97H    basis set group =>   6
Atom  98H    basis set group =>   6
Atom  99H    basis set group =>   6
Atom 100H    basis set group =>   6
Atom 101H    basis set group =>   6
Atom 102H    basis set group =>   6
Atom 103H    basis set group =>   6
Atom 104H    basis set group =>   6
Atom 105H    basis set group =>   6
Atom 106H    basis set group =>   6
Atom 107H    basis set group =>   6
Atom 108H    basis set group =>   6
Atom 109H    basis set group =>   6
Atom 110H    basis set group =>   6
Atom 111H    basis set group =>   6
Atom 112H    basis set group =>   6
Atom 113H    basis set group =>   6
Atom 114H    basis set group =>   6
Atom 115H    basis set group =>   6
Atom 116H    basis set group =>   6
Atom 117H    basis set group =>   6
Atom 118H    basis set group =>   6
Atom 119H    basis set group =>   6
Atom 120H    basis set group =>   6
Atom 121H    basis set group =>   6
Atom 122H    basis set group =>   6
Atom 123H    basis set group =>   6
Atom 124H    basis set group =>   6
Atom 125H    basis set group =>   6
Atom 126H    basis set group =>   6
Atom 127H    basis set group =>   6
Atom 128H    basis set group =>   6
Atom 129H    basis set group =>   6
Atom 130H    basis set group =>   6
Atom 131H    basis set group =>   6
Atom 132H    basis set group =>   6
Atom 133H    basis set group =>   6
Atom 134H    basis set group =>   6
Atom 135H    basis set group =>   6
Atom 136H    basis set group =>   6
Atom 137H    basis set group =>   6
------------------------------------------------------------------------------
                           ORCA GTO INTEGRAL CALCULATION
------------------------------------------------------------------------------

                         BASIS SET STATISTICS AND STARTUP INFO

 # of primitive gaussian shells          ... 1350
 # of primitive gaussian functions       ... 2556
 # of contracted shells                  ...  694
 # of contracted basis functions         ... 1520
 Highest angular momentum                ...    2
 Maximum contraction depth               ...    5
 Integral package used                   ... LIBINT
 Integral threshhold            Thresh   ...  2.500e-11
 Primitive cut-off              TCut     ...  2.500e-12


------------------------------ INTEGRAL EVALUATION ----------------------------


 * One electron integrals 
 Pre-screening matrix                    ... done
 Shell pair data                         ... done (   0.024 sec)

-------------------------------------------------------------------------------
                                 ORCA SCF
-------------------------------------------------------------------------------

------------
SCF SETTINGS
------------
Hamiltonian:
 Ab initio Hamiltonian  Method          .... Hartree-Fock(GTOs)


General Settings:
 Integral files         IntName         .... BTP-PhC6
 Hartree-Fock type      HFTyp           .... RHF
 Total Charge           Charge          ....    0
 Multiplicity           Mult            ....    1
 Number of Electrons    NEL             ....  662
 Basis Dimension        Dim             .... 1520
 Nuclear Repulsion      ENuc            ....  16324.7819029673 Eh

Convergence Acceleration:
 DIIS                   CNVDIIS         .... on
   Start iteration      DIISMaxIt       ....    12
   Startup error        DIISStart       ....  0.200000
   # of expansion vecs  DIISMaxEq       ....     5
   Bias factor          DIISBfac        ....   1.050
   Max. coefficient     DIISMaxC        ....  10.000
 Newton-Raphson         CNVNR           .... off
 SOSCF                  CNVSOSCF        .... on
   Start iteration      SOSCFMaxIt      ....   150
   Startup grad/error   SOSCFStart      ....  0.003300
 Level Shifting         CNVShift        .... on
   Level shift para.    LevelShift      ....    0.2500
   Turn off err/grad.   ShiftErr        ....    0.0010
 Zerner damping         CNVZerner       .... off
 Static damping         CNVDamp         .... on
   Fraction old density DampFac         ....    0.7000
   Max. Damping (<1)    DampMax         ....    0.9800
   Min. Damping (>=0)   DampMin         ....    0.0000
   Turn off err/grad.   DampErr         ....    0.1000
 Fernandez-Rico         CNVRico         .... off

SCF Procedure:
 Maximum # iterations   MaxIter         ....   125
 SCF integral mode      SCFMode         .... Direct
   Integral package                     .... LIBINT
 Reset frequency        DirectResetFreq ....    20
 Integral Threshold     Thresh          ....  2.500e-11 Eh
 Primitive CutOff       TCut            ....  2.500e-12 Eh

Convergence Tolerance:
 Convergence Check Mode ConvCheckMode   .... Total+1el-Energy
 Convergence forced     ConvForced      .... 1
 Energy Change          TolE            ....  1.000e-08 Eh
 1-El. energy change                    ....  1.000e-05 Eh
 Orbital Gradient       TolG            ....  1.000e-05
 Orbital Rotation angle TolX            ....  1.000e-05
 DIIS Error             TolErr          ....  5.000e-07


Diagonalization of the overlap matrix:
Smallest eigenvalue                        ... 1.163e-04
Time for diagonalization                   ...    0.602 sec
Threshold for overlap eigenvalues          ... 1.000e-08
Number of eigenvalues below threshold      ... 0
Time for construction of square roots      ...    0.208 sec
Total time needed                          ...    0.816 sec

-------------------
DFT GRID GENERATION
-------------------

General Integration Accuracy     IntAcc      ...  4.340
Radial Grid Type                 RadialGrid  ... Gauss-Chebyshev
Angular Grid (max. acc.)         AngularGrid ... Lebedev-110
Angular grid pruning method      GridPruning ... 3 (G Style)
Weight generation scheme         WeightScheme... Becke
Basis function cutoff            BFCut       ...    1.0000e-11
Integration weight cutoff        WCut        ...    1.0000e-14
Grids for H and He will be reduced by one unit

# of grid points (after initial pruning)     ... 188726 (   0.3 sec)
# of grid points (after weights+screening)   ... 163138 (  11.0 sec)
nearest neighbour list constructed           ...    0.0 sec
Grid point re-assignment to atoms done       ...    0.0 sec
Grid point division into batches done        ...    0.1 sec
Reduced shell lists constructed in    3.0 sec

Total number of grid points                  ...   163138
Total number of batches                      ...     2629
Average number of points per batch           ...       62
Average number of grid points per atom       ...     1182
Average number of shells per batch           ...   123.62 (17.81%)
Average number of basis functions per batch  ...   249.85 (16.44%)
Average number of large shells per batch     ...    71.33 (57.70%)
Average number of large basis fcns per batch ...   146.70 (58.72%)
Maximum spatial batch extension              ...  22.37, 37.11, 22.16 au
Average spatial batch extension              ...   3.15,  3.24,  3.15 au

Time for grid setup =   14.339 sec

------------------------------
INITIAL GUESS: MODEL POTENTIAL
------------------------------
Loading Hartree-Fock densities                     ... done
Calculating cut-offs                               ... done
Setting up the integral package                    ... done
Initializing the effective Hamiltonian             ... done
Starting the Coulomb interaction                   ... done (  15.3 sec)
Reading the grid                                   ... done
Mapping shells                                     ... done
Starting the XC term evaluation                    ... done (   2.2 sec)
Transforming the Hamiltonian                       ... done (   0.2 sec)
Diagonalizing the Hamiltonian                      ... done (   0.5 sec)
Back transforming the eigenvectors                 ... done (   0.1 sec)
Now organizing SCF variables                       ... done
                      ------------------
                      INITIAL GUESS DONE (  32.9 sec)
                      ------------------
--------------
SCF ITERATIONS
--------------
ITER       Energy         Delta-E        Max-DP      RMS-DP      [F,P]     Damp
               ***  Starting incremental Fock matrix formation  ***
  0  -5680.8695913366   0.000000000000 0.09079389  0.00113263  0.2361916 0.7000
  1  -5681.8231773593  -0.953586022642 0.06899809  0.00087527  0.1458039 0.7000
                               ***Turning on DIIS***
  2  -5682.4028764222  -0.579699062964 0.16509637  0.00203399  0.0840210 0.0000
  3  -5678.9171870961   3.485689326102 0.08048014  0.00043987  0.0517626 0.0000
  4  -5683.9683135847  -5.051126488528 0.01461835  0.00018000  0.0185461 0.0000
  5  -5683.8066518667   0.161661717910 0.00791900  0.00008690  0.0110061 0.0000
  6  -5683.5850558257   0.221596040999 0.00756372  0.00005424  0.0032784 0.0000
                      *** Initiating the SOSCF procedure ***
                           *** Shutting down DIIS ***
                      *** Re-Reading the Fockian *** 
                      *** Removing any level shift *** 
ITER      Energy       Delta-E        Grad      Rot      Max-DP    RMS-DP
  7  -5683.67706442  -0.0920085919  0.003074  0.003074  0.004202  0.000034
               *** Restarting incremental Fock matrix formation ***
  8  -5683.66176803   0.0152963837  0.001948  0.008063  0.003238  0.000023
  9  -5683.66206261  -0.0002945714  0.000695  0.007660  0.004942  0.000035
 10  -5683.66220853  -0.0001459217  0.000302  0.000793  0.000970  0.000008
 11  -5683.66221882  -0.0000102903  0.000263  0.000937  0.000414  0.000003
 12  -5683.66222224  -0.0000034255  0.000059  0.000299  0.000110  0.000001
 13  -5683.66222272  -0.0000004785  0.000021  0.000170  0.000131  0.000001
 14  -5683.66222292  -0.0000001942  0.000013  0.000113  0.000053  0.000001
 15  -5683.66222295  -0.0000000350  0.000006  0.000054  0.000023  0.000000
 16  -5683.66222293   0.0000000215  0.000004  0.000024  0.000015  0.000000
                  ***Gradient check signals convergence***
              ***Rediagonalizing the Fockian in SOSCF/NRSCF***

               *****************************************************
               *                     SUCCESS                       *
               *           SCF CONVERGED AFTER  17 CYCLES          *
               *****************************************************


----------------
TOTAL SCF ENERGY
----------------

Total Energy       :        -5683.66222289 Eh         -154660.31186 eV

Components:
Nuclear Repulsion  :        16324.78190297 Eh          444219.89928 eV
Electronic Energy  :       -22008.44412585 Eh         -598880.21115 eV
One Electron Energy:       -40332.32959220 Eh        -1097498.48395 eV
Two Electron Energy:        18323.88546635 Eh          498618.27280 eV

Virial components:
Potential Energy   :       -11349.60988958 Eh         -308838.58615 eV
Kinetic Energy     :         5665.94766670 Eh          154178.27428 eV
Virial Ratio       :            2.00312649


---------------
SCF CONVERGENCE
---------------

  Last Energy change         ...    4.3863e-08  Tolerance :   1.0000e-08
  Last MAX-Density change    ...    9.4946e-06  Tolerance :   1.0000e-07
  Last RMS-Density change    ...    7.2381e-08  Tolerance :   5.0000e-09
  Last Orbital Gradient      ...    1.7295e-06  Tolerance :   1.0000e-05
  Last Orbital Rotation      ...    1.8126e-05  Tolerance :   1.0000e-05

             **** THE GBW FILE WAS UPDATED (BTP-PhC6.gbw) ****
             **** DENSITY FILE WAS UPDATED (BTP-PhC6.scfp) ****
             **** ENERGY FILE WAS UPDATED (BTP-PhC6.en.tmp) ****
             **** THE GBW FILE WAS UPDATED (BTP-PhC6.gbw) ****
             **** DENSITY FILE WAS UPDATED (BTP-PhC6.scfp) ****
----------------
ORBITAL ENERGIES
----------------

  NO   OCC          E(Eh)            E(eV) 
   0   2.0000     -92.021481     -2504.0318 
   1   2.0000     -91.982039     -2502.9585 
   2   2.0000     -91.981894     -2502.9546 
   3   2.0000     -91.978151     -2502.8527 
   4   2.0000     -91.976714     -2502.8136 
   5   2.0000     -26.337988      -716.6931 
   6   2.0000     -26.337039      -716.6673 
   7   2.0000     -26.334821      -716.6069 
   8   2.0000     -26.334070      -716.5865 
   9   2.0000     -20.571758      -559.7860 
  10   2.0000     -20.569695      -559.7299 
  11   2.0000     -15.657628      -426.0657 
  12   2.0000     -15.642918      -425.6655 
  13   2.0000     -15.623538      -425.1381 
  14   2.0000     -15.620627      -425.0589 
  15   2.0000     -15.595985      -424.3883 
  16   2.0000     -15.594525      -424.3486 
  17   2.0000     -15.594249      -424.3411 
  18   2.0000     -15.592324      -424.2887 
  19   2.0000     -11.379611      -309.6550 
  20   2.0000     -11.378591      -309.6272 
  21   2.0000     -11.377788      -309.6053 
  22   2.0000     -11.376724      -309.5764 
  23   2.0000     -11.370142      -309.3973 
  24   2.0000     -11.368829      -309.3616 
  25   2.0000     -11.350540      -308.8639 
  26   2.0000     -11.347867      -308.7912 
  27   2.0000     -11.340374      -308.5873 
  28   2.0000     -11.337976      -308.5220 
  29   2.0000     -11.327306      -308.2317 
  30   2.0000     -11.324760      -308.1624 
  31   2.0000     -11.324657      -308.1596 
  32   2.0000     -11.321171      -308.0647 
  33   2.0000     -11.317933      -307.9766 
  34   2.0000     -11.317686      -307.9699 
  35   2.0000     -11.316591      -307.9401 
  36   2.0000     -11.314782      -307.8909 
  37   2.0000     -11.314328      -307.8785 
  38   2.0000     -11.312768      -307.8361 
  39   2.0000     -11.310920      -307.7858 
  40   2.0000     -11.310696      -307.7797 
  41   2.0000     -11.309592      -307.7496 
  42   2.0000     -11.308597      -307.7226 
  43   2.0000     -11.307109      -307.6821 
  44   2.0000     -11.307015      -307.6795 
  45   2.0000     -11.306751      -307.6723 
  46   2.0000     -11.306616      -307.6687 
  47   2.0000     -11.306434      -307.6637 
  48   2.0000     -11.305861      -307.6481 
  49   2.0000     -11.305379      -307.6350 
  50   2.0000     -11.303228      -307.5765 
  51   2.0000     -11.299818      -307.4837 
  52   2.0000     -11.298442      -307.4462 
  53   2.0000     -11.298323      -307.4430 
  54   2.0000     -11.297715      -307.4265 
  55   2.0000     -11.297606      -307.4235 
  56   2.0000     -11.297161      -307.4114 
  57   2.0000     -11.296604      -307.3962 
  58   2.0000     -11.296414      -307.3911 
  59   2.0000     -11.291270      -307.2511 
  60   2.0000     -11.289985      -307.2161 
  61   2.0000     -11.286988      -307.1346 
  62   2.0000     -11.281069      -306.9735 
  63   2.0000     -11.280035      -306.9453 
  64   2.0000     -11.275193      -306.8136 
  65   2.0000     -11.270367      -306.6823 
  66   2.0000     -11.270075      -306.6743 
  67   2.0000     -11.263186      -306.4869 
  68   2.0000     -11.262826      -306.4771 
  69   2.0000     -11.262102      -306.4574 
  70   2.0000     -11.262051      -306.4560 
  71   2.0000     -11.260627      -306.4172 
  72   2.0000     -11.258994      -306.3728 
  73   2.0000     -11.258937      -306.3713 
  74   2.0000     -11.255371      -306.2742 
  75   2.0000     -11.254092      -306.2394 
  76   2.0000     -11.251594      -306.1714 
  77   2.0000     -11.251017      -306.1557 
  78   2.0000     -11.250593      -306.1442 
  79   2.0000     -11.250202      -306.1336 
  80   2.0000     -11.246849      -306.0423 
  81   2.0000     -11.246115      -306.0223 
  82   2.0000     -11.245905      -306.0166 
  83   2.0000     -11.243411      -305.9488 
  84   2.0000     -11.241610      -305.8998 
  85   2.0000     -11.240903      -305.8805 
  86   2.0000     -11.240494      -305.8694 
  87   2.0000     -11.234956      -305.7187 
  88   2.0000     -11.234417      -305.7040 
  89   2.0000     -11.224234      -305.4269 
  90   2.0000      -9.052628      -246.3345 
  91   2.0000      -9.015217      -245.3165 
  92   2.0000      -9.015045      -245.3119 
  93   2.0000      -9.011839      -245.2246 
  94   2.0000      -9.010360      -245.1844 
  95   2.0000      -6.739790      -183.3990 
  96   2.0000      -6.738084      -183.3526 
  97   2.0000      -6.736284      -183.3036 
  98   2.0000      -6.702442      -182.3827 
  99   2.0000      -6.702278      -182.3782 
 100   2.0000      -6.701259      -182.3505 
 101   2.0000      -6.701113      -182.3465 
 102   2.0000      -6.699280      -182.2967 
 103   2.0000      -6.699265      -182.2963 
 104   2.0000      -6.699111      -182.2921 
 105   2.0000      -6.698429      -182.2735 
 106   2.0000      -6.697826      -182.2571 
 107   2.0000      -6.696985      -182.2342 
 108   2.0000      -6.696122      -182.2107 
 109   2.0000      -6.694645      -182.1705 
 110   2.0000      -1.650014       -44.8992 
 111   2.0000      -1.649195       -44.8769 
 112   2.0000      -1.634009       -44.4636 
 113   2.0000      -1.633478       -44.4492 
 114   2.0000      -1.400112       -38.0990 
 115   2.0000      -1.397663       -38.0323 
 116   2.0000      -1.350451       -36.7476 
 117   2.0000      -1.339633       -36.4533 
 118   2.0000      -1.326699       -36.1013 
 119   2.0000      -1.244879       -33.8749 
 120   2.0000      -1.243501       -33.8374 
 121   2.0000      -1.228071       -33.4175 
 122   2.0000      -1.226389       -33.3717 
 123   2.0000      -1.224394       -33.3175 
 124   2.0000      -1.223306       -33.2878 
 125   2.0000      -1.220445       -33.2100 
 126   2.0000      -1.218859       -33.1668 
 127   2.0000      -1.197035       -32.5730 
 128   2.0000      -1.173814       -31.9411 
 129   2.0000      -1.170600       -31.8536 
 130   2.0000      -1.166069       -31.7303 
 131   2.0000      -1.165381       -31.7116 
 132   2.0000      -1.164672       -31.6923 
 133   2.0000      -1.149106       -31.2688 
 134   2.0000      -1.139382       -31.0042 
 135   2.0000      -1.116272       -30.3753 
 136   2.0000      -1.107824       -30.1454 
 137   2.0000      -1.096367       -29.8337 
 138   2.0000      -1.094962       -29.7954 
 139   2.0000      -1.087714       -29.5982 
 140   2.0000      -1.084835       -29.5199 
 141   2.0000      -1.080086       -29.3906 
 142   2.0000      -1.076476       -29.2924 
 143   2.0000      -1.067690       -29.0533 
 144   2.0000      -1.066710       -29.0267 
 145   2.0000      -1.053501       -28.6672 
 146   2.0000      -1.046724       -28.4828 
 147   2.0000      -1.041094       -28.3296 
 148   2.0000      -1.037171       -28.2228 
 149   2.0000      -1.029010       -28.0008 
 150   2.0000      -1.022550       -27.8250 
 151   2.0000      -1.022292       -27.8180 
 152   2.0000      -1.021122       -27.7862 
 153   2.0000      -1.016764       -27.6676 
 154   2.0000      -0.998733       -27.1769 
 155   2.0000      -0.992336       -27.0028 
 156   2.0000      -0.988321       -26.8936 
 157   2.0000      -0.977081       -26.5877 
 158   2.0000      -0.961460       -26.1627 
 159   2.0000      -0.958032       -26.0694 
 160   2.0000      -0.953572       -25.9480 
 161   2.0000      -0.937841       -25.5200 
 162   2.0000      -0.936341       -25.4791 
 163   2.0000      -0.934950       -25.4413 
 164   2.0000      -0.930709       -25.3259 
 165   2.0000      -0.906396       -24.6643 
 166   2.0000      -0.903994       -24.5989 
 167   2.0000      -0.886996       -24.1364 
 168   2.0000      -0.876402       -23.8481 
 169   2.0000      -0.872027       -23.7291 
 170   2.0000      -0.866360       -23.5748 
 171   2.0000      -0.862170       -23.4608 
 172   2.0000      -0.859993       -23.4016 
 173   2.0000      -0.858161       -23.3517 
 174   2.0000      -0.850745       -23.1499 
 175   2.0000      -0.850154       -23.1339 
 176   2.0000      -0.844161       -22.9708 
 177   2.0000      -0.842596       -22.9282 
 178   2.0000      -0.839809       -22.8524 
 179   2.0000      -0.830417       -22.5968 
 180   2.0000      -0.819022       -22.2867 
 181   2.0000      -0.815322       -22.1860 
 182   2.0000      -0.804713       -21.8974 
 183   2.0000      -0.802257       -21.8305 
 184   2.0000      -0.801992       -21.8233 
 185   2.0000      -0.797443       -21.6995 
 186   2.0000      -0.791584       -21.5401 
 187   2.0000      -0.787410       -21.4265 
 188   2.0000      -0.785853       -21.3841 
 189   2.0000      -0.784650       -21.3514 
 190   2.0000      -0.782089       -21.2817 
 191   2.0000      -0.777464       -21.1559 
 192   2.0000      -0.764209       -20.7952 
 193   2.0000      -0.760207       -20.6863 
 194   2.0000      -0.755071       -20.5465 
 195   2.0000      -0.753758       -20.5108 
 196   2.0000      -0.751520       -20.4499 
 197   2.0000      -0.744677       -20.2637 
 198   2.0000      -0.743872       -20.2418 
 199   2.0000      -0.735542       -20.0151 
 200   2.0000      -0.732771       -19.9397 
 201   2.0000      -0.726410       -19.7666 
 202   2.0000      -0.725118       -19.7315 
 203   2.0000      -0.718614       -19.5545 
 204   2.0000      -0.716421       -19.4948 
 205   2.0000      -0.716349       -19.4928 
 206   2.0000      -0.715816       -19.4783 
 207   2.0000      -0.708041       -19.2668 
 208   2.0000      -0.699720       -19.0404 
 209   2.0000      -0.692970       -18.8567 
 210   2.0000      -0.689966       -18.7749 
 211   2.0000      -0.686647       -18.6846 
 212   2.0000      -0.678389       -18.4599 
 213   2.0000      -0.673593       -18.3294 
 214   2.0000      -0.672119       -18.2893 
 215   2.0000      -0.668347       -18.1866 
 216   2.0000      -0.666842       -18.1457 
 217   2.0000      -0.664232       -18.0747 
 218   2.0000      -0.663009       -18.0414 
 219   2.0000      -0.660602       -17.9759 
 220   2.0000      -0.659543       -17.9471 
 221   2.0000      -0.655274       -17.8309 
 222   2.0000      -0.649154       -17.6644 
 223   2.0000      -0.645614       -17.5680 
 224   2.0000      -0.644646       -17.5417 
 225   2.0000      -0.643054       -17.4984 
 226   2.0000      -0.640675       -17.4336 
 227   2.0000      -0.637822       -17.3560 
 228   2.0000      -0.636201       -17.3119 
 229   2.0000      -0.635939       -17.3048 
 230   2.0000      -0.631303       -17.1786 
 231   2.0000      -0.624415       -16.9912 
 232   2.0000      -0.623178       -16.9575 
 233   2.0000      -0.621148       -16.9023 
 234   2.0000      -0.620194       -16.8763 
 235   2.0000      -0.619636       -16.8612 
 236   2.0000      -0.616398       -16.7730 
 237   2.0000      -0.614168       -16.7124 
 238   2.0000      -0.612388       -16.6639 
 239   2.0000      -0.611003       -16.6262 
 240   2.0000      -0.606940       -16.5157 
 241   2.0000      -0.606683       -16.5087 
 242   2.0000      -0.605615       -16.4796 
 243   2.0000      -0.604974       -16.4622 
 244   2.0000      -0.602927       -16.4065 
 245   2.0000      -0.601464       -16.3667 
 246   2.0000      -0.594079       -16.1657 
 247   2.0000      -0.592215       -16.1150 
 248   2.0000      -0.590068       -16.0566 
 249   2.0000      -0.587719       -15.9927 
 250   2.0000      -0.584724       -15.9111 
 251   2.0000      -0.580551       -15.7976 
 252   2.0000      -0.578830       -15.7508 
 253   2.0000      -0.578000       -15.7282 
 254   2.0000      -0.575451       -15.6588 
 255   2.0000      -0.573393       -15.6028 
 256   2.0000      -0.572335       -15.5740 
 257   2.0000      -0.572094       -15.5675 
 258   2.0000      -0.571436       -15.5496 
 259   2.0000      -0.570144       -15.5144 
 260   2.0000      -0.569771       -15.5043 
 261   2.0000      -0.567727       -15.4486 
 262   2.0000      -0.561928       -15.2908 
 263   2.0000      -0.561619       -15.2824 
 264   2.0000      -0.559783       -15.2325 
 265   2.0000      -0.558607       -15.2005 
 266   2.0000      -0.555827       -15.1248 
 267   2.0000      -0.552011       -15.0210 
 268   2.0000      -0.543347       -14.7852 
 269   2.0000      -0.540026       -14.6949 
 270   2.0000      -0.538860       -14.6631 
 271   2.0000      -0.537817       -14.6347 
 272   2.0000      -0.534977       -14.5575 
 273   2.0000      -0.533810       -14.5257 
 274   2.0000      -0.531783       -14.4705 
 275   2.0000      -0.530544       -14.4368 
 276   2.0000      -0.525108       -14.2889 
 277   2.0000      -0.522292       -14.2123 
 278   2.0000      -0.519037       -14.1237 
 279   2.0000      -0.518779       -14.1167 
 280   2.0000      -0.516096       -14.0437 
 281   2.0000      -0.514158       -13.9910 
 282   2.0000      -0.512459       -13.9447 
 283   2.0000      -0.509046       -13.8519 
 284   2.0000      -0.506072       -13.7709 
 285   2.0000      -0.505055       -13.7432 
 286   2.0000      -0.503710       -13.7067 
 287   2.0000      -0.501091       -13.6354 
 288   2.0000      -0.500504       -13.6194 
 289   2.0000      -0.498246       -13.5580 
 290   2.0000      -0.495861       -13.4931 
 291   2.0000      -0.495335       -13.4787 
 292   2.0000      -0.493310       -13.4237 
 293   2.0000      -0.492660       -13.4060 
 294   2.0000      -0.490318       -13.3422 
 295   2.0000      -0.489524       -13.3206 
 296   2.0000      -0.488987       -13.3060 
 297   2.0000      -0.485596       -13.2137 
 298   2.0000      -0.485070       -13.1994 
 299   2.0000      -0.483904       -13.1677 
 300   2.0000      -0.482575       -13.1315 
 301   2.0000      -0.478587       -13.0230 
 302   2.0000      -0.476188       -12.9577 
 303   2.0000      -0.474899       -12.9227 
 304   2.0000      -0.473857       -12.8943 
 305   2.0000      -0.473332       -12.8800 
 306   2.0000      -0.468267       -12.7422 
 307   2.0000      -0.465015       -12.6537 
 308   2.0000      -0.463220       -12.6049 
 309   2.0000      -0.457189       -12.4407 
 310   2.0000      -0.447280       -12.1711 
 311   2.0000      -0.444309       -12.0903 
 312   2.0000      -0.442879       -12.0513 
 313   2.0000      -0.419170       -11.4062 
 314   2.0000      -0.415726       -11.3125 
 315   2.0000      -0.395497       -10.7620 
 316   2.0000      -0.391940       -10.6652 
 317   2.0000      -0.389904       -10.6098 
 318   2.0000      -0.386264       -10.5108 
 319   2.0000      -0.363903        -9.9023 
 320   2.0000      -0.360984        -9.8229 
 321   2.0000      -0.358263        -9.7488 
 322   2.0000      -0.355344        -9.6694 
 323   2.0000      -0.351077        -9.5533 
 324   2.0000      -0.349536        -9.5114 
 325   2.0000      -0.339133        -9.2283 
 326   2.0000      -0.336986        -9.1699 
 327   2.0000      -0.323195        -8.7946 
 328   2.0000      -0.315660        -8.5895 
 329   2.0000      -0.303025        -8.2457 
 330   2.0000      -0.261592        -7.1183 
 331   0.0000      -0.034553        -0.9402 
 332   0.0000      -0.017147        -0.4666 
 333   0.0000       0.010133         0.2757 
 334   0.0000       0.017208         0.4683 
[...]
   Maximum residual norm  :     0.000007966625

                       ****Iteration    7****
   Time for densities:     2.553
   Using LibInt in JK Direct
   Time for J+K (Direct):  2497.980
   Time for Sigma-Completion:    20.214
   Size of expansion space: 30
   Lowest Energy          :     0.097453457440
   Maximum Energy change  :     0.000020564536 (vector 2)
   Maximum residual norm  :     0.000002276919
   Rebuilding the expansion space

                       ****Iteration    8****
   Time for densities:     5.116
   Using LibInt in JK Direct
   Time for J+K (Direct):  5002.897
   Time for Sigma-Completion:    37.013
   Size of expansion space: 6
   Lowest Energy          :     0.097453431933
   Maximum Energy change  :     0.000003328329 (vector 2)
   Maximum residual norm  :     0.000000426613

                       ****Iteration    9****
   Time for densities:     2.439
   Using LibInt in JK Direct
   Time for J+K (Direct):  2389.239
   Time for Sigma-Completion:    20.109
   Size of expansion space: 9
   Lowest Energy          :     0.097453423335
   Maximum Energy change  :     0.000001142524 (vector 2)
   Maximum residual norm  :     0.000000141689

      *** CONVERGENCE OF RESIDUAL NORM REACHED ***

Storing the converged CI vectors               ... BTP-PhC6.cis1

                 *** DAVIDSON DONE ***

Total time for solving the CIS problem: 33242.849sec

-----------------------------
CIS-EXCITED STATES (SINGLETS)
-----------------------------

the weight of the individual excitations are printed if larger than 1.0e-02

STATE  1:  E=   0.097453 au      2.652 eV    21388.6 cm**-1
   329a -> 332a  :     0.141409 (c= -0.37604395)
   330a -> 331a  :     0.697359 (c=  0.83508041)
   330a -> 333a  :     0.030566 (c= -0.17483148)

STATE  2:  E=   0.120660 au      3.283 eV    26481.7 cm**-1
   325a -> 332a  :     0.010915 (c=  0.10447555)
   326a -> 332a  :     0.029581 (c=  0.17199132)
   327a -> 332a  :     0.026841 (c=  0.16383341)
   329a -> 331a  :     0.350894 (c=  0.59236272)
   329a -> 335a  :     0.014942 (c= -0.12223617)
   330a -> 332a  :     0.396846 (c= -0.62995701)
   330a -> 334a  :     0.021960 (c=  0.14819047)

STATE  3:  E=   0.145369 au      3.956 eV    31904.7 cm**-1
   325a -> 331a  :     0.019826 (c= -0.14080562)
   326a -> 331a  :     0.071295 (c= -0.26701145)
   327a -> 331a  :     0.094954 (c= -0.30814526)
   329a -> 332a  :     0.184425 (c= -0.42944725)
   330a -> 333a  :     0.207151 (c=  0.45513874)
   330a -> 335a  :     0.207321 (c= -0.45532551)


----------------------
CIS-EXCITATION SPECTRA
----------------------

Center of mass = ( 19.6326, -5.9377, -0.9993)
Calculating the Dipole integrals                  ... done
Transforming integrals                            ... done
Calculating the Linear Momentum integrals         ... done
Transforming integrals                            ... done
Calculating angular momentum integrals            ... done
Transforming integrals                            ... done

-----------------------------------------------------------------------------
         ABSORPTION SPECTRUM VIA TRANSITION ELECTRIC DIPOLE MOMENTS
-----------------------------------------------------------------------------
State   Energy    Wavelength  fosc         T2        TX        TY        TZ  
        (cm-1)      (nm)                 (au**2)    (au)      (au)      (au) 
-----------------------------------------------------------------------------
   1   21388.6    467.5   1.881855843  28.96547   4.87205  -1.96559  -1.16833
   2   26481.7    377.6   1.469512143  18.26847  -0.93316   0.27194  -4.16218
   3   31904.7    313.4   0.018736300   0.19333  -0.30094   0.07286   0.31219

-----------------------------------------------------------------------------
         ABSORPTION SPECTRUM VIA TRANSITION VELOCITY DIPOLE MOMENTS
-----------------------------------------------------------------------------
State   Energy    Wavelength   fosc        P2         PX        PY        PZ  
        (cm-1)      (nm)                 (au**2)     (au)      (au)      (au) 
-----------------------------------------------------------------------------
   1   21388.6    467.5   0.833190821   0.12180  -0.32235   0.11428   0.06948
   2   26481.7    377.6   0.240951884   0.04361   0.04237   0.01502   0.20393
   3   31904.7    313.4   0.040789289   0.00889  -0.08430   0.03404  -0.02507

-------------------------------------------------------------------
                             CD SPECTRUM
-------------------------------------------------------------------
State  Energy     Wavelength     R         MX        MY        MZ   
       (cm-1)       (nm)     (1e40*cgs)   (au)      (au)      (au)  
-------------------------------------------------------------------
   1   21388.6    467.5    127.13218   0.80430   2.02340  -0.28096
   2   26481.7    377.6    -184.57096  -0.11649  -0.21097   0.10639
   3   31904.7    313.4     21.73852   0.22655   0.71040   0.20030

Total run time:    33350.055 sec

           *** ORCA-CIS/TD-DFT FINISHED WITHOUT ERROR ***

-----------------------
CIS/TD-DFT TOTAL ENERGY
-----------------------

    E(SCF)  =  -5683.662222885 Eh
    DE(CIS) =      0.097453423 Eh (Root  1)
    ----------------------------- ---------
    E(tot)  =  -5683.564769462 Eh


-------------------------   --------------------
FINAL SINGLE POINT ENERGY     -5683.564769461837
-------------------------   --------------------

------------------------------------------------------------------------------
                         ORCA SCF GRADIENT CALCULATION
------------------------------------------------------------------------------


------------
CIS GRADIENT
------------

Reference wavefunction             ... RHF
State of interest                  ... 1
Basis dimension                    ... 1520
DFT-XC contribution needed         ... NO
RI-approximation                   ... OFF
CIS-vectors being read from        ... BTP-PhC6.cis

 => Number of Vectors found: 3
 => Orbital Window: 110...330 -> 331...1519

Reading the CIS file                     ... done
Norm of the CI vector                    ... 1.000000000
Making the CIS (pseudo)densities         ... done
Making operators G(D) and Q(T)           ... done
Transforming the Fock operators          ... done
Making the frozen-core relaxed density   ... done
Constructing the G(H) operator           ... done
Transforming the G(H) operator           ... done
Calculating the CIS Lagrangian           ... done
Solving the Z-vector equations           ... done
Finalizing the relaxed density           ... done
Storing the relaxed density              ... done
Constructing the G(Z) operator           ... done
Transforming the G(Z) operator           ... done
Making the W-matrix                      ... done
Finalizing the W-matrix                  ... done
Transforming the W-matrix                ... done
Nuclear repulsion gradient               ... done
One-Electron gradient                    ... done
Prescreening matrices                    ... done
Two-Electron gradient (4-center)         ... done
                 ---------------------------
                 EXCITED STATE GRADIENT DONE
                 ---------------------------


------------------
CARTESIAN GRADIENT
------------------

   1   C   :   -0.040857235   -0.010411739   -0.008804615
   2   O   :    0.050378005    0.010675987    0.011052307
   3   C   :    0.010539083    0.002117133    0.006670887
   4   C   :    0.001277093   -0.001138363    0.002105693
   5   C   :    0.005518473    0.000943443    0.005368783
   6   F   :    0.006647386    0.003372712   -0.019587849
   7   C   :   -0.004153994   -0.001662031    0.006724502
   8   F   :   -0.010776940   -0.001856259   -0.017552519
   9   C   :   -0.000971595    0.001037737    0.004003129
  10   C   :   -0.012278417   -0.004628305    0.014649717
  11   C   :    0.011946848    0.003611898   -0.013556750
  12   C   :   -0.017729846   -0.003734329    0.007917151
  13   C   :    0.016256775    0.009007536   -0.072828738
  14   N   :   -0.011780135   -0.011098012    0.069965842
  15   C   :    0.063114882    0.006623523    0.040823776
  16   N   :   -0.058618598   -0.006163453   -0.040090141
  17   C   :   -0.002663472   -0.000135507    0.002094943
  18   C   :    0.005622079    0.003555899   -0.004199096
  19   C   :   -0.005800656    0.000954106   -0.000606165
  20   S   :    0.003747608    0.004604112   -0.008486472
  21   C   :   -0.002584793    0.011036723   -0.006243829
  22   C   :    0.001865300   -0.003885249    0.009170170
  23   C   :   -0.014988726   -0.002752480    0.003387710
  24   C   :    0.011623135    0.007066624   -0.007541601
  25   S   :   -0.002397035   -0.003614664    0.001765209
  26   C   :   -0.014102078    0.003534223    0.002553625
  27   C   :    0.000625928    0.003110652    0.001989214
  28   N   :    0.004365217   -0.000568769   -0.002676106
  29   C   :    0.007495812   -0.003123881   -0.006650106
  30   C   :   -0.006211035   -0.001884690    0.002933242
  31   C   :   -0.004113842    0.005344187    0.005350300
  32   C   :    0.018282013   -0.015992636    0.007408391
  33   C   :    0.009738543    0.028406111   -0.027854595
  34   N   :   -0.038376480   -0.008426859    0.023982761
  35   S   :   -0.002090178   -0.011215529    0.009543990
  36   N   :    0.030069457   -0.032523933    0.011140940
  37   C   :    0.000433100    0.031463833   -0.026506738
  38   C   :   -0.017001711    0.000208897    0.019154759
  39   C   :    0.008209816    0.001545982    0.004563047
  40   N   :   -0.006223967    0.006275742   -0.005526255
  41   C   :    0.004866999    0.000643396    0.007405054
  42   C   :    0.003215602   -0.004771677   -0.004873239
  43   C   :    0.006622562    0.002545464   -0.001319527
  44   C   :    0.014190933   -0.006013167   -0.001675118
  45   S   :    0.000468936   -0.004611755    0.002188632
  46   C   :   -0.000170857   -0.005699016    0.008318587
  47   C   :    0.001038546    0.006385365   -0.009668462
  48   S   :   -0.001421965    0.008473948   -0.007082561
  49   C   :    0.005501730   -0.002608914   -0.003959649
  50   C   :    0.008984059   -0.012522085   -0.000375991
  51   C   :   -0.006298189    0.014802021   -0.003143839
  52   C   :   -0.003554822    0.007684210   -0.001052268
  53   C   :    0.000409946   -0.003041274   -0.000468921
  54   C   :   -0.000274301    0.017379746   -0.006257442
  55   C   :    0.003616315   -0.019503666   -0.000477772
  56   C   :   -0.036014099    0.034009832    0.057028555
  57   N   :    0.033883485   -0.030668206   -0.054034343
  58   C   :    0.020511855    0.052654781   -0.049238972
  59   N   :   -0.018495237   -0.048858798    0.050870003
  60   C   :    0.001878619   -0.017256778    0.007997565
  61   C   :   -0.000920173   -0.002696051    0.002090204
  62   C   :    0.000232184   -0.006912105    0.004389435
  63   F   :    0.010681915   -0.001578292   -0.017592168
  64   C   :   -0.003816567    0.001760912    0.006164928
  65   F   :    0.000480367    0.014854148   -0.013407832
  66   C   :   -0.001288206    0.000333954    0.003187839
  67   C   :   -0.006204524    0.006116800    0.008959194
  68   C   :    0.020060832   -0.031411388   -0.021589847
  69   O   :   -0.025582625    0.037346620    0.026986734
  70   C   :   -0.006756885    0.000181034    0.005441628
  71   C   :   -0.001663057   -0.000450269   -0.007428369
  72   C   :    0.001084931    0.003883274    0.006175488
  73   C   :   -0.002783827   -0.006678714   -0.000197898
  74   C   :    0.001546055   -0.000217161   -0.005972682
  75   C   :   -0.002231711    0.004665014    0.006148363
  76   C   :    0.002361302   -0.006281677    0.000314671
  77   C   :   -0.002835551   -0.002128724    0.003012315
  78   C   :   -0.002588720    0.000203100    0.000387168
  79   C   :    0.006202408   -0.010394543    0.000228476
  80   C   :    0.000872831   -0.000825114   -0.001898754
  81   C   :    0.001981816    0.002099041   -0.004213360
  82   C   :    0.002101137    0.001158563    0.002803442
  83   C   :    0.000160876   -0.000195181    0.002102123
  84   C   :   -0.009529703   -0.003903257    0.005350334
  85   C   :   -0.000579430   -0.000879178   -0.001640801
  86   C   :   -0.002255527   -0.000577782   -0.004257371
  87   C   :    0.007633822    0.000032348   -0.001756576
  88   C   :   -0.001941388    0.003761277   -0.003140341
  89   C   :   -0.004298592    0.006221612   -0.004409883
  90   C   :   -0.000252775    0.001464469    0.004551478
  91   H   :    0.007795077    0.002146027   -0.000272988
  92   H   :   -0.008651860   -0.002561785    0.001370295
  93   H   :   -0.008580209   -0.003923405    0.005596157
  94   H   :   -0.006751859    0.003844305    0.003120591
  95   H   :    0.002721594    0.006112087   -0.003432521
  96   H   :    0.006626060   -0.006474002   -0.002929942
  97   H   :   -0.009368493    0.004514633   -0.000908888
  98   H   :    0.003170487   -0.004652512   -0.007333290
  99   H   :   -0.005203419    0.005369856    0.005417849
 100   H   :    0.004485267   -0.010651793    0.002399691
 101   H   :    0.003625538   -0.008045964   -0.001903701
 102   H   :   -0.003713758    0.006593300    0.002287905
 103   H   :    0.004142275    0.005279689   -0.003303191
 104   H   :    0.002244665   -0.007339321   -0.004017121
 105   H   :   -0.002186370    0.005505351    0.002907473
 106   H   :    0.006039675   -0.002445945    0.002294992
 107   H   :   -0.005765012   -0.005556061    0.002383876
 108   H   :   -0.006312169   -0.000890876   -0.002830328
 109   H   :    0.004078801   -0.004223898   -0.003065628
 110   H   :   -0.004822147    0.003420889    0.003879765
 111   H   :    0.000737922    0.002897170   -0.005969918
 112   H   :    0.006396593    0.000820757    0.004241775
 113   H   :   -0.005406360    0.004229196    0.001083143
 114   H   :    0.004755420    0.002278164    0.004065489
 115   H   :   -0.003145107   -0.006927291    0.002068198
 116   H   :   -0.004638849   -0.004907686   -0.002909330
 117   H   :    0.009005424   -0.002926940   -0.003641535
 118   H   :   -0.006807490    0.001116602    0.002996715
 119   H   :    0.000520184    0.002413000   -0.006425945
 120   H   :    0.004293805    0.003450908    0.003513447
 121   H   :   -0.007332178    0.002245451    0.002706751
 122   H   :   -0.003565651   -0.006256775    0.002851176
 123   H   :    0.007167368   -0.001592937   -0.002670010
 124   H   :    0.003069991    0.006414684   -0.002927085
 125   H   :    0.005123673    0.004814325    0.003150772
 126   H   :   -0.002095223    0.001942595    0.007155149
 127   H   :   -0.005039654   -0.005199492   -0.003470470
 128   H   :    0.002182181   -0.001030809   -0.006935173
 129   H   :   -0.004745015   -0.003229000   -0.005060536
 130   H   :   -0.003759339    0.005218252    0.004460936
 131   H   :    0.003863026   -0.004527748   -0.003687006
 132   H   :   -0.004708042   -0.003404635    0.003588612
 133   H   :    0.004944866    0.003127184    0.004814396
 134   H   :   -0.003551075   -0.004203017    0.004096694
 135   H   :    0.006917636    0.000203579    0.002438243
 136   H   :   -0.006686956    0.000592713   -0.003149642
 137   H   :    0.003129932   -0.005862986   -0.000401407
 138   H   :    0.002931628    0.004627636   -0.004221182

Difference to translation invariance:
           :    0.0000000002    0.0000000001   -0.0000000001

Norm of the cartesian gradient     ...    0.2706968952
RMS gradient                       ...    0.0133040266
MAX gradient                       ...    0.0728287377

-------
TIMINGS
-------

Total CIS gradient time            ...    35835.390 sec

Fock matrix formation       ....    2706.853 sec  (  7.6%)
  Coulomb formation         ....    2706.853 sec  (100.0% of F)
Z-vector equation           ....   29834.979 sec  ( 83.3%)
One electron gradient       ....      26.713 sec  (  0.1%)
Prescreening matrices       ....       1.577 sec  (  0.0%)
Two electron gradient       ....    3260.022 sec  (  9.1%)

                            ***************************************
                            *     ORCA property calculations      *
                            ***************************************

                                    ---------------------
                                    Active property flags
                                    ---------------------
   (+) Dipole Moment


------------------------------------------------------------------------------
                       ORCA ELECTRIC PROPERTIES CALCULATION
------------------------------------------------------------------------------

Dipole Moment Calculation                       ... on
Quadrupole Moment Calculation                   ... off
Polarizability Calculation                      ... off
GBWName                                         ... BTP-PhC6.gbw
Electron density file                           ... BTP-PhC6.scfp
The origin for moment calculation is the CENTER OF MASS  = (19.632603, -5.937700 -0.999341)

-------------
DIPOLE MOMENT
-------------
                                X             Y             Z
Electronic contribution:    -25.71790      -9.69541     -78.30978
Nuclear contribution   :     27.11757      11.20885      80.92318
                        -----------------------------------------
Total Dipole Moment    :      1.39966       1.51344       2.61340
                        -----------------------------------------
Magnitude (a.u.)       :      3.32858
Magnitude (Debye)      :      8.46057



--------------------
Rotational spectrum 
--------------------
 
Rotational constants in cm-1:     0.000711     0.000271     0.000227 
Rotational constants in MHz :    21.328109     8.130214     6.795233 

 Dipole components along the rotational axes: 
x,y,z [a.u.] :     0.074617     2.041334     2.628081 
x,y,z [Debye]:     0.189660     5.188658     6.680052 

 

                        *** CIS RELAXED DENSITY ***

------------------------------------------------------------------------------
                       ORCA ELECTRIC PROPERTIES CALCULATION
------------------------------------------------------------------------------

Dipole Moment Calculation                       ... on
Quadrupole Moment Calculation                   ... off
Polarizability Calculation                      ... off
GBWName                                         ... BTP-PhC6.gbw
Electron density file                           ... BTP-PhC6.cisp
The origin for moment calculation is the CENTER OF MASS  = (19.632603, -5.937700 -0.999341)

-------------
DIPOLE MOMENT
-------------
                                X             Y             Z
Electronic contribution:    -25.34668      -9.70902     -77.49532
Nuclear contribution   :     27.11757      11.20885      80.92318
                        -----------------------------------------
Total Dipole Moment    :      1.77088       1.49983       3.42787
                        -----------------------------------------
Magnitude (a.u.)       :      4.13954
Magnitude (Debye)      :     10.52188



--------------------
Rotational spectrum 
--------------------
 
Rotational constants in cm-1:     0.000711     0.000271     0.000227 
Rotational constants in MHz :    21.328109     8.130214     6.795233 

 Dipole components along the rotational axes: 
x,y,z [a.u.] :     0.202772     2.845705     2.999440 
x,y,z [Debye]:     0.515406     7.233207     7.623970 

 

Timings for individual modules:

Sum of individual times         ...    79838.480 sec (=1330.641 min)
GTO integral calculation        ...        3.407 sec (=   0.057 min)   0.0 %
SCF iterations                  ...    10649.440 sec (= 177.491 min)  13.3 %
CIS module                      ...    33350.196 sec (= 555.837 min)  41.8 %
SCF Gradient evaluation         ...    35835.438 sec (= 597.257 min)  44.9 %
                             ****ORCA TERMINATED NORMALLY****
TOTAL RUN TIME: 0 days 22 hours 10 minutes 39 seconds 682 msec
