
                                 *****************
                                 * O   R   C   A *
                                 *****************

           --- An Ab Initio, DFT and Semiempirical electronic structure package ---

                  #######################################################
                  #                        -***-                        #
                  #          Department of theory and spectroscopy      #
                  #               Directorship: Frank Neese             #
                  #        Max Planck Institute fuer Kohlenforschung    #
                  #                Kaiser Wilhelm Platz 1               #
                  #                 D-45470 Muelheim/Ruhr               #
                  #                      Germany                        #
                  #                                                     #
                  #                  All rights reserved                #
                  #                        -***-                        #
                  #######################################################


                         Program Version 4.2.0 -  RELEASE  -


 With contributions from (in alphabetic order):
   Daniel Aravena         : Magnetic Suceptibility
   Michael Atanasov       : Ab Initio Ligand Field Theory (pilot matlab implementation)
   Alexander A. Auer      : GIAO ZORA, VPT2
   Ute Becker             : Parallelization
   Giovanni Bistoni       : ED, misc. LED, open-shell LED, HFLED
   Martin Brehm           : Molecular dynamics
   Dmytro Bykov           : SCF Hessian
   Vijay G. Chilkuri      : MRCI spin determinant printing, contributions to CSF-ICE
   Dipayan Datta          : RHF DLPNO-CCSD density
   Achintya Kumar Dutta   : EOM-CC, STEOM-CC
   Dmitry Ganyushin       : Spin-Orbit,Spin-Spin,Magnetic field MRCI
   Miquel Garcia          : C-PCM Hessian, Gaussian charge scheme
   Yang Guo               : DLPNO-NEVPT2, CIM, IAO-localization
   Andreas Hansen         : Spin unrestricted coupled pair/coupled cluster methods
   Benjamin Helmich-Paris : CASSCF linear response (MC-RPA)
   Lee Huntington         : MR-EOM, pCC
   Robert Izsak           : Overlap fitted RIJCOSX, COSX-SCS-MP3, EOM
   Christian Kollmar      : KDIIS, OOCD, Brueckner-CCSD(T), CCSD density
   Simone Kossmann        : Meta GGA functionals, TD-DFT gradient, OOMP2, MP2 Hessian
   Martin Krupicka        : AUTO-CI
   Lucas Lang             : DCDCAS
   Dagmar Lenk            : GEPOL surface, SMD
   Dimitrios Liakos       : Extrapolation schemes; Compound Job, initial MDCI parallelization
   Dimitrios Manganas     : Further ROCIS development; embedding schemes
   Dimitrios Pantazis     : SARC Basis sets
   Taras Petrenko         : DFT Hessian,TD-DFT gradient, ASA, ECA, R-Raman, ABS, FL, XAS/XES, NRVS
   Peter Pinski           : DLPNO-MP2, DLPNO-MP2 Gradient
   Christoph Reimann      : Effective Core Potentials
   Marius Retegan         : Local ZFS, SOC
   Christoph Riplinger    : Optimizer, TS searches, QM/MM, DLPNO-CCSD(T), (RO)-DLPNO pert. Triples
   Tobias Risthaus        : Range-separated hybrids, TD-DFT gradient, RPA, STAB
   Michael Roemelt        : Original ROCIS implementation
   Masaaki Saitow         : Open-shell DLPNO-CCSD energy and density
   Barbara Sandhoefer     : DKH picture change effects
   Avijit Sen             : IP-ROCIS
   Kantharuban Sivalingam : CASSCF convergence, NEVPT2, FIC-MRCI
   Bernardo de Souza      : ESD, SOC TD-DFT
   Georgi Stoychev        : AutoAux, RI-MP2 NMR
   Willem Van den Heuvel  : Paramagnetic NMR
   Boris Wezisla          : Elementary symmetry handling
   Frank Wennmohs         : Technical directorship


 We gratefully acknowledge several colleagues who have allowed us to
 interface, adapt or use parts of their codes:
   Stefan Grimme, W. Hujo, H. Kruse,             : VdW corrections, initial TS optimization,
                  C. Bannwarth                     DFT functionals, gCP, sTDA/sTD-DF
   Ed Valeev, F. Pavosevic, A. Kumar             : LibInt (2-el integral package), F12 methods
   Garnet Chan, S. Sharma, J. Yang, R. Olivares  : DMRG
   Ulf Ekstrom                                   : XCFun DFT Library
   Mihaly Kallay                                 : mrcc  (arbitrary order and MRCC methods)
   Andreas Klamt, Michael Diedenhofen            : otool_cosmo (COSMO solvation model)
   Jiri Pittner, Ondrej Demel                    : Mk-CCSD
   Frank Weinhold                                : gennbo (NPA and NBO analysis)
   Christopher J. Cramer and Donald G. Truhlar   : smd solvation model
   Lars Goerigk                                  : TD-DFT with DH, B97 family of functionals
   V. Asgeirsson, H. Jonsson                     : NEB implementation
   FAccTs GmbH                                   : IRC, NEB, NEB-TS, Multilevel, MM, QM/MM, CI optimization
   S Lehtola, MJT Oliveira, MAL Marques          : LibXC Library


 Your calculation uses the libint2 library for the computation of 2-el integrals
 For citations please refer to: http://libint.valeyev.net

 Your ORCA version has been built with support for libXC version: 4.2.3
 For citations please refer to: https://tddft.org/programs/libxc/

 This ORCA versions uses:
   CBLAS   interface :  Fast vector & matrix operations
   LAPACKE interface :  Fast linear algebra routines
   SCALAPACK package :  Parallel linear algebra routines


----- Orbital basis set information -----
Your calculation utilizes the basis: def2-SVP
   F. Weigend and R. Ahlrichs, Phys. Chem. Chem. Phys. 7, 3297 (2005).

================================================================================
                                        WARNINGS
                       Please study these warnings very carefully!
================================================================================

INFO   : Checking CIS options ...

WARNING: CIS/ROCIS methods need fully converged wavefunctions
  ===> : Setting SCFConvForced true
         You can overwrite this default with %scf ConvForced false 


INFO   : the flag for use of LIBINT has been found!

================================================================================
                                       INPUT FILE
================================================================================
NAME = CPDT-4Cl.inp
|  1> # ORCA input file
|  2> # CPDT-4Cl.out: Geometry 103
|  3> ! Engrad Keepdens
|  4> %maxcore 1000
|  5> %tddft
|  6>   nroots 3 
|  7>   # nroots is the number of states to be computed
|  8>   Iroot 1
|  9>   end
| 10> * xyz 0 1
| 11>    C       -0.57575         2.01495         1.56806
| 12>    C       -1.63919         2.35525         2.41426
| 13>    C       -1.58080         3.50067         3.23958
| 14>    C       -0.43707         4.30746         3.23674
| 15>    C        0.61909         3.95079         2.41249
| 16>    C        0.56491         2.81932         1.57077
| 17>    C        1.94214         4.62201         2.26629
| 18>    C        2.73638         3.73034         1.35969
| 19>    C        1.81397         2.76246         0.77645
| 20>    C        4.10419         3.85762         1.30100
| 21>    C        5.08317         2.90612         0.90263
| 22>    C        6.38165         3.17481         0.43648
| 23>    C        7.07001         2.02268         0.03556
| 24>    C        6.32059         0.85707         0.27332
| 25>    S        4.77190         1.16547         0.94235
| 26>    C        8.39493         1.67089        -0.64947
| 27>    C        8.27667         0.14835        -0.70435
| 28>    C        7.06119        -0.27946        -0.16322
| 29>    C        9.03152        -0.91045        -1.23774
| 30>    C        8.38983        -2.14586        -1.10492
| 31>    S        6.82955        -1.98278        -0.29876
| 32>    C        8.80459        -3.43495        -1.57563
| 33>    S       10.26741        -3.60426        -2.54570
| 34>    C        9.96871        -5.29677        -2.73325
| 35>    C        8.80557        -5.70978        -2.07522
| 36>    C        8.14736        -4.65895        -1.41914
| 37>    C       10.54718        -6.41772        -3.40268
| 38>    C        9.74597        -7.55668        -3.16031
| 39>    C        8.55523        -7.19935        -2.27415
| 40>    S       11.88036        -6.74985        -4.42109
| 41>    C       11.38381        -8.45918        -4.55660
| 42>    C       10.22655        -8.70183        -3.78667
| 43>    C       12.15476        -9.25753        -5.43116
| 44>    C       12.04198       -10.57541        -5.84800
| 45>    C       12.90823       -11.21885        -6.84312
| 46>    C       12.41502       -12.60683        -7.03326
| 47>    C       11.33174       -12.82034        -6.16269
| 48>    C       11.04241       -11.58327        -5.39883
| 49>    C       12.81388       -13.64066        -7.88555
| 50>    C       12.12825       -14.86148        -7.83068
| 51>    C       11.06334       -15.06653        -6.92704
| 52>    C       10.65406       -14.02620        -6.08710
| 53>   Cl       10.25007       -16.59199        -6.85112
| 54>   Cl       12.61171       -16.12926        -8.90510
| 55>    O       10.14403       -11.48036        -4.57847
| 56>    C       14.00059       -10.68767        -7.51174
| 57>    C       14.78857       -11.45121        -8.42930
| 58>    C       14.46715        -9.34550        -7.35171
| 59>    C        8.58529        -7.94970        -0.91822
| 60>    C        7.19965        -7.40528        -3.01001
| 61>    C        6.88549        -8.83620        -3.44390
| 62>    C        9.88607        -7.79491        -0.13216
| 63>    C        9.64223         2.12920         0.14243
| 64>    C        8.43392         2.20452        -2.11194
| 65>    C        8.39597         3.72131        -2.27976
| 66>    C        9.73385         1.60118         1.57198
| 67>    O        2.31173         5.63995         2.81252
| 68>   Cl       -3.04096         1.33928         2.42651
| 69>   Cl       -2.91082         3.92047         4.26505
| 70>    C        1.95871         2.10698        -0.43386
| 71>    C        1.00243         1.16039        -0.91226
| 72>    C        3.03246         2.39606        -1.33224
| 73>    N        3.87306         2.65770        -2.09058
| 74>    N        0.24256         0.36515        -1.28840
| 75>    N       15.44654       -12.06183        -9.16782
| 76>    N       14.86557        -8.25848        -7.24175
| 77>    H       -0.66849         1.12669         0.94723
| 78>    H       -0.37909         5.19605         3.86647
| 79>    H        4.48843         4.80925         1.68986
| 80>    H        6.75841         4.19507         0.36484
| 81>    H       10.00227        -0.80376        -1.72321
| 82>    H        7.21784        -4.75878        -0.85787
| 83>    H        9.80052        -9.70120        -3.74205
| 84>    H       12.97634        -8.70100        -5.88084
| 85>    H       13.63130       -13.54299        -8.59454
| 86>    H        9.82220       -14.15379        -5.39362
| 87>    H        8.39269        -9.01749        -1.10702
| 88>    H        7.73472        -7.58442        -0.31694
| 89>    H        7.19121        -6.74672        -3.89356
| 90>    H        6.40320        -7.03241        -2.34289
| 91>    H        7.61742        -9.21162        -4.17266
| 92>    H        5.89638        -8.87752        -3.92645
| 93>    H        6.86599        -9.53706        -2.59590
| 94>    H       10.74557        -8.17188        -0.70760
| 95>    H        9.83954        -8.36345         0.80819
| 96>    H       10.08698        -6.74247         0.12069
| 97>    H        9.65749         3.23062         0.15340
| 98>    H       10.53152         1.81676        -0.43271
| 99>    H        7.58591         1.76005        -2.65627
|100>    H        9.34865         1.80068        -2.57836
|101>    H        7.42396         4.13443        -1.97189
|102>    H        8.54080         3.98668        -3.33811
|103>    H        9.18346         4.23296        -1.70737
|104>    H        8.84386         1.88043         2.15825
|105>    H       10.61268         2.01972         2.08564
|106>    H        9.82011         0.50353         1.59552
|107> *
|108> 
|109>                          ****END OF INPUT****
================================================================================

                     *******************************
                     * Energy+Gradient Calculation *
                     *******************************

---------------------------------
CARTESIAN COORDINATES (ANGSTROEM)
---------------------------------
  C     -0.575750    2.014950    1.568060
  C     -1.639190    2.355250    2.414260
  C     -1.580800    3.500670    3.239580
  C     -0.437070    4.307460    3.236740
  C      0.619090    3.950790    2.412490
  C      0.564910    2.819320    1.570770
  C      1.942140    4.622010    2.266290
  C      2.736380    3.730340    1.359690
  C      1.813970    2.762460    0.776450
  C      4.104190    3.857620    1.301000
  C      5.083170    2.906120    0.902630
  C      6.381650    3.174810    0.436480
  C      7.070010    2.022680    0.035560
  C      6.320590    0.857070    0.273320
  S      4.771900    1.165470    0.942350
  C      8.394930    1.670890   -0.649470
  C      8.276670    0.148350   -0.704350
  C      7.061190   -0.279460   -0.163220
  C      9.031520   -0.910450   -1.237740
  C      8.389830   -2.145860   -1.104920
  S      6.829550   -1.982780   -0.298760
  C      8.804590   -3.434950   -1.575630
  S     10.267410   -3.604260   -2.545700
  C      9.968710   -5.296770   -2.733250
  C      8.805570   -5.709780   -2.075220
  C      8.147360   -4.658950   -1.419140
  C     10.547180   -6.417720   -3.402680
  C      9.745970   -7.556680   -3.160310
  C      8.555230   -7.199350   -2.274150
  S     11.880360   -6.749850   -4.421090
  C     11.383810   -8.459180   -4.556600
  C     10.226550   -8.701830   -3.786670
  C     12.154760   -9.257530   -5.431160
  C     12.041980  -10.575410   -5.848000
  C     12.908230  -11.218850   -6.843120
  C     12.415020  -12.606830   -7.033260
  C     11.331740  -12.820340   -6.162690
  C     11.042410  -11.583270   -5.398830
  C     12.813880  -13.640660   -7.885550
  C     12.128250  -14.861480   -7.830680
  C     11.063340  -15.066530   -6.927040
  C     10.654060  -14.026200   -6.087100
  Cl    10.250070  -16.591990   -6.851120
  Cl    12.611710  -16.129260   -8.905100
  O     10.144030  -11.480360   -4.578470
  C     14.000590  -10.687670   -7.511740
  C     14.788570  -11.451210   -8.429300
  C     14.467150   -9.345500   -7.351710
  C      8.585290   -7.949700   -0.918220
  C      7.199650   -7.405280   -3.010010
  C      6.885490   -8.836200   -3.443900
  C      9.886070   -7.794910   -0.132160
  C      9.642230    2.129200    0.142430
  C      8.433920    2.204520   -2.111940
  C      8.395970    3.721310   -2.279760
  C      9.733850    1.601180    1.571980
  O      2.311730    5.639950    2.812520
  Cl    -3.040960    1.339280    2.426510
  Cl    -2.910820    3.920470    4.265050
  C      1.958710    2.106980   -0.433860
  C      1.002430    1.160390   -0.912260
  C      3.032460    2.396060   -1.332240
  N      3.873060    2.657700   -2.090580
  N      0.242560    0.365150   -1.288400
  N     15.446540  -12.061830   -9.167820
  N     14.865570   -8.258480   -7.241750
  H     -0.668490    1.126690    0.947230
  H     -0.379090    5.196050    3.866470
  H      4.488430    4.809250    1.689860
  H      6.758410    4.195070    0.364840
  H     10.002270   -0.803760   -1.723210
  H      7.217840   -4.758780   -0.857870
  H      9.800520   -9.701200   -3.742050
  H     12.976340   -8.701000   -5.880840
  H     13.631300  -13.542990   -8.594540
  H      9.822200  -14.153790   -5.393620
  H      8.392690   -9.017490   -1.107020
  H      7.734720   -7.584420   -0.316940
  H      7.191210   -6.746720   -3.893560
  H      6.403200   -7.032410   -2.342890
  H      7.617420   -9.211620   -4.172660
  H      5.896380   -8.877520   -3.926450
  H      6.865990   -9.537060   -2.595900
  H     10.745570   -8.171880   -0.707600
  H      9.839540   -8.363450    0.808190
  H     10.086980   -6.742470    0.120690
  H      9.657490    3.230620    0.153400
  H     10.531520    1.816760   -0.432710
  H      7.585910    1.760050   -2.656270
  H      9.348650    1.800680   -2.578360
  H      7.423960    4.134430   -1.971890
  H      8.540800    3.986680   -3.338110
  H      9.183460    4.232960   -1.707370
  H      8.843860    1.880430    2.158250
  H     10.612680    2.019720    2.085640
  H      9.820110    0.503530    1.595520

----------------------------
CARTESIAN COORDINATES (A.U.)
----------------------------
  NO LB      ZA    FRAG     MASS         X           Y           Z
   0 C     6.0000    0    12.011   -1.088010    3.807704    2.963204
   1 C     6.0000    0    12.011   -3.097620    4.450777    4.562290
   2 C     6.0000    0    12.011   -2.987279    6.615308    6.121919
   3 C     6.0000    0    12.011   -0.825943    8.139920    6.116552
   4 C     6.0000    0    12.011    1.169911    7.465911    4.558945
   5 C     6.0000    0    12.011    1.067525    5.327743    2.968325
   6 C     6.0000    0    12.011    3.670113    8.734333    4.282667
   7 C     6.0000    0    12.011    5.171009    7.049321    2.569442
   8 C     6.0000    0    12.011    3.427907    5.220293    1.467278
   9 C     6.0000    0    12.011    7.755795    7.289845    2.458534
  10 C     6.0000    0    12.011    9.605799    5.491771    1.705724
  11 C     6.0000    0    12.011   12.059571    5.999521    0.824828
  12 C     6.0000    0    12.011   13.360383    3.822311    0.067199
  13 C     6.0000    0    12.011   11.944184    1.619628    0.516500
  14 S    16.0000    0    32.060    9.017584    2.202419    1.780783
  15 C     6.0000    0    12.011   15.864119    3.157524   -1.227320
  16 C     6.0000    0    12.011   15.640640    0.280341   -1.331029
  17 C     6.0000    0    12.011   13.343715   -0.528103   -0.308441
  18 C     6.0000    0    12.011   17.067099   -1.720501   -2.338990
  19 C     6.0000    0    12.011   15.854481   -4.055088   -2.087996
  20 S    16.0000    0    32.060   12.905979   -3.746911   -0.564575
  21 C     6.0000    0    12.011   16.638264   -6.491115   -2.977509
  22 S    16.0000    0    32.060   19.402593   -6.811064   -4.810676
  23 C     6.0000    0    12.011   18.838132  -10.009445   -5.165094
  24 C     6.0000    0    12.011   16.640116  -10.789920   -3.921597
  25 C     6.0000    0    12.011   15.396279   -8.804140   -2.681786
  26 C     6.0000    0    12.011   19.931282  -12.127733   -6.430133
  27 C     6.0000    0    12.011   18.417214  -14.280056   -5.972120
  28 C     6.0000    0    12.011   16.167042  -13.604800   -4.297521
  29 S    16.0000    0    32.060   22.450627  -12.755368   -8.354649
  30 C     6.0000    0    12.011   21.512283  -15.985534   -8.610726
  31 C     6.0000    0    12.011   19.325379  -16.444076   -7.155769
  32 C     6.0000    0    12.011   22.969168  -17.494196  -10.263405
  33 C     6.0000    0    12.011   22.756044  -19.984629  -11.051118
  34 C     6.0000    0    12.011   24.393020  -21.200554  -12.931623
  35 C     6.0000    0    12.011   23.460988  -23.823456  -13.290935
  36 C     6.0000    0    12.011   21.413885  -24.226932  -11.645796
  37 C     6.0000    0    12.011   20.867131  -21.889208  -10.202310
  38 C     6.0000    0    12.011   24.214724  -25.777112  -14.901530
  39 C     6.0000    0    12.011   22.919071  -28.084127  -14.797841
  40 C     6.0000    0    12.011   20.906683  -28.471615  -13.090209
  41 C     6.0000    0    12.011   20.133256  -26.505677  -11.502952
  42 Cl   17.0000    0    35.453   19.369825  -31.354317  -12.946741
  43 Cl   17.0000    0    35.453   23.832678  -30.479884  -16.828200
  44 O     8.0000    0    15.999   19.169439  -21.694736   -8.652054
  45 C     6.0000    0    12.011   26.457281  -20.196769  -14.195131
  46 C     6.0000    0    12.011   27.946347  -21.639651  -15.929069
  47 C     6.0000    0    12.011   27.338951  -17.660436  -13.892719
  48 C     6.0000    0    12.011   16.223847  -15.022756   -1.735184
  49 C     6.0000    0    12.011   13.605367  -13.993951   -5.688095
  50 C     6.0000    0    12.011   13.011690  -16.697998   -6.508028
  51 C     6.0000    0    12.011   18.681965  -14.730245   -0.249746
  52 C     6.0000    0    12.011   18.221174    4.023605    0.269154
  53 C     6.0000    0    12.011   15.937799    4.165939   -3.990988
  54 C     6.0000    0    12.011   15.866084    7.032257   -4.308122
  55 C     6.0000    0    12.011   18.394311    3.025792    2.970612
  56 O     8.0000    0    15.999    4.368537   10.657961    5.314893
  57 Cl   17.0000    0    35.453   -5.746582    2.530872    4.585439
  58 Cl   17.0000    0    35.453   -5.500653    7.408615    8.059776
  59 C     6.0000    0    12.011    3.701425    3.981615   -0.819877
  60 C     6.0000    0    12.011    1.894318    2.192819   -1.723922
  61 C     6.0000    0    12.011    5.730519    4.527897   -2.517569
  62 N     7.0000    0    14.007    7.319023    5.022325   -3.950624
  63 N     7.0000    0    14.007    0.458372    0.690033   -2.434723
  64 N     7.0000    0    14.007   29.189730  -22.793555  -17.324669
  65 N     7.0000    0    14.007   28.091856  -15.606265  -13.684924
  66 H     1.0000    0     1.008   -1.263263    2.129136    1.790005
  67 H     1.0000    0     1.008   -0.716376    9.819111    7.306569
  68 H     1.0000    0     1.008    8.481903    9.088165    3.193373
  69 H     1.0000    0     1.008   12.771544    7.927533    0.689448
  70 H     1.0000    0     1.008   18.901551   -1.518886   -3.256395
  71 H     1.0000    0     1.008   13.639741   -8.992791   -1.621139
  72 H     1.0000    0     1.008   18.520299  -18.332611   -7.071450
  73 H     1.0000    0     1.008   24.521729  -16.442507  -11.113177
  74 H     1.0000    0     1.008   25.759424  -25.592542  -16.241327
  75 H     1.0000    0     1.008   18.561268  -26.746787  -10.192465
  76 H     1.0000    0     1.008   15.859886  -17.040587   -2.091965
  77 H     1.0000    0     1.008   14.616503  -14.332477   -0.598930
  78 H     1.0000    0     1.008   13.589417  -12.749453   -7.357762
  79 H     1.0000    0     1.008   12.100294  -13.289329   -4.427420
  80 H     1.0000    0     1.008   14.394838  -17.407439   -7.885185
  81 H     1.0000    0     1.008   11.142543  -16.776082   -7.419915
  82 H     1.0000    0     1.008   12.974841  -18.022432   -4.905540
  83 H     1.0000    0     1.008   20.306184  -15.442615   -1.337170
  84 H     1.0000    0     1.008   18.594036  -15.804630    1.527258
  85 H     1.0000    0     1.008   19.061630  -12.741422    0.228071
  86 H     1.0000    0     1.008   18.250011    6.104987    0.289884
  87 H     1.0000    0     1.008   19.901689    3.433179   -0.817703
  88 H     1.0000    0     1.008   14.335292    3.326012   -5.019623
  89 H     1.0000    0     1.008   17.666388    3.402792   -4.872394
  90 H     1.0000    0     1.008   14.029251    7.812940   -3.726332
  91 H     1.0000    0     1.008   16.139773    7.533733   -6.308114
  92 H     1.0000    0     1.008   17.354224    7.999135   -3.226462
  93 H     1.0000    0     1.008   16.712473    3.553498    4.078501
  94 H     1.0000    0     1.008   20.055059    3.816718    3.941288
  95 H     1.0000    0     1.008   18.557319    0.951534    3.015096

--------------------------------
INTERNAL COORDINATES (ANGSTROEM)
--------------------------------
 C      0   0   0     0.000000000000     0.00000000     0.00000000
 C      1   0   0     1.400986496580     0.00000000     0.00000000
 C      2   1   0     1.412993089474   121.22029942     0.00000000
 C      3   2   1     1.399655844342   119.98996035   358.99877392
 C      4   3   2     1.386389374238   118.38695698   359.93294379
 C      1   2   3     1.395752011140   118.63187170     1.18419626
 C      5   4   3     1.490762231511   128.21205158   181.89685417
 C      7   5   4     1.499271865440   105.16943799   174.01502157
 C      8   7   5     1.458698323883   107.54233181    12.15986262
 C      8   7   5     1.374972330849   119.85111228   197.46895006
 C     10   8   7     1.422129652071   129.40709258   156.81034492
 C     11  10   8     1.405539202228   126.93844330   157.21282373
 C     12  11  10     1.400706918988   113.05987569   184.22254635
 C     13  12  11     1.405989625175   111.81180078   356.38150489
 S     14  13  12     1.714978838645   113.46717551     1.50783690
 C     13  12  11     1.532460541547   137.87213742   172.99880401
 C     16  13  12     1.528111675762   100.24554314   181.49095661
 C     17  16  13     1.397581734068   111.00146118     1.22719094
 C     17  16  13     1.405475312697   136.27436258   175.83274876
 C     19  17  16     1.398443805306   112.52119225   185.54940563
 S     18  17  16     1.724333843431   112.87825809   176.06014960
 C     20  19  17     1.433648070413   129.08014192   176.73270030
 S     22  20  19     1.763389926647   120.46052216   356.20506479
 C     23  22  20     1.728868645271    90.59297365   183.13137256
 C     24  23  22     1.398740648083   112.43897768   359.67047542
 C     22  20  19     1.398075961098   127.91268651   179.42614651
 C     24  23  22     1.428038153657   138.53125428   177.46476467
 C     27  24  23     1.413474641654   108.81498088   181.82284984
 C     25  24  23     1.523503214765   111.34048288   179.14095985
 S     27  24  23     1.710215827725   138.36282275   359.83340961
 C     30  27  24     1.785142546549    90.82079121   182.26364604
 C     28  27  24     1.390917865476   112.97580367   179.42424324
 C     31  30  27     1.413004535945   115.86326153   175.83502841
 C     33  31  30     1.386824649478   132.73258322   183.99208965
 C     34  33  31     1.467878711100   124.91287020   176.01906619
 C     35  34  33     1.485226516091   107.48546063   182.14343113
 C     36  35  34     1.406049146865   108.57159694   357.94767809
 C     37  36  35     1.482408895481   110.04113497     1.64719220
 C     36  35  34     1.397959946708   132.40832037   176.91748303
 C     39  36  35     1.401249687315   118.73933367   180.37038213
 C     40  39  36     1.411610449168   121.38233165   359.24062073
 C     37  36  35     1.385302266691   122.87862752   180.63344800
 Cl    41  40  39     1.730375725356   120.71087836   181.27674097
 Cl    40  39  36     1.730716047305   118.50307003   179.09633956
 O     38  37  36     1.220928999615   124.06811686   179.32785977
 C     35  34  33     1.386526330944   128.60284673     2.41914864
 C     46  35  34     1.430322399181   122.60687123   177.72276086
 C     46  35  34     1.429932915699   124.24114561   358.53255755
 C     29  25  24     1.549991900301   110.84887133   118.01429115
 C     29  25  24     1.556115111712   109.52862206   241.46378540
 C     50  29  25     1.527903493058   115.93438804   172.51376242
 C     49  29  25     1.527703792003   114.68183078   302.38279916
 C     16  13  12     1.546903667363   113.59508488    61.76321157
 C     16  13  12     1.557273160977   111.27125357   295.57130425
 C     54  16  13     1.526517493840   116.30230583    64.38201686
 C     53  16  13     1.526699887764   115.16773526    56.52194760
 O      7   5   4     1.212916247974   127.16703192   356.92619146
 Cl     2   1   3     1.731272432721   118.44588296   179.82397390
 Cl     3   2   1     1.731119279917   120.71934217   179.19744943
 C      9   8   7     1.383999275325   126.71095803   153.77609816
 C     60   9   8     1.428065343918   122.47009961   179.24239612
 C     60   9   8     1.429542910619   122.16435585   355.05462436
 N     62  60   9     1.161956713996   177.51635554   257.56539953
 N     61  60   9     1.162450159835   178.34236467   265.36592072
 N     47  46  35     1.162408317116   178.94424869   217.58873986
 N     48  46  35     1.162945475248   178.61667778   184.66763642
 H      1   2   3     1.087674778645   118.58110204   180.31561291
 H      4   3   2     1.090648312427   120.79041327   179.82799817
 H     10   8   7     1.097475345555   114.42062871   341.81179968
 H     12  11  10     1.089959106939   121.33725357     1.46101024
 H     19  17  16     1.090605079532   124.98008540     4.41264812
 H     26  22  20     1.090411606780   122.58167266   357.56172611
 H     32  28  27     1.087305339911   127.07510525   178.96682755
 H     33  31  30     1.089463831295   112.22849837     1.71812308
 H     39  36  35     1.086453729065   123.09536765     0.15669713
 H     42  37  36     1.090497491102   120.64485876   179.60731047
 H     49  29  25     1.101324513529   108.42123442   179.55856006
 H     49  29  25     1.103828085211   107.54047830    65.08947746
 H     50  29  25     1.102013207589   107.86206847    49.64373779
 H     50  29  25     1.103817799186   107.34082786   295.70894299
 H     51  50  29     1.098978088453   111.79554396   297.36183655
 H     51  50  29     1.101317591342   110.13479204   178.36538132
 H     51  50  29     1.100313132522   112.41537382    58.73391582
 H     52  49  29     1.100898644063   111.16863905   300.27215943
 H     52  49  29     1.099845850563   110.58047437   180.77415907
 H     52  49  29     1.100875971306   111.74244712    60.70122546
 H     53  16  13     1.101580330661   108.20998030   293.49807833
 H     53  16  13     1.104192681238   107.39220212   179.38354017
 H     54  16  13     1.101349031824   107.85338988   301.49168066
 H     54  16  13     1.103342800267   106.99771902   187.41640235
 H     55  54  16     1.100116135415   111.36639226   292.36705369
 H     55  54  16     1.100682373939   109.99856980   173.72970642
 H     55  54  16     1.099798406391   112.78285569    54.24034891
 H     56  53  16     1.101714697869   111.23156144   302.86885326
 H     56  53  16     1.100620050744   110.69540544   183.45237471
 H     56  53  16     1.101285812902   111.68050774    63.26866301

---------------------------
INTERNAL COORDINATES (A.U.)
---------------------------
 C      0   0   0     0.000000000000     0.00000000     0.00000000
 C      1   0   0     2.647480795858     0.00000000     0.00000000
 C      2   1   0     2.670169968228   121.22029942     0.00000000
 C      3   2   1     2.644966227548   119.98996035   358.99877392
 C      4   3   2     2.619896232288   118.38695698   359.93294379
 C      1   2   3     2.637589051923   118.63187170     1.18419626
 C      5   4   3     2.817132348349   128.21205158   181.89685417
 C      7   5   4     2.833213225975   105.16943799   174.01502157
 C      8   7   5     2.756540344149   107.54233181    12.15986262
 C      8   7   5     2.598321147024   119.85111228   197.46895006
 C     10   8   7     2.687435569343   129.40709258   156.81034492
 C     11  10   8     2.656084162701   126.93844330   157.21282373
 C     12  11  10     2.646952470775   113.05987569   184.22254635
 C     13  12  11     2.656935338716   111.81180078   356.38150489
 S     14  13  12     3.240840330509   113.46717551     1.50783690
 C     13  12  11     2.895930734565   137.87213742   172.99880401
 C     16  13  12     2.887712569238   100.24554314   181.49095661
 C     17  16  13     2.641046727159   111.00146118     1.22719094
 C     17  16  13     2.655963428984   136.27436258   175.83274876
 C     19  17  16     2.642675805708   112.52119225   185.54940563
 S     18  17  16     3.258518727536   112.87825809   176.06014960
 C     20  19  17     2.709202225506   129.08014192   176.73270030
 S     22  20  19     3.332324028678   120.46052216   356.20506479
 C     23  22  20     3.267088261085    90.59297365   183.13137256
 C     24  23  22     2.643236757261   112.43897768   359.67047542
 C     22  20  19     2.641980680894   127.91268651   179.42614651
 C     24  23  22     2.698601019202   138.53125428   177.46476467
 C     27  24  23     2.671079969969   108.81498088   181.82284984
 C     25  24  23     2.879003840055   111.34048288   179.14095985
 S     27  24  23     3.231839544297   138.36282275   359.83340961
 C     30  27  24     3.373430522989    90.82079121   182.26364604
 C     28  27  24     2.628453840528   112.97580367   179.42424324
 C     31  30  27     2.670191598924   115.86326153   175.83502841
 C     33  31  30     2.620718783285   132.73258322   183.99208965
 C     34  33  31     2.773888761792   124.91287020   176.01906619
 C     35  34  33     2.806671362250   107.48546063   182.14343113
 C     36  35  34     2.657047818409   108.57159694   357.94767809
 C     37  36  35     2.801346830947   110.04113497     1.64719220
 C     36  35  34     2.641761445469   132.40832037   176.91748303
 C     39  36  35     2.647978154268   118.73933367   180.37038213
 C     40  39  36     2.667557156709   121.38233165   359.24062073
 C     37  36  35     2.617841896747   122.87862752   180.63344800
 Cl    41  40  39     3.269936229707   120.71087836   181.27674097
 Cl    40  39  36     3.270579344990   118.50307003   179.09633956
 O     38  37  36     2.307221438234   124.06811686   179.32785977
 C     35  34  33     2.620155042954   128.60284673     2.41914864
 C     46  35  34     2.702917617666   122.60687123   177.72276086
 C     46  35  34     2.702181600551   124.24114561   358.53255755
 C     29  25  24     2.929060201366   110.84887133   118.01429115
 C     29  25  24     2.940631393993   109.52862206   241.46378540
 C     50  29  25     2.887319160942   115.93438804   172.51376242
 C     49  29  25     2.886941780638   114.68183078   302.38279916
 C     16  13  12     2.923224286874   113.59508488    61.76321157
 C     16  13  12     2.942819789953   111.27125357   295.57130425
 C     54  16  13     2.884700001998   116.30230583    64.38201686
 C     53  16  13     2.885044676563   115.16773526    56.52194760
 O      7   5   4     2.292079532055   127.16703192   356.92619146
 Cl     2   1   3     3.271630761050   118.44588296   179.82397390
 Cl     3   2   1     3.271341344194   120.71934217   179.19744943
 C      9   8   7     2.615379599910   126.71095803   153.77609816
 C     60   9   8     2.698652401349   122.47009961   179.24239612
 C     60   9   8     2.701444597758   122.16435585   355.05462436
 N     62  60   9     2.195779968923   177.51635554   257.56539953
 N     61  60   9     2.196712446421   178.34236467   265.36592072
 N     47  46  35     2.196633375141   178.94424869   217.58873986
 N     48  46  35     2.197648456902   178.61667778   184.66763642
 H      1   2   3     2.055407454412   118.58110204   180.31561291
 H      4   3   2     2.061026618911   120.79041327   179.82799817
 H     10   8   7     2.073927841829   114.42062871   341.81179968
 H     12  11  10     2.059724209289   121.33725357     1.46101024
 H     19  17  16     2.060944920578   124.98008540     4.41264812
 H     26  22  20     2.060579310063   122.58167266   357.56172611
 H     32  28  27     2.054709316383   127.07510525   178.96682755
 H     33  31  30     2.058788273960   112.22849837     1.71812308
 H     39  36  35     2.053100005111   123.09536765     0.15669713
 H     42  37  36     2.060741607911   120.64485876   179.60731047
 H     49  29  25     2.081201715144   108.42123442   179.55856006
 H     49  29  25     2.085932779979   107.54047830    65.08947746
 H     50  29  25     2.082503158307   107.86206847    49.64373779
 H     50  29  25     2.085913342209   107.34082786   295.70894299
 H     51  50  29     2.076767614357   111.79554396   297.36183655
 H     51  50  29     2.081188634107   110.13479204   178.36538132
 H     51  50  29     2.079290482023   112.41537382    58.73391582
 H     52  49  29     2.080396938485   111.16863905   300.27215943
 H     52  49  29     2.078407447093   110.58047437   180.77415907
 H     52  49  29     2.080354093184   111.74244712    60.70122546
 H     53  16  13     2.081685139464   108.20998030   293.49807833
 H     53  16  13     2.086621766620   107.39220212   179.38354017
 H     54  16  13     2.081248048007   107.85338988   301.49168066
 H     54  16  13     2.085015724338   106.99771902   187.41640235
 H     55  54  16     2.078918211442   111.36639226   292.36705369
 H     55  54  16     2.079988247179   109.99856980   173.72970642
 H     55  54  16     2.078317790602   112.78285569    54.24034891
 H     56  53  16     2.081939056688   111.23156144   302.86885326
 H     56  53  16     2.079870473409   110.69540544   183.45237471
 H     56  53  16     2.081128581558   111.68050774    63.26866301

---------------------
BASIS SET INFORMATION
---------------------
There are 6 groups of distinct atoms

 Group   1 Type C   : 7s4p1d contracted to 3s2p1d pattern {511/31/1}
 Group   2 Type S   : 10s7p1d contracted to 4s3p1d pattern {5311/511/1}
 Group   3 Type Cl  : 10s7p1d contracted to 4s3p1d pattern {5311/511/1}
 Group   4 Type O   : 7s4p1d contracted to 3s2p1d pattern {511/31/1}
 Group   5 Type N   : 7s4p1d contracted to 3s2p1d pattern {511/31/1}
 Group   6 Type H   : 4s1p contracted to 2s1p pattern {31/1}

Atom   0C    basis set group =>   1
Atom   1C    basis set group =>   1
Atom   2C    basis set group =>   1
Atom   3C    basis set group =>   1
Atom   4C    basis set group =>   1
Atom   5C    basis set group =>   1
Atom   6C    basis set group =>   1
Atom   7C    basis set group =>   1
Atom   8C    basis set group =>   1
Atom   9C    basis set group =>   1
Atom  10C    basis set group =>   1
Atom  11C    basis set group =>   1
Atom  12C    basis set group =>   1
Atom  13C    basis set group =>   1
Atom  14S    basis set group =>   2
Atom  15C    basis set group =>   1
Atom  16C    basis set group =>   1
Atom  17C    basis set group =>   1
Atom  18C    basis set group =>   1
Atom  19C    basis set group =>   1
Atom  20S    basis set group =>   2
Atom  21C    basis set group =>   1
Atom  22S    basis set group =>   2
Atom  23C    basis set group =>   1
Atom  24C    basis set group =>   1
Atom  25C    basis set group =>   1
Atom  26C    basis set group =>   1
Atom  27C    basis set group =>   1
Atom  28C    basis set group =>   1
Atom  29S    basis set group =>   2
Atom  30C    basis set group =>   1
Atom  31C    basis set group =>   1
Atom  32C    basis set group =>   1
Atom  33C    basis set group =>   1
Atom  34C    basis set group =>   1
Atom  35C    basis set group =>   1
Atom  36C    basis set group =>   1
Atom  37C    basis set group =>   1
Atom  38C    basis set group =>   1
Atom  39C    basis set group =>   1
Atom  40C    basis set group =>   1
Atom  41C    basis set group =>   1
Atom  42Cl   basis set group =>   3
Atom  43Cl   basis set group =>   3
Atom  44O    basis set group =>   4
Atom  45C    basis set group =>   1
Atom  46C    basis set group =>   1
Atom  47C    basis set group =>   1
Atom  48C    basis set group =>   1
Atom  49C    basis set group =>   1
Atom  50C    basis set group =>   1
Atom  51C    basis set group =>   1
Atom  52C    basis set group =>   1
Atom  53C    basis set group =>   1
Atom  54C    basis set group =>   1
Atom  55C    basis set group =>   1
Atom  56O    basis set group =>   4
Atom  57Cl   basis set group =>   3
Atom  58Cl   basis set group =>   3
Atom  59C    basis set group =>   1
Atom  60C    basis set group =>   1
Atom  61C    basis set group =>   1
Atom  62N    basis set group =>   5
Atom  63N    basis set group =>   5
Atom  64N    basis set group =>   5
Atom  65N    basis set group =>   5
Atom  66H    basis set group =>   6
Atom  67H    basis set group =>   6
Atom  68H    basis set group =>   6
Atom  69H    basis set group =>   6
Atom  70H    basis set group =>   6
Atom  71H    basis set group =>   6
Atom  72H    basis set group =>   6
Atom  73H    basis set group =>   6
Atom  74H    basis set group =>   6
Atom  75H    basis set group =>   6
Atom  76H    basis set group =>   6
Atom  77H    basis set group =>   6
Atom  78H    basis set group =>   6
Atom  79H    basis set group =>   6
Atom  80H    basis set group =>   6
Atom  81H    basis set group =>   6
Atom  82H    basis set group =>   6
Atom  83H    basis set group =>   6
Atom  84H    basis set group =>   6
Atom  85H    basis set group =>   6
Atom  86H    basis set group =>   6
Atom  87H    basis set group =>   6
Atom  88H    basis set group =>   6
Atom  89H    basis set group =>   6
Atom  90H    basis set group =>   6
Atom  91H    basis set group =>   6
Atom  92H    basis set group =>   6
Atom  93H    basis set group =>   6
Atom  94H    basis set group =>   6
Atom  95H    basis set group =>   6
------------------------------------------------------------------------------
                           ORCA GTO INTEGRAL CALCULATION
------------------------------------------------------------------------------

                         BASIS SET STATISTICS AND STARTUP INFO

 # of primitive gaussian shells          ...  990
 # of primitive gaussian functions       ... 1890
 # of contracted shells                  ...  502
 # of contracted basis functions         ... 1106
 Highest angular momentum                ...    2
 Maximum contraction depth               ...    5
 Integral package used                   ... LIBINT
 Integral threshhold            Thresh   ...  2.500e-11
 Primitive cut-off              TCut     ...  2.500e-12


------------------------------ INTEGRAL EVALUATION ----------------------------


 * One electron integrals 
 Pre-screening matrix                    ... done
 Shell pair data                         ... done (   0.015 sec)

-------------------------------------------------------------------------------
                                 ORCA SCF
-------------------------------------------------------------------------------

------------
SCF SETTINGS
------------
Hamiltonian:
 Ab initio Hamiltonian  Method          .... Hartree-Fock(GTOs)


General Settings:
 Integral files         IntName         .... CPDT-4Cl
 Hartree-Fock type      HFTyp           .... RHF
 Total Charge           Charge          ....    0
 Multiplicity           Mult            ....    1
 Number of Electrons    NEL             ....  518
 Basis Dimension        Dim             .... 1106
 Nuclear Repulsion      ENuc            ....  10083.6035099245 Eh

Convergence Acceleration:
 DIIS                   CNVDIIS         .... on
   Start iteration      DIISMaxIt       ....    12
   Startup error        DIISStart       ....  0.200000
   # of expansion vecs  DIISMaxEq       ....     5
   Bias factor          DIISBfac        ....   1.050
   Max. coefficient     DIISMaxC        ....  10.000
 Newton-Raphson         CNVNR           .... off
 SOSCF                  CNVSOSCF        .... on
   Start iteration      SOSCFMaxIt      ....   150
   Startup grad/error   SOSCFStart      ....  0.003300
 Level Shifting         CNVShift        .... on
   Level shift para.    LevelShift      ....    0.2500
   Turn off err/grad.   ShiftErr        ....    0.0010
 Zerner damping         CNVZerner       .... off
 Static damping         CNVDamp         .... on
   Fraction old density DampFac         ....    0.7000
   Max. Damping (<1)    DampMax         ....    0.9800
   Min. Damping (>=0)   DampMin         ....    0.0000
   Turn off err/grad.   DampErr         ....    0.1000
 Fernandez-Rico         CNVRico         .... off

SCF Procedure:
 Maximum # iterations   MaxIter         ....   125
 SCF integral mode      SCFMode         .... Direct
   Integral package                     .... LIBINT
 Reset frequency        DirectResetFreq ....    20
 Integral Threshold     Thresh          ....  2.500e-11 Eh
 Primitive CutOff       TCut            ....  2.500e-12 Eh

Convergence Tolerance:
 Convergence Check Mode ConvCheckMode   .... Total+1el-Energy
 Convergence forced     ConvForced      .... 1
 Energy Change          TolE            ....  1.000e-08 Eh
 1-El. energy change                    ....  1.000e-05 Eh
 Orbital Gradient       TolG            ....  1.000e-05
 Orbital Rotation angle TolX            ....  1.000e-05
 DIIS Error             TolErr          ....  5.000e-07


Diagonalization of the overlap matrix:
Smallest eigenvalue                        ... 2.187e-04
Time for diagonalization                   ...    0.277 sec
Threshold for overlap eigenvalues          ... 1.000e-08
Number of eigenvalues below threshold      ... 0
Time for construction of square roots      ...    0.119 sec
Total time needed                          ...    0.400 sec

-------------------
DFT GRID GENERATION
-------------------

General Integration Accuracy     IntAcc      ...  4.340
Radial Grid Type                 RadialGrid  ... Gauss-Chebyshev
Angular Grid (max. acc.)         AngularGrid ... Lebedev-110
Angular grid pruning method      GridPruning ... 3 (G Style)
Weight generation scheme         WeightScheme... Becke
Basis function cutoff            BFCut       ...    1.0000e-11
Integration weight cutoff        WCut        ...    1.0000e-14
Grids for H and He will be reduced by one unit

# of grid points (after initial pruning)     ... 134772 (   0.2 sec)
# of grid points (after weights+screening)   ... 118385 (   4.6 sec)
nearest neighbour list constructed           ...    0.0 sec
Grid point re-assignment to atoms done       ...    0.0 sec
Grid point division into batches done        ...    0.1 sec
Reduced shell lists constructed in    1.9 sec

Total number of grid points                  ...   118385
Total number of batches                      ...     1897
Average number of points per batch           ...       62
Average number of grid points per atom       ...     1233
Average number of shells per batch           ...   103.34 (20.58%)
Average number of basis functions per batch  ...   215.29 (19.47%)
Average number of large shells per batch     ...    64.07 (62.00%)
Average number of large basis fcns per batch ...   134.39 (62.42%)
Maximum spatial batch extension              ...  23.14, 22.36, 27.69 au
Average spatial batch extension              ...   3.41,  3.36,  3.62 au

Time for grid setup =    6.736 sec

------------------------------
INITIAL GUESS: MODEL POTENTIAL
------------------------------
Loading Hartree-Fock densities                     ... done
Calculating cut-offs                               ... done
Setting up the integral package                    ... done
Initializing the effective Hamiltonian             ... done
Starting the Coulomb interaction                   ... done (   7.5 sec)
Reading the grid                                   ... done
Mapping shells                                     ... done
Starting the XC term evaluation                    ... done (   1.9 sec)
Transforming the Hamiltonian                       ... done (   0.1 sec)
Diagonalizing the Hamiltonian                      ... done (   0.3 sec)
Back transforming the eigenvectors                 ... done (   0.0 sec)
Now organizing SCF variables                       ... done
                      ------------------
                      INITIAL GUESS DONE (  16.8 sec)
                      ------------------
--------------
SCF ITERATIONS
--------------
ITER       Energy         Delta-E        Max-DP      RMS-DP      [F,P]     Damp
               ***  Starting incremental Fock matrix formation  ***
  0  -5777.0624568829   0.000000000000 0.12331596  0.00135177  0.2337446 0.7000
  1  -5777.8101948012  -0.747737918246 0.08270770  0.00104102  0.1394204 0.7000
                               ***Turning on DIIS***
  2  -5778.2506401897  -0.440445388555 0.16706077  0.00239742  0.0762787 0.0000
  3  -5775.5516425548   2.698997634896 0.06053734  0.00063336  0.0509772 0.0000
  4  -5779.4212455830  -3.869603028175 0.01416762  0.00023143  0.0165095 0.0000
  5  -5779.3782082245   0.043037358490 0.00775392  0.00011615  0.0089176 0.0000
  6  -5779.1404232024   0.237785022080 0.00485900  0.00007163  0.0028111 0.0000
  7  -5779.2107958906  -0.070372688220 0.00335819  0.00004499  0.0017090 0.0000
  8  -5779.1962889421   0.014506948564 0.00268378  0.00003372  0.0011665 0.0000
                      *** Initiating the SOSCF procedure ***
                           *** Shutting down DIIS ***
                      *** Re-Reading the Fockian *** 
                      *** Removing any level shift *** 
ITER      Energy       Delta-E        Grad      Rot      Max-DP    RMS-DP
  9  -5779.19028359   0.0060053501  0.002302  0.002302  0.002496  0.000033
               *** Restarting incremental Fock matrix formation ***
 10  -5779.20256480  -0.0122812036  0.000387  0.001594  0.001051  0.000008
 11  -5779.20257632  -0.0000115218  0.000268  0.002782  0.000954  0.000011
 12  -5779.20258482  -0.0000085072  0.000096  0.000480  0.000205  0.000003
 13  -5779.20258583  -0.0000010032  0.000048  0.000413  0.000171  0.000002
 14  -5779.20258634  -0.0000005082  0.000032  0.000381  0.000138  0.000001
 15  -5779.20258651  -0.0000001770  0.000018  0.000221  0.000063  0.000001
 16  -5779.20258656  -0.0000000492  0.000009  0.000073  0.000034  0.000000
 17  -5779.20258658  -0.0000000128  0.000003  0.000023  0.000011  0.000000
                  ***Gradient check signals convergence***
              ***Rediagonalizing the Fockian in SOSCF/NRSCF***

               *****************************************************
               *                     SUCCESS                       *
               *           SCF CONVERGED AFTER  18 CYCLES          *
               *****************************************************


----------------
TOTAL SCF ENERGY
----------------

Total Energy       :        -5779.20258656 Eh         -157260.09733 eV

Components:
Nuclear Repulsion  :        10083.60350992 Eh          274388.80116 eV
Electronic Energy  :       -15862.80609649 Eh         -431648.89849 eV
One Electron Energy:       -28025.36958009 Eh         -762609.07657 eV
Two Electron Energy:        12162.56348360 Eh          330960.17808 eV

Virial components:
Potential Energy   :       -11546.34939529 Eh         -314192.14027 eV
Kinetic Energy     :         5767.14680873 Eh          156932.04294 eV
Virial Ratio       :            2.00209042


---------------
SCF CONVERGENCE
---------------

  Last Energy change         ...    1.3264e-08  Tolerance :   1.0000e-08
  Last MAX-Density change    ...    5.1927e-06  Tolerance :   1.0000e-07
  Last RMS-Density change    ...    6.3876e-08  Tolerance :   5.0000e-09
  Last Orbital Gradient      ...    2.3780e-06  Tolerance :   1.0000e-05
  Last Orbital Rotation      ...    1.1500e-05  Tolerance :   1.0000e-05

             **** THE GBW FILE WAS UPDATED (CPDT-4Cl.gbw) ****
             **** DENSITY FILE WAS UPDATED (CPDT-4Cl.scfp) ****
             **** ENERGY FILE WAS UPDATED (CPDT-4Cl.en.tmp) ****
             **** THE GBW FILE WAS UPDATED (CPDT-4Cl.gbw) ****
             **** DENSITY FILE WAS UPDATED (CPDT-4Cl.scfp) ****
----------------
ORBITAL ENERGIES
----------------

  NO   OCC          E(Eh)            E(eV) 
   0   2.0000    -104.824281     -2852.4137 
   1   2.0000    -104.822802     -2852.3734 
   2   2.0000    -104.821902     -2852.3490 
   3   2.0000    -104.818620     -2852.2597 
   4   2.0000     -91.991519     -2503.2165 
   5   2.0000     -91.990519     -2503.1893 
   6   2.0000     -91.989920     -2503.1730 
   7   2.0000     -91.988407     -2503.1318 
   8   2.0000     -20.569844      -559.7339 
   9   2.0000     -20.568782      -559.7050 
  10   2.0000     -15.597949      -424.4418 
  11   2.0000     -15.595515      -424.3755 
  12   2.0000     -15.594318      -424.3430 
  13   2.0000     -15.590279      -424.2330 
  14   2.0000     -11.369886      -309.3903 
  15   2.0000     -11.369490      -309.3796 
  16   2.0000     -11.350043      -308.8504 
  17   2.0000     -11.349668      -308.8402 
  18   2.0000     -11.348954      -308.8207 
  19   2.0000     -11.347692      -308.7864 
  20   2.0000     -11.346378      -308.7506 
  21   2.0000     -11.344644      -308.7034 
  22   2.0000     -11.331326      -308.3410 
  23   2.0000     -11.327923      -308.2485 
  24   2.0000     -11.326055      -308.1976 
  25   2.0000     -11.325413      -308.1802 
  26   2.0000     -11.324318      -308.1504 
  27   2.0000     -11.323710      -308.1338 
  28   2.0000     -11.322234      -308.0937 
  29   2.0000     -11.320757      -308.0535 
  30   2.0000     -11.309345      -307.7429 
  31   2.0000     -11.308123      -307.7097 
  32   2.0000     -11.307791      -307.7006 
  33   2.0000     -11.305649      -307.6424 
  34   2.0000     -11.304888      -307.6216 
  35   2.0000     -11.304294      -307.6055 
  36   2.0000     -11.304075      -307.5995 
  37   2.0000     -11.303444      -307.5824 
  38   2.0000     -11.302654      -307.5609 
  39   2.0000     -11.301221      -307.5219 
  40   2.0000     -11.299994      -307.4885 
  41   2.0000     -11.299202      -307.4669 
  42   2.0000     -11.299129      -307.4649 
  43   2.0000     -11.295002      -307.3526 
  44   2.0000     -11.294843      -307.3483 
  45   2.0000     -11.290707      -307.2358 
  46   2.0000     -11.287886      -307.1590 
  47   2.0000     -11.287512      -307.1488 
  48   2.0000     -11.286701      -307.1268 
  49   2.0000     -11.285162      -307.0849 
  50   2.0000     -11.284945      -307.0790 
  51   2.0000     -11.284660      -307.0712 
  52   2.0000     -11.283668      -307.0442 
  53   2.0000     -11.281902      -306.9962 
  54   2.0000     -11.281885      -306.9957 
  55   2.0000     -11.278420      -306.9014 
  56   2.0000     -11.273673      -306.7722 
  57   2.0000     -11.269683      -306.6637 
  58   2.0000     -11.259220      -306.3790 
  59   2.0000     -11.257230      -306.3248 
  60   2.0000     -11.256856      -306.3146 
  61   2.0000     -11.256249      -306.2981 
  62   2.0000     -11.241700      -305.9022 
  63   2.0000     -11.241590      -305.8992 
  64   2.0000     -11.240123      -305.8593 
  65   2.0000     -11.238459      -305.8140 
  66   2.0000     -10.587621      -288.1038 
  67   2.0000     -10.586177      -288.0645 
  68   2.0000     -10.585271      -288.0399 
  69   2.0000     -10.582021      -287.9514 
  70   2.0000      -9.026122      -245.6133 
  71   2.0000      -9.025286      -245.5905 
  72   2.0000      -9.024772      -245.5765 
  73   2.0000      -9.023252      -245.5352 
  74   2.0000      -8.062707      -219.3974 
  75   2.0000      -8.061259      -219.3580 
  76   2.0000      -8.060358      -219.3335 
  77   2.0000      -8.058941      -219.2949 
  78   2.0000      -8.058932      -219.2947 
  79   2.0000      -8.057489      -219.2554 
  80   2.0000      -8.057474      -219.2550 
  81   2.0000      -8.057105      -219.2450 
  82   2.0000      -8.056596      -219.2311 
  83   2.0000      -8.056593      -219.2310 
  84   2.0000      -8.053340      -219.1425 
  85   2.0000      -8.053320      -219.1420 
  86   2.0000      -6.713620      -182.6869 
  87   2.0000      -6.712796      -182.6645 
  88   2.0000      -6.712687      -182.6615 
  89   2.0000      -6.712278      -182.6504 
  90   2.0000      -6.711836      -182.6384 
  91   2.0000      -6.711215      -182.6214 
  92   2.0000      -6.710715      -182.6079 
  93   2.0000      -6.710671      -182.6067 
  94   2.0000      -6.709875      -182.5850 
  95   2.0000      -6.709574      -182.5768 
  96   2.0000      -6.709368      -182.5712 
  97   2.0000      -6.707821      -182.5291 
  98   2.0000      -1.397755       -38.0348 
  99   2.0000      -1.397593       -38.0304 
 100   2.0000      -1.251300       -34.0496 
 101   2.0000      -1.248067       -33.9616 
 102   2.0000      -1.246783       -33.9267 
 103   2.0000      -1.242796       -33.8182 
 104   2.0000      -1.236051       -33.6346 
 105   2.0000      -1.234346       -33.5883 
 106   2.0000      -1.221043       -33.2263 
 107   2.0000      -1.218944       -33.1691 
 108   2.0000      -1.206796       -32.8386 
 109   2.0000      -1.202336       -32.7172 
 110   2.0000      -1.198473       -32.6121 
 111   2.0000      -1.185513       -32.2594 
 112   2.0000      -1.158134       -31.5144 
 113   2.0000      -1.154773       -31.4230 
 114   2.0000      -1.148591       -31.2547 
 115   2.0000      -1.135400       -30.8958 
 116   2.0000      -1.127967       -30.6935 
 117   2.0000      -1.124265       -30.5928 
 118   2.0000      -1.101220       -29.9657 
 119   2.0000      -1.096847       -29.8467 
 120   2.0000      -1.081698       -29.4345 
 121   2.0000      -1.069522       -29.1032 
 122   2.0000      -1.052065       -28.6282 
 123   2.0000      -1.048424       -28.5291 
 124   2.0000      -1.044530       -28.4231 
 125   2.0000      -1.036239       -28.1975 
 126   2.0000      -1.030046       -28.0290 
 127   2.0000      -1.029590       -28.0166 
 128   2.0000      -1.027612       -27.9627 
 129   2.0000      -1.023641       -27.8547 
 130   2.0000      -1.019888       -27.7526 
 131   2.0000      -1.012474       -27.5508 
 132   2.0000      -0.993780       -27.0421 
 133   2.0000      -0.970902       -26.4196 
 134   2.0000      -0.949023       -25.8242 
 135   2.0000      -0.935593       -25.4588 
 136   2.0000      -0.930980       -25.3333 
 137   2.0000      -0.926204       -25.2033 
 138   2.0000      -0.922632       -25.1061 
 139   2.0000      -0.910006       -24.7625 
 140   2.0000      -0.883200       -24.0331 
 141   2.0000      -0.865750       -23.5582 
 142   2.0000      -0.853876       -23.2351 
 143   2.0000      -0.851672       -23.1752 
 144   2.0000      -0.847649       -23.0657 
 145   2.0000      -0.837378       -22.7862 
 146   2.0000      -0.833229       -22.6733 
 147   2.0000      -0.829653       -22.5760 
 148   2.0000      -0.825186       -22.4544 
 149   2.0000      -0.816898       -22.2289 
 150   2.0000      -0.810069       -22.0431 
 151   2.0000      -0.788561       -21.4578 
 152   2.0000      -0.779237       -21.2041 
 153   2.0000      -0.769052       -20.9270 
 154   2.0000      -0.765144       -20.8206 
 155   2.0000      -0.757223       -20.6051 
 156   2.0000      -0.752629       -20.4801 
 157   2.0000      -0.751165       -20.4403 
 158   2.0000      -0.744613       -20.2619 
 159   2.0000      -0.739498       -20.1228 
 160   2.0000      -0.729964       -19.8633 
 161   2.0000      -0.719622       -19.5819 
 162   2.0000      -0.710193       -19.3253 
 163   2.0000      -0.699400       -19.0316 
 164   2.0000      -0.694165       -18.8892 
 165   2.0000      -0.686376       -18.6772 
 166   2.0000      -0.680436       -18.5156 
 167   2.0000      -0.672404       -18.2971 
 168   2.0000      -0.671545       -18.2737 
 169   2.0000      -0.661775       -18.0078 
 170   2.0000      -0.661401       -17.9976 
 171   2.0000      -0.652232       -17.7481 
 172   2.0000      -0.651204       -17.7202 
 173   2.0000      -0.649735       -17.6802 
 174   2.0000      -0.647802       -17.6276 
 175   2.0000      -0.646635       -17.5958 
 176   2.0000      -0.640613       -17.4320 
 177   2.0000      -0.638080       -17.3630 
 178   2.0000      -0.631410       -17.1815 
 179   2.0000      -0.629925       -17.1411 
 180   2.0000      -0.627822       -17.0839 
 181   2.0000      -0.625384       -17.0176 
 182   2.0000      -0.623361       -16.9625 
 183   2.0000      -0.620631       -16.8882 
 184   2.0000      -0.615427       -16.7466 
 185   2.0000      -0.612871       -16.6771 
 186   2.0000      -0.608809       -16.5665 
 187   2.0000      -0.599086       -16.3020 
 188   2.0000      -0.597023       -16.2458 
 189   2.0000      -0.592147       -16.1131 
 190   2.0000      -0.585172       -15.9233 
 191   2.0000      -0.583192       -15.8694 
 192   2.0000      -0.582366       -15.8470 
 193   2.0000      -0.580065       -15.7844 
 194   2.0000      -0.577932       -15.7263 
 195   2.0000      -0.577550       -15.7159 
 196   2.0000      -0.576668       -15.6919 
 197   2.0000      -0.575524       -15.6608 
 198   2.0000      -0.572936       -15.5904 
 199   2.0000      -0.571778       -15.5589 
 200   2.0000      -0.570382       -15.5209 
 201   2.0000      -0.569909       -15.5080 
 202   2.0000      -0.567063       -15.4306 
 203   2.0000      -0.565492       -15.3878 
 204   2.0000      -0.564973       -15.3737 
 205   2.0000      -0.561854       -15.2888 
 206   2.0000      -0.559111       -15.2142 
 207   2.0000      -0.557064       -15.1585 
 208   2.0000      -0.554517       -15.0892 
 209   2.0000      -0.548421       -14.9233 
 210   2.0000      -0.546487       -14.8707 
 211   2.0000      -0.543274       -14.7832 
 212   2.0000      -0.539827       -14.6895 
 213   2.0000      -0.531368       -14.4593 
 214   2.0000      -0.529938       -14.4203 
 215   2.0000      -0.528399       -14.3785 
 216   2.0000      -0.516719       -14.0606 
 217   2.0000      -0.513476       -13.9724 
 218   2.0000      -0.510848       -13.9009 
 219   2.0000      -0.509809       -13.8726 
 220   2.0000      -0.507610       -13.8128 
 221   2.0000      -0.507265       -13.8034 
 222   2.0000      -0.505607       -13.7583 
 223   2.0000      -0.499943       -13.6041 
 224   2.0000      -0.499403       -13.5895 
 225   2.0000      -0.498759       -13.5719 
 226   2.0000      -0.496068       -13.4987 
 227   2.0000      -0.494123       -13.4458 
 228   2.0000      -0.493937       -13.4407 
 229   2.0000      -0.492799       -13.4097 
 230   2.0000      -0.490247       -13.3403 
 231   2.0000      -0.488973       -13.3056 
 232   2.0000      -0.488164       -13.2836 
 233   2.0000      -0.486086       -13.2271 
 234   2.0000      -0.483360       -13.1529 
 235   2.0000      -0.480351       -13.0710 
 236   2.0000      -0.477014       -12.9802 
 237   2.0000      -0.475824       -12.9478 
 238   2.0000      -0.473513       -12.8849 
 239   2.0000      -0.469076       -12.7642 
 240   2.0000      -0.466309       -12.6889 
 241   2.0000      -0.462523       -12.5859 
 242   2.0000      -0.460559       -12.5325 
 243   2.0000      -0.450437       -12.2570 
 244   2.0000      -0.445200       -12.1145 
 245   2.0000      -0.435824       -11.8594 
 246   2.0000      -0.414199       -11.2709 
 247   2.0000      -0.393010       -10.6943 
 248   2.0000      -0.388858       -10.5814 
 249   2.0000      -0.382839       -10.4176 
 250   2.0000      -0.380161       -10.3447 
 251   2.0000      -0.379991       -10.3401 
 252   2.0000      -0.376760       -10.2522 
 253   2.0000      -0.373574       -10.1655 
 254   2.0000      -0.355644        -9.6776 
 255   2.0000      -0.349281        -9.5044 
 256   2.0000      -0.343664        -9.3516 
 257   2.0000      -0.302816        -8.2400 
 258   2.0000      -0.262244        -7.1360 
 259   0.0000      -0.039098        -1.0639 
 260   0.0000      -0.019496        -0.5305 
 261   0.0000       0.007453         0.2028 
 262   0.0000       0.015394         0.4189 
 263   0.0000       0.035779         0.9736 
 264   0.0000       0.064575         1.7572 
 265   0.0000       0.085584         2.3288 
 266   0.0000       0.103576         2.8185 
 267   0.0000       0.122491         3.3332 
 268   0.0000       0.134618         3.6631 
 269   0.0000       0.137900         3.7524 
 270   0.0000       0.141536         3.8514 
 271   0.0000       0.143019         3.8917 
 272   0.0000       0.145694         3.9645 
 273   0.0000       0.150459         4.0942 
 274   0.0000       0.152251         4.1430 
 275   0.0000       0.156073         4.2470 
 276   0.0000       0.161406         4.3921 
 277   0.0000       0.162744         4.4285 
 278   0.0000       0.167787         4.5657 
 279   0.0000       0.169192         4.6040 
 280   0.0000       0.170704         4.6451 
 281   0.0000       0.173042         4.7087 
 282   0.0000       0.185278         5.0417 
 283   0.0000       0.186292         5.0693 
 284   0.0000       0.187311         5.0970 
 285   0.0000       0.189142         5.1468 
 286   0.0000       0.190689         5.1889 
 287   0.0000       0.198511         5.4018 
 288   0.0000       0.201466         5.4822 
 289   0.0000       0.205670         5.5966 
 290   0.0000       0.206253         5.6124 
 291   0.0000       0.208830         5.6826 
 292   0.0000       0.209813         5.7093 
 293   0.0000       0.212952         5.7947 
 294   0.0000       0.216674         5.8960 
 295   0.0000       0.218618         5.9489 
 296   0.0000       0.221741         6.0339 
 297   0.0000       0.224988         6.1222 
 298   0.0000       0.230896         6.2830 
 299   0.0000       0.233479         6.3533 
 300   0.0000       0.234808         6.3895 
 301   0.0000       0.240525         6.5450 
 302   0.0000       0.243146         6.6163 
 303   0.0000       0.244879         6.6635 
 304   0.0000       0.245457         6.6792 
 305   0.0000       0.248309         6.7568 
 306   0.0000       0.248800         6.7702 
 307   0.0000       0.251590         6.8461 
 308   0.0000       0.256815         6.9883 
 309   0.0000       0.258070         7.0225 
 310   0.0000       0.258545         7.0354 
 311   0.0000       0.259674         7.0661 
 312   0.0000       0.262948         7.1552 
 313   0.0000       0.265133         7.2146 
 314   0.0000       0.266926         7.2634 
 315   0.0000       0.272439         7.4134 
 316   0.0000       0.276500         7.5239 
 317   0.0000       0.279526         7.6063 
 318   0.0000       0.282413         7.6849 
 319   0.0000       0.286810         7.8045 
 320   0.0000       0.288590         7.8529 
 321   0.0000       0.292309         7.9541 
 322   0.0000       0.296893         8.0789 
 323   0.0000       0.305354         8.3091 
 324   0.0000       0.315422         8.5831 
 325   0.0000       0.318385         8.6637 
 326   0.0000       0.319148         8.6845 
 327   0.0000       0.324344         8.8258 
 328   0.0000       0.330489         8.9931 
 329   0.0000       0.332237         9.0406 
 330   0.0000       0.334914         9.1135 
 331   0.0000       0.335362         9.1257 
 332   0.0000       0.342097         9.3089 
 333   0.0000       0.343377         9.3438 
 334   0.0000       0.345335         9.3970 
 335   0.0000       0.348453         9.4819 
 336   0.0000       0.349036         9.4977 
 337   0.0000       0.355060         9.6617 
 338   0.0000       0.358376         9.7519 
 339   0.0000       0.364406         9.9160 
 340   0.0000       0.364894         9.9293 
 341   0.0000       0.369509        10.0549 
 342   0.0000       0.372904        10.1472 
 343   0.0000       0.376820        10.2538 
 344   0.0000       0.380334        10.3494 
 345   0.0000       0.382549        10.4097 
 346   0.0000       0.386906        10.5282 
 347   0.0000       0.391600        10.6560 
 348   0.0000       0.395750        10.7689 
 349   0.0000       0.396861        10.7991 
 350   0.0000       0.399914        10.8822 
 351   0.0000       0.404139        10.9972 
 352   0.0000       0.407504        11.0888 
 353   0.0000       0.408573        11.1178 
 354   0.0000       0.411762        11.2046 
 355   0.0000       0.413204        11.2438 
 356   0.0000       0.415026        11.2934 
 357   0.0000       0.416420        11.3314 
 358   0.0000       0.419519        11.4157 
 359   0.0000       0.422575        11.4988 
 360   0.0000       0.428151        11.6506 
 361   0.0000       0.433197        11.7879 
 362   0.0000       0.434939        11.8353 
 363   0.0000       0.441254        12.0071 
 364   0.0000       0.442281        12.0351 
 365   0.0000       0.445613        12.1257 
 366   0.0000       0.449427        12.2295 
 367   0.0000       0.451469        12.2851 
 368   0.0000       0.453216        12.3326 
 369   0.0000       0.456747        12.4287 
 370   0.0000       0.458289        12.4707 
 371   0.0000       0.462273        12.5791 
 372   0.0000       0.463840        12.6217 
 373   0.0000       0.470982        12.8161 
 374   0.0000       0.473660        12.8890 
 375   0.0000       0.483510        13.1570 
 376   0.0000       0.485922        13.2226 
 377   0.0000       0.489958        13.3324 
 378   0.0000       0.493928        13.4405 
 379   0.0000       0.500460        13.6182 
 380   0.0000       0.502945        13.6858 
 381   0.0000       0.505755        13.7623 
 382   0.0000       0.507883        13.8202 
 383   0.0000       0.510642        13.8953 
 384   0.0000       0.512902        13.9568 
 385   0.0000       0.517649        14.0860 
 386   0.0000       0.519710        14.1420 
 387   0.0000       0.525502        14.2996 
 388   0.0000       0.530161        14.4264 
 389   0.0000       0.530530        14.4365 
 390   0.0000       0.535245        14.5648 
 391   0.0000       0.546070        14.8593 
 392   0.0000       0.549950        14.9649 
 393   0.0000       0.561655        15.2834 
 394   0.0000       0.564300        15.3554 
 395   0.0000       0.567274        15.4363 
 396   0.0000       0.571322        15.5465 
 397   0.0000       0.578065        15.7300 
 398   0.0000       0.581120        15.8131 
 399   0.0000       0.583496        15.8777 
 400   0.0000       0.585385        15.9291 
 401   0.0000       0.593373        16.1465 
 402   0.0000       0.594239        16.1701 
 403   0.0000       0.600118        16.3301 
 404   0.0000       0.601135        16.3577 
 405   0.0000       0.602083        16.3835 
 406   0.0000       0.607325        16.5261 
 407   0.0000       0.610203        16.6045 
 408   0.0000       0.611927        16.6514 
 409   0.0000       0.615371        16.7451 
 410   0.0000       0.617457        16.8019 
 411   0.0000       0.619920        16.8689 
 412   0.0000       0.623303        16.9609 
 413   0.0000       0.630144        17.1471 
 414   0.0000       0.631153        17.1745 
 415   0.0000       0.633261        17.2319 
 416   0.0000       0.637756        17.3542 
 417   0.0000       0.639662        17.4061 
 418   0.0000       0.641849        17.4656 
 419   0.0000       0.643055        17.4984 
 420   0.0000       0.643925        17.5221 
 421   0.0000       0.647259        17.6128 
 422   0.0000       0.649963        17.6864 
 423   0.0000       0.651873        17.7384 
 424   0.0000       0.655482        17.8366 
 425   0.0000       0.660284        17.9672 
 426   0.0000       0.661782        18.0080 
 427   0.0000       0.666185        18.1278 
 428   0.0000       0.668851        18.2004 
 429   0.0000       0.670572        18.2472 
 430   0.0000       0.671600        18.2752 
 431   0.0000       0.674318        18.3491 
 432   0.0000       0.678424        18.4609 
 433   0.0000       0.681263        18.5381 
 434   0.0000       0.686411        18.6782 
 435   0.0000       0.687713        18.7136 
 436   0.0000       0.690486        18.7891 
 437   0.0000       0.694119        18.8879 
 438   0.0000       0.703768        19.1505 
 439   0.0000       0.705889        19.2082 
 440   0.0000       0.708720        19.2853 
 441   0.0000       0.713968        19.4281 
 442   0.0000       0.717986        19.5374 
 443   0.0000       0.719496        19.5785 
 444   0.0000       0.724992        19.7280 
 445   0.0000       0.725909        19.7530 
 446   0.0000       0.727843        19.8056 
 447   0.0000       0.730524        19.8786 
 448   0.0000       0.734026        19.9739 
 449   0.0000       0.735802        20.0222 
 450   0.0000       0.740653        20.1542 
 451   0.0000       0.744815        20.2674 
 452   0.0000       0.746444        20.3118 
 453   0.0000       0.749266        20.3886 
 454   0.0000       0.750896        20.4329 
 455   0.0000       0.753530        20.5046 
 456   0.0000       0.756197        20.5772 
 457   0.0000       0.757237        20.6055 
 458   0.0000       0.764210        20.7952 
 459   0.0000       0.766791        20.8655 
 460   0.0000       0.770994        20.9798 
 461   0.0000       0.773479        21.0474 
 462   0.0000       0.776346        21.1254 
 463   0.0000       0.778442        21.1825 
 464   0.0000       0.781334        21.2612 
 465   0.0000       0.783386        21.3170 
 466   0.0000       0.785142        21.3648 
 467   0.0000       0.789317        21.4784 
 468   0.0000       0.794309        21.6142 
 469   0.0000       0.796570        21.6758 
 470   0.0000       0.799952        21.7678 
 471   0.0000       0.802088        21.8259 
 472   0.0000       0.804336        21.8871 
 473   0.0000       0.806524        21.9466 
 474   0.0000       0.807898        21.9840 
 475   0.0000       0.810586        22.0572 
 476   0.0000       0.811815        22.0906 
 477   0.0000       0.819194        22.2914 
 478   0.0000       0.823098        22.3976 
 479   0.0000       0.824923        22.4473 
 480   0.0000       0.825358        22.4591 
 481   0.0000       0.826923        22.5017 
 482   0.0000       0.828459        22.5435 
 483   0.0000       0.829934        22.5837 
 484   0.0000       0.833309        22.6755 
 485   0.0000       0.834346        22.7037 
 486   0.0000       0.836298        22.7568 
 487   0.0000       0.840489        22.8709 
 488   0.0000       0.842876        22.9358 
 489   0.0000       0.846141        23.0247 
 490   0.0000       0.847780        23.0693 
 491   0.0000       0.849354        23.1121 
 492   0.0000       0.851109        23.1599 
 493   0.0000       0.852947        23.2099 
 494   0.0000       0.856000        23.2929 
 495   0.0000       0.860420        23.4132 
 496   0.0000       0.861311        23.4375 
 497   0.0000       0.862640        23.4736 
 498   0.0000       0.866135        23.5687 
 499   0.0000       0.866959        23.5911 
 500   0.0000       0.868770        23.6404 
 501   0.0000       0.870576        23.6896 
 502   0.0000       0.871291        23.7090 
 503   0.0000       0.873384        23.7660 
 504   0.0000       0.874669        23.8010 
 505   0.0000       0.878034        23.8925 
 506   0.0000       0.879904        23.9434 
 507   0.0000       0.883508        24.0415 
 508   0.0000       0.884761        24.0756 
 509   0.0000       0.886382        24.1197 
 510   0.0000       0.888187        24.1688 
 511   0.0000       0.889009        24.1912 
 512   0.0000       0.890178        24.2230 
 513   0.0000       0.892751        24.2930 
 514   0.0000       0.893583        24.3156 
 515   0.0000       0.898127        24.4393 
 516   0.0000       0.899954        24.4890 
 517   0.0000       0.900767        24.5111 
 518   0.0000       0.902496        24.5582 
 519   0.0000       0.904222        24.6051 
 520   0.0000       0.906624        24.6705 
 521   0.0000       0.907612        24.6974 
 522   0.0000       0.908925        24.7331 
 523   0.0000       0.911616        24.8063 
 524   0.0000       0.913478        24.8570 
 525   0.0000       0.914807        24.8932 
 526   0.0000       0.915719        24.9180 
 527   0.0000       0.917230        24.9591 
 528   0.0000       0.919909        25.0320 
 529   0.0000       0.921495        25.0752 
 530   0.0000       0.922244        25.0955 
 531   0.0000       0.924544        25.1581 
 532   0.0000       0.925370        25.1806 
 533   0.0000       0.926460        25.2103 
 534   0.0000       0.929040        25.2805 
 535   0.0000       0.930650        25.3243 
 536   0.0000       0.932490        25.3743 
 537   0.0000       0.933807        25.4102 
 538   0.0000       0.935658        25.4605 
 539   0.0000       0.939201        25.5570 
 540   0.0000       0.940002        25.5788 
 541   0.0000       0.942582        25.6490 
 542   0.0000       0.943748        25.6807 
 543   0.0000       0.946785        25.7633 
 544   0.0000       0.949005        25.8237 
 545   0.0000       0.949520        25.8378 
 546   0.0000       0.950847        25.8739 
 547   0.0000       0.951610        25.8946 
 548   0.0000       0.954758        25.9803 
 549   0.0000       0.959645        26.1133 
 550   0.0000       0.959999        26.1229 
 551   0.0000       0.962255        26.1843 
 552   0.0000       0.963281        26.2122 
 553   0.0000       0.964787        26.2532 
 554   0.0000       0.967223        26.3195 
 555   0.0000       0.970311        26.4035 
 556   0.0000       0.971585        26.4382 
 557   0.0000       0.972260        26.4566 
 558   0.0000       0.974761        26.5246 
 559   0.0000       0.978680        26.6312 
 560   0.0000       0.979751        26.6604 
 561   0.0000       0.982560        26.7368 
 562   0.0000       0.985101        26.8060 
 563   0.0000       0.985681        26.8217 
 564   0.0000       0.986986        26.8573 
 565   0.0000       0.990937        26.9648 
 566   0.0000       0.993060        27.0225 
 567   0.0000       0.993901        27.0454 
 568   0.0000       0.996370        27.1126 
 569   0.0000       0.997946        27.1555 
 570   0.0000       0.999289        27.1920 
 571   0.0000       1.001683        27.2572 
 572   0.0000       1.006280        27.3823 
 573   0.0000       1.011768        27.5316 
 574   0.0000       1.011954        27.5367 
 575   0.0000       1.016319        27.6554 
 576   0.0000       1.016676        27.6652 
 577   0.0000       1.024102        27.8672 
 578   0.0000       1.025068        27.8935 
 579   0.0000       1.027657        27.9640 
 580   0.0000       1.028835        27.9960 
 581   0.0000       1.032802        28.1040 
 582   0.0000       1.037153        28.2224 
 583   0.0000       1.042215        28.3601 
 584   0.0000       1.044608        28.4252 
 585   0.0000       1.046101        28.4658 
 586   0.0000       1.047899        28.5148 
 587   0.0000       1.048973        28.5440 
 588   0.0000       1.052015        28.6268 
 589   0.0000       1.056392        28.7459 
 590   0.0000       1.058457        28.8021 
 591   0.0000       1.059447        28.8290 
 592   0.0000       1.064347        28.9624 
 593   0.0000       1.071243        29.1500 
 594   0.0000       1.072949        29.1964 
 595   0.0000       1.076922        29.3045 
 596   0.0000       1.077772        29.3277 
 597   0.0000       1.078666        29.3520 
 598   0.0000       1.081700        29.4345 
 599   0.0000       1.083706        29.4891 
 600   0.0000       1.085444        29.5364 
 601   0.0000       1.085888        29.5485 
 602   0.0000       1.089820        29.6555 
 603   0.0000       1.092613        29.7315 
 604   0.0000       1.094732        29.7892 
 605   0.0000       1.094975        29.7958 
 606   0.0000       1.098210        29.8838 
 607   0.0000       1.104198        30.0467 
 608   0.0000       1.105983        30.0953 
 609   0.0000       1.109225        30.1835 
 610   0.0000       1.114232        30.3198 
 611   0.0000       1.116282        30.3756 
 612   0.0000       1.120349        30.4862 
 613   0.0000       1.123709        30.5777 
 614   0.0000       1.124369        30.5956 
 615   0.0000       1.131057        30.7776 
 616   0.0000       1.136790        30.9336 
 617   0.0000       1.138195        30.9719 
 618   0.0000       1.141115        31.0513 
 619   0.0000       1.145484        31.1702 
 620   0.0000       1.147291        31.2194 
 621   0.0000       1.149641        31.2833 
 622   0.0000       1.153099        31.3774 
 623   0.0000       1.157436        31.4954 
 624   0.0000       1.161285        31.6002 
 625   0.0000       1.171936        31.8900 
 626   0.0000       1.177259        32.0348 
 627   0.0000       1.182790        32.1854 
 628   0.0000       1.184853        32.2415 
 629   0.0000       1.191844        32.4317 
 630   0.0000       1.195019        32.5181 
 631   0.0000       1.198068        32.6011 
 632   0.0000       1.203986        32.7621 
 633   0.0000       1.208196        32.8767 
 634   0.0000       1.210146        32.9298 
 635   0.0000       1.217215        33.1221 
 636   0.0000       1.223082        33.2818 
 637   0.0000       1.225659        33.3519 
 638   0.0000       1.227217        33.3943 
 639   0.0000       1.231705        33.5164 
 640   0.0000       1.233319        33.5603 
 641   0.0000       1.234745        33.5991 
 642   0.0000       1.238452        33.7000 
 643   0.0000       1.241203        33.7749 
 644   0.0000       1.246371        33.9155 
 645   0.0000       1.254170        34.1277 
 646   0.0000       1.257354        34.2143 
 647   0.0000       1.257859        34.2281 
 648   0.0000       1.265124        34.4258 
 649   0.0000       1.273734        34.6601 
[...]
   Time for Sigma-Completion:     5.760
   Size of expansion space: 12
   Lowest Energy          :     0.091931562790
   Maximum Energy change  :     0.029735513675 (vector 2)
   Maximum residual norm  :     0.003255904370

                       ****Iteration    2****
   Time for densities:     0.912
   Using LibInt in JK Direct
   Time for J+K (Direct):   996.486
   Time for Sigma-Completion:     5.120
   Size of expansion space: 15
   Lowest Energy          :     0.089104660121
   Maximum Energy change  :     0.007822732594 (vector 2)
   Maximum residual norm  :     0.000442582516

                       ****Iteration    3****
   Time for densities:     0.911
   Using LibInt in JK Direct
   Time for J+K (Direct):   977.652
   Time for Sigma-Completion:     5.069
   Size of expansion space: 18
   Lowest Energy          :     0.088858080255
   Maximum Energy change  :     0.001126370047 (vector 2)
   Maximum residual norm  :     0.000090960232

                       ****Iteration    4****
   Time for densities:     0.912
   Using LibInt in JK Direct
   Time for J+K (Direct):   965.023
   Time for Sigma-Completion:     5.134
   Size of expansion space: 21
   Lowest Energy          :     0.088831315681
   Maximum Energy change  :     0.000182853060 (vector 2)
   Maximum residual norm  :     0.000020253167

                       ****Iteration    5****
   Time for densities:     0.913
   Using LibInt in JK Direct
   Time for J+K (Direct):   947.551
   Time for Sigma-Completion:     5.008
   Size of expansion space: 24
   Lowest Energy          :     0.088827573402
   Maximum Energy change  :     0.000053372874 (vector 2)
   Maximum residual norm  :     0.000005863188

                       ****Iteration    6****
   Time for densities:     0.913
   Using LibInt in JK Direct
   Time for J+K (Direct):   962.501
   Time for Sigma-Completion:     5.277
   Size of expansion space: 27
   Lowest Energy          :     0.088826989223
   Maximum Energy change  :     0.000013483203 (vector 2)
   Maximum residual norm  :     0.000001835791

                       ****Iteration    7****
   Time for densities:     0.912
   Using LibInt in JK Direct
   Time for J+K (Direct):   972.610
   Time for Sigma-Completion:     5.131
   Size of expansion space: 30
   Lowest Energy          :     0.088826854596
   Maximum Energy change  :     0.000005143356 (vector 2)
   Maximum residual norm  :     0.000000738825
   Rebuilding the expansion space

                       ****Iteration    8****
   Time for densities:     1.827
   Using LibInt in JK Direct
   Time for J+K (Direct):  1869.117
   Time for Sigma-Completion:     9.744
   Size of expansion space: 6
   Lowest Energy          :     0.088826830670
   Maximum Energy change  :     0.000001386421 (vector 2)
   Maximum residual norm  :     0.000000257758

                       ****Iteration    9****
   Time for densities:     0.911
   Using LibInt in JK Direct
   Time for J+K (Direct):   926.370
   Time for Sigma-Completion:     4.852
   Size of expansion space: 9
   Lowest Energy          :     0.088826820380
   Maximum Energy change  :     0.000000746825 (vector 2)
   Maximum residual norm  :     0.000000134052

      *** CONVERGENCE OF RESIDUAL NORM REACHED ***

Storing the converged CI vectors               ... CPDT-4Cl.cis1

                 *** DAVIDSON DONE ***

Total time for solving the CIS problem: 12648.888sec

-----------------------------
CIS-EXCITED STATES (SINGLETS)
-----------------------------

the weight of the individual excitations are printed if larger than 1.0e-02

STATE  1:  E=   0.088827 au      2.417 eV    19495.2 cm**-1
   254a -> 263a  :     0.010401 (c=  0.10198669)
   257a -> 260a  :     0.149867 (c= -0.38712635)
   257a -> 262a  :     0.013678 (c= -0.11695228)
   258a -> 259a  :     0.697199 (c= -0.83498444)
   258a -> 261a  :     0.022406 (c= -0.14968653)
   258a -> 263a  :     0.012520 (c=  0.11189342)

STATE  2:  E=   0.114162 au      3.107 eV    25055.7 cm**-1
   254a -> 260a  :     0.016601 (c= -0.12884642)
   256a -> 260a  :     0.043055 (c= -0.20749740)
   257a -> 259a  :     0.362150 (c=  0.60178895)
   257a -> 263a  :     0.011947 (c=  0.10930233)
   257a -> 265a  :     0.010462 (c=  0.10228200)
   258a -> 260a  :     0.410679 (c=  0.64084263)
   258a -> 262a  :     0.020955 (c=  0.14475716)
   258a -> 264a  :     0.015665 (c= -0.12515997)

STATE  3:  E=   0.147987 au      4.027 eV    32479.3 cm**-1
   247a -> 260a  :     0.013293 (c=  0.11529497)
   254a -> 259a  :     0.040516 (c=  0.20128576)
   255a -> 260a  :     0.011534 (c=  0.10739849)
   256a -> 259a  :     0.130914 (c=  0.36181991)
   256a -> 261a  :     0.013884 (c= -0.11783222)
   257a -> 260a  :     0.208844 (c= -0.45699408)
   257a -> 262a  :     0.013808 (c=  0.11750696)
   257a -> 266a  :     0.016179 (c= -0.12719753)
   258a -> 261a  :     0.236951 (c=  0.48677594)
   258a -> 263a  :     0.137126 (c= -0.37030587)
   258a -> 265a  :     0.027255 (c= -0.16509029)


----------------------
CIS-EXCITATION SPECTRA
----------------------

Center of mass = ( 13.7519, -7.5394, -4.0654)
Calculating the Dipole integrals                  ... done
Transforming integrals                            ... done
Calculating the Linear Momentum integrals         ... done
Transforming integrals                            ... done
Calculating angular momentum integrals            ... done
Transforming integrals                            ... done

-----------------------------------------------------------------------------
         ABSORPTION SPECTRUM VIA TRANSITION ELECTRIC DIPOLE MOMENTS
-----------------------------------------------------------------------------
State   Energy    Wavelength  fosc         T2        TX        TY        TZ  
        (cm-1)      (nm)                 (au**2)    (au)      (au)      (au) 
-----------------------------------------------------------------------------
   1   19495.2    512.9   2.430032767  41.03546  -3.67524   4.66663   2.39805
   2   25055.7    399.1   0.504713301   6.63152   0.40228   1.83519   1.76119
   3   32479.3    307.9   0.187892566   1.90449  -0.77347  -1.13495  -0.13457

-----------------------------------------------------------------------------
         ABSORPTION SPECTRUM VIA TRANSITION VELOCITY DIPOLE MOMENTS
-----------------------------------------------------------------------------
State   Energy    Wavelength   fosc        P2         PX        PY        PZ  
        (cm-1)      (nm)                 (au**2)     (au)      (au)      (au) 
-----------------------------------------------------------------------------
   1   19495.2    512.9   1.549424963   0.20645   0.25042  -0.33519  -0.17716
   2   25055.7    399.1   0.254530838   0.04359  -0.01966  -0.18063  -0.10283
   3   32479.3    307.9   0.075381258   0.01673   0.09208   0.05391  -0.07313

-------------------------------------------------------------------
                             CD SPECTRUM
-------------------------------------------------------------------
State  Energy     Wavelength     R         MX        MY        MZ   
       (cm-1)       (nm)     (1e40*cgs)   (au)      (au)      (au)  
-------------------------------------------------------------------
   1   19495.2    512.9    303.88145  -0.04313  -0.86174   1.87964
   2   25055.7    399.1    -516.72568  -0.21910   0.19755  -0.77813
   3   32479.3    307.9    289.55749  -0.24707  -0.37027  -0.02108

Total run time:    12680.713 sec

           *** ORCA-CIS/TD-DFT FINISHED WITHOUT ERROR ***

-----------------------
CIS/TD-DFT TOTAL ENERGY
-----------------------

    E(SCF)  =  -5779.202586562 Eh
    DE(CIS) =      0.088826820 Eh (Root  1)
    ----------------------------- ---------
    E(tot)  =  -5779.113759741 Eh


-------------------------   --------------------
FINAL SINGLE POINT ENERGY     -5779.113759741444
-------------------------   --------------------

------------------------------------------------------------------------------
                         ORCA SCF GRADIENT CALCULATION
------------------------------------------------------------------------------


------------
CIS GRADIENT
------------

Reference wavefunction             ... RHF
State of interest                  ... 1
Basis dimension                    ... 1106
DFT-XC contribution needed         ... NO
RI-approximation                   ... OFF
CIS-vectors being read from        ... CPDT-4Cl.cis

 => Number of Vectors found: 3
 => Orbital Window: 98...258 -> 259...1105

Reading the CIS file                     ... done
Norm of the CI vector                    ... 1.000000000
Making the CIS (pseudo)densities         ... done
Making operators G(D) and Q(T)           ... done
Transforming the Fock operators          ... done
Making the frozen-core relaxed density   ... done
Constructing the G(H) operator           ... done
Transforming the G(H) operator           ... done
Calculating the CIS Lagrangian           ... done
Solving the Z-vector equations           ... done
Finalizing the relaxed density           ... done
Storing the relaxed density              ... done
Constructing the G(Z) operator           ... done
Transforming the G(Z) operator           ... done
Making the W-matrix                      ... done
Finalizing the W-matrix                  ... done
Transforming the W-matrix                ... done
Nuclear repulsion gradient               ... done
One-Electron gradient                    ... done
Prescreening matrices                    ... done
Two-Electron gradient (4-center)         ... done
                 ---------------------------
                 EXCITED STATE GRADIENT DONE
                 ---------------------------


------------------
CARTESIAN GRADIENT
------------------

   1   C   :   -0.000261149   -0.000707936   -0.002653106
   2   C   :   -0.005154782   -0.010374400   -0.004574991
   3   C   :   -0.005041269    0.007581278    0.008045899
   4   C   :    0.000241162    0.000953211    0.001523541
   5   C   :    0.007710381    0.007926107    0.002733478
   6   C   :    0.011729788   -0.007793741   -0.012361981
   7   C   :   -0.016699736   -0.031024163   -0.017318976
   8   C   :    0.002939373   -0.000856900   -0.005318308
   9   C   :   -0.006509732    0.002173111    0.018064445
  10   C   :   -0.005939699   -0.004472995   -0.001652443
  11   C   :   -0.000590183    0.002238147    0.000646597
  12   C   :   -0.003638389    0.002788442    0.000357938
  13   C   :    0.008623236   -0.000154710   -0.004653468
  14   C   :   -0.006775942    0.007884851    0.005373762
  15   S   :   -0.006202755   -0.000753596   -0.000879184
  16   C   :   -0.004046134   -0.004047491    0.002147457
  17   C   :    0.001551356    0.010677985    0.002025238
  18   C   :    0.004532536   -0.011766687   -0.001231466
  19   C   :    0.000811930   -0.008692767   -0.001429944
  20   C   :    0.002534439    0.010848647    0.001357605
  21   S   :   -0.002596084   -0.004013040   -0.000742873
  22   C   :   -0.001416399   -0.010381703   -0.000174151
  23   S   :    0.001899850    0.004905953   -0.000938997
  24   C   :    0.001686450    0.007769531    0.001744912
  25   C   :   -0.003446272   -0.010266052    0.000772065
  26   C   :   -0.000222619    0.006161187    0.002526408
  27   C   :    0.010157114    0.000648898   -0.004598109
  28   C   :   -0.009730505   -0.008026913    0.004345653
  29   C   :    0.003868151    0.004166731   -0.001593878
  30   S   :    0.004786279    0.004864400   -0.002178277
  31   C   :    0.002131744   -0.007835697   -0.003748457
  32   C   :   -0.001764648    0.000995265    0.001963735
  33   C   :   -0.002407040    0.001229409    0.003056012
  34   C   :    0.002936432    0.000050859   -0.002593831
  35   C   :   -0.014665411   -0.012676381    0.006423251
  36   C   :    0.011487342    0.014039664   -0.003953457
  37   C   :   -0.005827636    0.005780532    0.008171328
  38   C   :    0.028273675   -0.006253060   -0.027517126
  39   C   :    0.001724185    0.001064743   -0.000892444
  40   C   :    0.006736337   -0.003590603   -0.008577633
  41   C   :   -0.007519237   -0.007036918    0.004426816
  42   C   :   -0.001265459    0.000342091    0.001368736
  43   Cl  :   -0.000017306   -0.003509385   -0.001057591
  44   Cl  :   -0.000994684   -0.002783780   -0.001142545
  45   O   :   -0.036305630    0.004745309    0.033055318
  46   C   :    0.017094866    0.008516735   -0.010218505
  47   C   :   -0.043543535    0.039797913    0.048230931
  48   C   :   -0.027621617   -0.070863715   -0.006367099
  49   C   :    0.004899016    0.003626299   -0.001468060
  50   C   :    0.002505702   -0.006377939    0.000037070
  51   C   :    0.002591251    0.005944105    0.001802803
  52   C   :   -0.004913060    0.000016020   -0.002836227
  53   C   :   -0.003878154   -0.004268136    0.002504616
  54   C   :   -0.000348780    0.005584780    0.004384044
  55   C   :    0.000945120   -0.007067272    0.001402494
  56   C   :    0.000613989    0.001906154   -0.006139768
  57   O   :    0.014515147    0.040252605    0.022044762
  58   Cl  :   -0.002970972   -0.000926768    0.000990641
  59   Cl  :   -0.003281660   -0.000479708    0.001249850
  60   C   :    0.000826269   -0.009259235   -0.018655216
  61   C   :    0.049025944    0.052456650    0.024944314
  62   C   :   -0.052395738   -0.017459552    0.050492642
  63   N   :    0.051255705    0.016238320   -0.044480120
  64   N   :   -0.046564747   -0.048627907   -0.021716417
  65   N   :    0.039773307   -0.039127642   -0.044917564
  66   N   :    0.023841084    0.067181256    0.007456669
  67   H   :   -0.000239847   -0.007351912   -0.005222293
  68   H   :    0.000530333    0.006691583    0.004397772
  69   H   :    0.002595886    0.007087659    0.004487875
  70   H   :    0.002524095    0.007157350   -0.000115707
  71   H   :    0.006751662    0.000406581   -0.003506027
  72   H   :   -0.006647045   -0.000173937    0.003801814
  73   H   :   -0.002776002   -0.010306768   -0.001120922
  74   H   :    0.008401517    0.004551247   -0.005181063
  75   H   :    0.007263894    0.001658138   -0.005852087
  76   H   :   -0.006197948   -0.000435565    0.005308752
  77   H   :   -0.002414194   -0.007168211   -0.002155690
  78   H   :   -0.005574214    0.002937809    0.003089485
  79   H   :    0.000271910    0.004614262   -0.005118194
  80   H   :   -0.004434220    0.003286627    0.004596378
  81   H   :    0.005874312   -0.002505452   -0.004422799
  82   H   :   -0.006228558   -0.001021050   -0.003496861
  83   H   :    0.000799478   -0.004581865    0.005742580
  84   H   :    0.005449268   -0.002111624   -0.004847560
  85   H   :    0.000204162   -0.003308685    0.005303796
  86   H   :    0.001335575    0.007039635    0.000854928
  87   H   :   -0.000362847    0.007889886   -0.001397399
  88   H   :    0.005188667   -0.002506059   -0.004631349
  89   H   :   -0.005346449   -0.003623445   -0.002787749
  90   H   :    0.005545422   -0.003425340   -0.002512135
  91   H   :   -0.006542117    0.002612973    0.002940314
  92   H   :    0.001446446    0.002283938   -0.006463094
  93   H   :    0.004277192    0.003240982    0.004260926
  94   H   :   -0.006467136    0.001826669    0.003387897
  95   H   :    0.004940543    0.002775758    0.003779008
  96   H   :    0.000138016   -0.007421582   -0.000209417

Difference to translation invariance:
           :   -0.0000000000    0.0000000003   -0.0000000000

Norm of the cartesian gradient     ...    0.2415076425
RMS gradient                       ...    0.0142309743
MAX gradient                       ...    0.0708637154

-------
TIMINGS
-------

Total CIS gradient time            ...    14982.974 sec

Fock matrix formation       ....    1024.084 sec  (  6.8%)
  Coulomb formation         ....    1024.084 sec  (100.0% of F)
Z-vector equation           ....   12605.374 sec  ( 84.1%)
One electron gradient       ....       9.986 sec  (  0.1%)
Prescreening matrices       ....       0.979 sec  (  0.0%)
Two electron gradient       ....    1340.558 sec  (  8.9%)

                            ***************************************
                            *     ORCA property calculations      *
                            ***************************************

                                    ---------------------
                                    Active property flags
                                    ---------------------
   (+) Dipole Moment


------------------------------------------------------------------------------
                       ORCA ELECTRIC PROPERTIES CALCULATION
------------------------------------------------------------------------------

Dipole Moment Calculation                       ... on
Quadrupole Moment Calculation                   ... off
Polarizability Calculation                      ... off
GBWName                                         ... CPDT-4Cl.gbw
Electron density file                           ... CPDT-4Cl.scfp
The origin for moment calculation is the CENTER OF MASS  = (13.751946, -7.539375 -4.065354)

-------------
DIPOLE MOMENT
-------------
                                X             Y             Z
Electronic contribution:    -42.54676     -39.75837     -16.69676
Nuclear contribution   :     42.18295      41.06498      19.65509
                        -----------------------------------------
Total Dipole Moment    :     -0.36381       1.30661       2.95832
                        -----------------------------------------
Magnitude (a.u.)       :      3.25442
Magnitude (Debye)      :      8.27208



--------------------
Rotational spectrum 
--------------------
 
Rotational constants in cm-1:     0.001911     0.000217     0.000201 
Rotational constants in MHz :    57.296606     6.512111     6.023367 

 Dipole components along the rotational axes: 
x,y,z [a.u.] :     2.374020    -0.306489     2.204848 
x,y,z [Debye]:     6.034280    -0.779033     5.604277 

 

                        *** CIS RELAXED DENSITY ***

------------------------------------------------------------------------------
                       ORCA ELECTRIC PROPERTIES CALCULATION
------------------------------------------------------------------------------

Dipole Moment Calculation                       ... on
Quadrupole Moment Calculation                   ... off
Polarizability Calculation                      ... off
GBWName                                         ... CPDT-4Cl.gbw
Electron density file                           ... CPDT-4Cl.cisp
The origin for moment calculation is the CENTER OF MASS  = (13.751946, -7.539375 -4.065354)

-------------
DIPOLE MOMENT
-------------
                                X             Y             Z
Electronic contribution:    -41.98741     -39.92228     -16.67419
Nuclear contribution   :     42.18295      41.06498      19.65509
                        -----------------------------------------
Total Dipole Moment    :      0.19555       1.14270       2.98089
                        -----------------------------------------
Magnitude (a.u.)       :      3.19839
Magnitude (Debye)      :      8.12967



--------------------
Rotational spectrum 
--------------------
 
Rotational constants in cm-1:     0.001911     0.000217     0.000201 
Rotational constants in MHz :    57.296606     6.512111     6.023367 

 Dipole components along the rotational axes: 
x,y,z [a.u.] :     1.970583    -0.662160     2.430653 
x,y,z [Debye]:     5.008825    -1.683078     6.178229 

 

Timings for individual modules:

Sum of individual times         ...    32498.775 sec (= 541.646 min)
GTO integral calculation        ...        1.315 sec (=   0.022 min)   0.0 %
SCF iterations                  ...     4833.666 sec (=  80.561 min)  14.9 %
CIS module                      ...    12680.786 sec (= 211.346 min)  39.0 %
SCF Gradient evaluation         ...    14983.008 sec (= 249.717 min)  46.1 %
                             ****ORCA TERMINATED NORMALLY****
TOTAL RUN TIME: 0 days 9 hours 1 minutes 39 seconds 482 msec
