
                                 *****************
                                 * O   R   C   A *
                                 *****************

           --- An Ab Initio, DFT and Semiempirical electronic structure package ---

                  #######################################################
                  #                        -***-                        #
                  #          Department of theory and spectroscopy      #
                  #               Directorship: Frank Neese             #
                  #        Max Planck Institute fuer Kohlenforschung    #
                  #                Kaiser Wilhelm Platz 1               #
                  #                 D-45470 Muelheim/Ruhr               #
                  #                      Germany                        #
                  #                                                     #
                  #                  All rights reserved                #
                  #                        -***-                        #
                  #######################################################


                         Program Version 4.2.0 -  RELEASE  -


 With contributions from (in alphabetic order):
   Daniel Aravena         : Magnetic Suceptibility
   Michael Atanasov       : Ab Initio Ligand Field Theory (pilot matlab implementation)
   Alexander A. Auer      : GIAO ZORA, VPT2
   Ute Becker             : Parallelization
   Giovanni Bistoni       : ED, misc. LED, open-shell LED, HFLED
   Martin Brehm           : Molecular dynamics
   Dmytro Bykov           : SCF Hessian
   Vijay G. Chilkuri      : MRCI spin determinant printing, contributions to CSF-ICE
   Dipayan Datta          : RHF DLPNO-CCSD density
   Achintya Kumar Dutta   : EOM-CC, STEOM-CC
   Dmitry Ganyushin       : Spin-Orbit,Spin-Spin,Magnetic field MRCI
   Miquel Garcia          : C-PCM Hessian, Gaussian charge scheme
   Yang Guo               : DLPNO-NEVPT2, CIM, IAO-localization
   Andreas Hansen         : Spin unrestricted coupled pair/coupled cluster methods
   Benjamin Helmich-Paris : CASSCF linear response (MC-RPA)
   Lee Huntington         : MR-EOM, pCC
   Robert Izsak           : Overlap fitted RIJCOSX, COSX-SCS-MP3, EOM
   Christian Kollmar      : KDIIS, OOCD, Brueckner-CCSD(T), CCSD density
   Simone Kossmann        : Meta GGA functionals, TD-DFT gradient, OOMP2, MP2 Hessian
   Martin Krupicka        : AUTO-CI
   Lucas Lang             : DCDCAS
   Dagmar Lenk            : GEPOL surface, SMD
   Dimitrios Liakos       : Extrapolation schemes; Compound Job, initial MDCI parallelization
   Dimitrios Manganas     : Further ROCIS development; embedding schemes
   Dimitrios Pantazis     : SARC Basis sets
   Taras Petrenko         : DFT Hessian,TD-DFT gradient, ASA, ECA, R-Raman, ABS, FL, XAS/XES, NRVS
   Peter Pinski           : DLPNO-MP2, DLPNO-MP2 Gradient
   Christoph Reimann      : Effective Core Potentials
   Marius Retegan         : Local ZFS, SOC
   Christoph Riplinger    : Optimizer, TS searches, QM/MM, DLPNO-CCSD(T), (RO)-DLPNO pert. Triples
   Tobias Risthaus        : Range-separated hybrids, TD-DFT gradient, RPA, STAB
   Michael Roemelt        : Original ROCIS implementation
   Masaaki Saitow         : Open-shell DLPNO-CCSD energy and density
   Barbara Sandhoefer     : DKH picture change effects
   Avijit Sen             : IP-ROCIS
   Kantharuban Sivalingam : CASSCF convergence, NEVPT2, FIC-MRCI
   Bernardo de Souza      : ESD, SOC TD-DFT
   Georgi Stoychev        : AutoAux, RI-MP2 NMR
   Willem Van den Heuvel  : Paramagnetic NMR
   Boris Wezisla          : Elementary symmetry handling
   Frank Wennmohs         : Technical directorship


 We gratefully acknowledge several colleagues who have allowed us to
 interface, adapt or use parts of their codes:
   Stefan Grimme, W. Hujo, H. Kruse,             : VdW corrections, initial TS optimization,
                  C. Bannwarth                     DFT functionals, gCP, sTDA/sTD-DF
   Ed Valeev, F. Pavosevic, A. Kumar             : LibInt (2-el integral package), F12 methods
   Garnet Chan, S. Sharma, J. Yang, R. Olivares  : DMRG
   Ulf Ekstrom                                   : XCFun DFT Library
   Mihaly Kallay                                 : mrcc  (arbitrary order and MRCC methods)
   Andreas Klamt, Michael Diedenhofen            : otool_cosmo (COSMO solvation model)
   Jiri Pittner, Ondrej Demel                    : Mk-CCSD
   Frank Weinhold                                : gennbo (NPA and NBO analysis)
   Christopher J. Cramer and Donald G. Truhlar   : smd solvation model
   Lars Goerigk                                  : TD-DFT with DH, B97 family of functionals
   V. Asgeirsson, H. Jonsson                     : NEB implementation
   FAccTs GmbH                                   : IRC, NEB, NEB-TS, Multilevel, MM, QM/MM, CI optimization
   S Lehtola, MJT Oliveira, MAL Marques          : LibXC Library


 Your calculation uses the libint2 library for the computation of 2-el integrals
 For citations please refer to: http://libint.valeyev.net

 Your ORCA version has been built with support for libXC version: 4.2.3
 For citations please refer to: https://tddft.org/programs/libxc/

 This ORCA versions uses:
   CBLAS   interface :  Fast vector & matrix operations
   LAPACKE interface :  Fast linear algebra routines
   SCALAPACK package :  Parallel linear algebra routines


----- Orbital basis set information -----
Your calculation utilizes the basis: def2-SVP
   F. Weigend and R. Ahlrichs, Phys. Chem. Chem. Phys. 7, 3297 (2005).

================================================================================
                                        WARNINGS
                       Please study these warnings very carefully!
================================================================================

INFO   : Checking CIS options ...

WARNING: CIS/ROCIS methods need fully converged wavefunctions
  ===> : Setting SCFConvForced true
         You can overwrite this default with %scf ConvForced false 


INFO   : the flag for use of LIBINT has been found!

================================================================================
                                       INPUT FILE
================================================================================
NAME = CPDT-4Cl.inp
|  1> # ORCA input file
|  2> # CPDT-4Cl.out
|  3> ! Engrad Keepdens
|  4> %maxcore 1000
|  5> %tddft
|  6>   nroots 3 
|  7>   # nroots is the number of states to be computed
|  8>   Iroot 1
|  9>   end
| 10> * xyz 0 1
| 11>    C       -0.47958         2.35315         1.88131
| 12>    C       -1.44729         2.66122         2.83175
| 13>    C       -1.22389         3.64691         3.79941
| 14>    C       -0.01640         4.33437         3.83725
| 15>    C        0.94626         4.01869         2.90080
| 16>    C        0.72261         3.03719         1.91756
| 17>    C        2.31003         4.57564         2.74314
| 18>    C        2.93464         3.75527         1.67607
| 19>    C        1.89700         2.96695         1.05113
| 20>    C        4.28613         3.78857         1.48512
| 21>    C        5.11109         2.82754         0.86824
| 22>    C        6.38294         3.05212         0.34867
| 23>    C        6.94888         1.91203        -0.19087
| 24>    C        6.14286         0.77918        -0.01336
| 25>    S        4.65508         1.13130         0.75126
| 26>    C        8.22098         1.54799        -0.91642
| 27>    C        8.04904         0.05240        -1.03998
| 28>    C        6.81768        -0.34978        -0.51712
| 29>    C        8.77270        -0.99972        -1.58022
| 30>    C        8.10891        -2.21219        -1.46057
| 31>    S        6.55465        -2.03966        -0.66714
| 32>    C        8.53923        -3.47924        -1.92007
| 33>    S       10.00773        -3.61990        -2.86665
| 34>    C        9.75062        -5.31152        -3.01589
| 35>    C        8.59815        -5.74178        -2.35349
| 36>    C        7.91194        -4.70399        -1.74111
| 37>    C       10.36916        -6.41561        -3.63267
| 38>    C        9.61215        -7.57117        -3.36247
| 39>    C        8.39969        -7.22888        -2.52950
| 40>    S       11.74686        -6.73299        -4.58464
| 41>    C       11.32464        -8.45236        -4.63766
| 42>    C       10.15994        -8.71005        -3.91140
| 43>    C       12.18073        -9.26842        -5.38775
| 44>    C       12.13407       -10.60602        -5.70608
| 45>    C       13.12969       -11.25978        -6.53869
| 46>    C       12.68939       -12.63620        -6.76153
| 47>    C       11.49466       -12.84472        -6.05533
| 48>    C       11.10230       -11.60213        -5.35732
| 49>    C       13.23445       -13.67188        -7.50281
| 50>    C       12.57711       -14.89749        -7.52062
| 51>    C       11.39050       -15.09630        -6.80721
| 52>    C       10.83998       -14.05894        -6.06560
| 53>   Cl       10.60861       -16.62479        -6.84791
| 54>   Cl       13.24475       -16.18506        -8.44093
| 55>    O       10.11778       -11.47928        -4.65563
| 56>    C       14.29714       -10.73106        -7.02751
| 57>    C       15.20687       -11.44249        -7.83948
| 58>    C       14.79593        -9.43011        -6.80293
| 59>    C        8.40160        -7.97577        -1.18573
| 60>    C        7.08268        -7.44958        -3.30683
| 61>    C        6.77539        -8.89891        -3.65787
| 62>    C        9.62103        -7.64849        -0.33160
| 63>    C        9.47990         1.92588        -0.12186
| 64>    C        8.24248         2.13887        -2.34570
| 65>    C        8.13406         3.65558        -2.41510
| 66>    C        9.52881         1.26277         1.24984
| 67>    O        2.82552         5.46938         3.37366
| 68>   Cl       -2.93853         1.81049         2.80865
| 69>   Cl       -2.44568         4.01076         4.95011
| 70>    C        1.90366         2.49990        -0.23837
| 71>    C        0.82096         1.82455        -0.83533
| 72>    C        2.96435         2.73717        -1.13684
| 73>    N        3.78880         2.95667        -1.90528
| 74>    N       -0.02579         1.25352        -1.35912
| 75>    N       15.99193       -11.95168        -8.50442
| 76>    N       15.29439        -8.40318        -6.67117
| 77>    H       -0.67980         1.58710         1.14972
| 78>    H        0.16470         5.09629         4.57876
| 79>    H        4.79831         4.63545         1.93227
| 80>    H        6.83046         4.02937         0.35544
| 81>    H        9.74081        -0.92049        -2.04142
| 82>    H        6.99906        -4.80222        -1.18137
| 83>    H        9.77207        -9.70668        -3.81257
| 84>    H       13.01692        -8.72141        -5.80648
| 85>    H       14.14544       -13.56016        -8.06678
| 86>    H        9.92476       -14.19497        -5.51147
| 87>    H        8.38658        -9.04705        -1.38568
| 88>    H        7.49282        -7.71355        -0.64055
| 89>    H        7.13446        -6.86337        -4.22796
| 90>    H        6.26867        -7.04384        -2.70205
| 91>    H        7.56149        -9.32985        -4.27041
| 92>    H        5.84604        -8.94032        -4.22131
| 93>    H        6.65408        -9.50574        -2.76529
| 94>    H       10.53867        -7.90146        -0.85798
| 95>    H        9.58987        -8.21932         0.59307
| 96>    H        9.64900        -6.59062        -0.07969
| 97>    H        9.50387         3.00852         0.00436
| 98>    H       10.35728         1.63094        -0.70058
| 99>    H        7.40826         1.70588        -2.90231
|100>    H        9.16889         1.81343        -2.82371
|101>    H        7.16750         3.98777        -2.04726
|102>    H        8.22631         3.97300        -3.45096
|103>    H        8.92076         4.14002        -1.84293
|104>    H        8.66609         1.54879         1.84741
|105>    H       10.42817         1.56777         1.77892
|106>    H        9.53758         0.17915         1.15631
|107> *
|108> 
|109>                          ****END OF INPUT****
================================================================================

                     *******************************
                     * Energy+Gradient Calculation *
                     *******************************

---------------------------------
CARTESIAN COORDINATES (ANGSTROEM)
---------------------------------
  C     -0.479580    2.353150    1.881310
  C     -1.447290    2.661220    2.831750
  C     -1.223890    3.646910    3.799410
  C     -0.016400    4.334370    3.837250
  C      0.946260    4.018690    2.900800
  C      0.722610    3.037190    1.917560
  C      2.310030    4.575640    2.743140
  C      2.934640    3.755270    1.676070
  C      1.897000    2.966950    1.051130
  C      4.286130    3.788570    1.485120
  C      5.111090    2.827540    0.868240
  C      6.382940    3.052120    0.348670
  C      6.948880    1.912030   -0.190870
  C      6.142860    0.779180   -0.013360
  S      4.655080    1.131300    0.751260
  C      8.220980    1.547990   -0.916420
  C      8.049040    0.052400   -1.039980
  C      6.817680   -0.349780   -0.517120
  C      8.772700   -0.999720   -1.580220
  C      8.108910   -2.212190   -1.460570
  S      6.554650   -2.039660   -0.667140
  C      8.539230   -3.479240   -1.920070
  S     10.007730   -3.619900   -2.866650
  C      9.750620   -5.311520   -3.015890
  C      8.598150   -5.741780   -2.353490
  C      7.911940   -4.703990   -1.741110
  C     10.369160   -6.415610   -3.632670
  C      9.612150   -7.571170   -3.362470
  C      8.399690   -7.228880   -2.529500
  S     11.746860   -6.732990   -4.584640
  C     11.324640   -8.452360   -4.637660
  C     10.159940   -8.710050   -3.911400
  C     12.180730   -9.268420   -5.387750
  C     12.134070  -10.606020   -5.706080
  C     13.129690  -11.259780   -6.538690
  C     12.689390  -12.636200   -6.761530
  C     11.494660  -12.844720   -6.055330
  C     11.102300  -11.602130   -5.357320
  C     13.234450  -13.671880   -7.502810
  C     12.577110  -14.897490   -7.520620
  C     11.390500  -15.096300   -6.807210
  C     10.839980  -14.058940   -6.065600
  Cl    10.608610  -16.624790   -6.847910
  Cl    13.244750  -16.185060   -8.440930
  O     10.117780  -11.479280   -4.655630
  C     14.297140  -10.731060   -7.027510
  C     15.206870  -11.442490   -7.839480
  C     14.795930   -9.430110   -6.802930
  C      8.401600   -7.975770   -1.185730
  C      7.082680   -7.449580   -3.306830
  C      6.775390   -8.898910   -3.657870
  C      9.621030   -7.648490   -0.331600
  C      9.479900    1.925880   -0.121860
  C      8.242480    2.138870   -2.345700
  C      8.134060    3.655580   -2.415100
  C      9.528810    1.262770    1.249840
  O      2.825520    5.469380    3.373660
  Cl    -2.938530    1.810490    2.808650
  Cl    -2.445680    4.010760    4.950110
  C      1.903660    2.499900   -0.238370
  C      0.820960    1.824550   -0.835330
  C      2.964350    2.737170   -1.136840
  N      3.788800    2.956670   -1.905280
  N     -0.025790    1.253520   -1.359120
  N     15.991930  -11.951680   -8.504420
  N     15.294390   -8.403180   -6.671170
  H     -0.679800    1.587100    1.149720
  H      0.164700    5.096290    4.578760
  H      4.798310    4.635450    1.932270
  H      6.830460    4.029370    0.355440
  H      9.740810   -0.920490   -2.041420
  H      6.999060   -4.802220   -1.181370
  H      9.772070   -9.706680   -3.812570
  H     13.016920   -8.721410   -5.806480
  H     14.145440  -13.560160   -8.066780
  H      9.924760  -14.194970   -5.511470
  H      8.386580   -9.047050   -1.385680
  H      7.492820   -7.713550   -0.640550
  H      7.134460   -6.863370   -4.227960
  H      6.268670   -7.043840   -2.702050
  H      7.561490   -9.329850   -4.270410
  H      5.846040   -8.940320   -4.221310
  H      6.654080   -9.505740   -2.765290
  H     10.538670   -7.901460   -0.857980
  H      9.589870   -8.219320    0.593070
  H      9.649000   -6.590620   -0.079690
  H      9.503870    3.008520    0.004360
  H     10.357280    1.630940   -0.700580
  H      7.408260    1.705880   -2.902310
  H      9.168890    1.813430   -2.823710
  H      7.167500    3.987770   -2.047260
  H      8.226310    3.973000   -3.450960
  H      8.920760    4.140020   -1.842930
  H      8.666090    1.548790    1.847410
  H     10.428170    1.567770    1.778920
  H      9.537580    0.179150    1.156310

----------------------------
CARTESIAN COORDINATES (A.U.)
----------------------------
  NO LB      ZA    FRAG     MASS         X           Y           Z
   0 C     6.0000    0    12.011   -0.906275    4.446809    3.555161
   1 C     6.0000    0    12.011   -2.734982    5.028977    5.351232
   2 C     6.0000    0    12.011   -2.312817    6.891661    7.179844
   3 C     6.0000    0    12.011   -0.030992    8.190772    7.251352
   4 C     6.0000    0    12.011    1.788172    7.594224    5.481718
   5 C     6.0000    0    12.011    1.365535    5.739457    3.623663
   6 C     6.0000    0    12.011    4.365324    8.646706    5.183783
   7 C     6.0000    0    12.011    5.545666    7.096432    3.167313
   8 C     6.0000    0    12.011    3.584810    5.606723    1.986348
   9 C     6.0000    0    12.011    8.099612    7.159360    2.806470
  10 C     6.0000    0    12.011    9.658560    5.343276    1.640736
  11 C     6.0000    0    12.011   12.062009    5.767671    0.658891
  12 C     6.0000    0    12.011   13.131480    3.613213   -0.360692
  13 C     6.0000    0    12.011   11.608323    1.472437   -0.025247
  14 S    16.0000    0    32.060    8.796826    2.137847    1.419676
  15 C     6.0000    0    12.011   15.535401    2.925277   -1.731783
  16 C     6.0000    0    12.011   15.210481    0.099022   -1.965277
  17 C     6.0000    0    12.011   12.883548   -0.660988   -0.977215
  18 C     6.0000    0    12.011   16.578000   -1.889197   -2.986183
  19 C     6.0000    0    12.011   15.323619   -4.180433   -2.760077
  20 S    16.0000    0    32.060   12.386493   -3.854399   -1.260712
  21 C     6.0000    0    12.011   16.136806   -6.574811   -3.628406
  22 S    16.0000    0    32.060   18.911869   -6.840620   -5.417183
  23 C     6.0000    0    12.011   18.426001  -10.037318   -5.699206
  24 C     6.0000    0    12.011   16.248149  -10.850392   -4.447452
  25 C     6.0000    0    12.011   14.951400   -8.889253   -3.290221
  26 C     6.0000    0    12.011   19.594873  -12.123746   -6.864751
  27 C     6.0000    0    12.011   18.164331  -14.307438   -6.354147
  28 C     6.0000    0    12.011   15.873114  -13.660603   -4.780062
  29 S    16.0000    0    32.060   22.198348  -12.723507   -8.663714
  30 C     6.0000    0    12.011   21.400468  -15.972646   -8.763907
  31 C     6.0000    0    12.011   19.199504  -16.459609   -7.391475
  32 C     6.0000    0    12.011   23.018244  -17.514775  -10.181372
  33 C     6.0000    0    12.011   22.930069  -20.042473  -10.782928
  34 C     6.0000    0    12.011   24.811518  -21.277901  -12.356333
  35 C     6.0000    0    12.011   23.979472  -23.878957  -12.777440
  36 C     6.0000    0    12.011   21.721759  -24.273003  -11.442915
  37 C     6.0000    0    12.011   20.980306  -21.924848  -10.123868
  38 C     6.0000    0    12.011   25.009486  -25.836109  -14.178256
  39 C     6.0000    0    12.011   23.767293  -28.152176  -14.211912
  40 C     6.0000    0    12.011   21.524926  -28.527873  -12.863763
  41 C     6.0000    0    12.011   20.484593  -26.567546  -11.462323
  42 Cl   17.0000    0    35.453   20.047368  -31.416300  -12.940674
  43 Cl   17.0000    0    35.453   25.028950  -30.585331  -15.951046
  44 O     8.0000    0    15.999   19.119833  -21.692695   -8.797866
  45 C     6.0000    0    12.011   27.017679  -20.278765  -13.280069
  46 C     6.0000    0    12.011   28.736820  -21.623172  -14.814470
  47 C     6.0000    0    12.011   27.960256  -17.820325  -12.855675
  48 C     6.0000    0    12.011   15.876723  -15.072021   -2.240705
  49 C     6.0000    0    12.011   13.384325  -14.077666   -6.249003
  50 C     6.0000    0    12.011   12.803632  -16.816503   -6.912373
  51 C     6.0000    0    12.011   18.181112  -14.453551   -0.626633
  52 C     6.0000    0    12.011   17.914415    3.639386   -0.230282
  53 C     6.0000    0    12.011   15.576030    4.041879   -4.432731
  54 C     6.0000    0    12.011   15.371146    6.908045   -4.563878
  55 C     6.0000    0    12.011   18.006841    2.386289    2.361855
  56 O     8.0000    0    15.999    5.339459   10.335630    6.375293
  57 Cl   17.0000    0    35.453   -5.553017    3.421330    5.307579
  58 Cl   17.0000    0    35.453   -4.621665    7.579238    9.354352
  59 C     6.0000    0    12.011    3.597396    4.724126   -0.450454
  60 C     6.0000    0    12.011    1.551390    3.447900   -1.578545
  61 C     6.0000    0    12.011    5.601810    5.172502   -2.148316
  62 N     7.0000    0    14.007    7.159794    5.587297   -3.600457
  63 N     7.0000    0    14.007   -0.048736    2.368810   -2.568365
  64 N     7.0000    0    14.007   30.220368  -22.585402  -16.071025
  65 N     7.0000    0    14.007   28.902208  -15.879709  -12.606684
  66 H     1.0000    0     1.008   -1.284636    2.999184    2.172656
  67 H     1.0000    0     1.008    0.311238    9.630592    8.652602
  68 H     1.0000    0     1.008    9.067492    8.759731    3.651461
  69 H     1.0000    0     1.008   12.907699    7.614406    0.671684
  70 H     1.0000    0     1.008   18.407463   -1.739474   -3.857725
  71 H     1.0000    0     1.008   13.226307   -9.074881   -2.232466
  72 H     1.0000    0     1.008   18.466536  -18.342967   -7.204713
  73 H     1.0000    0     1.008   24.598414  -16.481076  -10.972657
  74 H     1.0000    0     1.008   26.731008  -25.624989  -15.244005
  75 H     1.0000    0     1.008   18.755078  -26.824606  -10.415169
  76 H     1.0000    0     1.008   15.848339  -17.096447   -2.618556
  77 H     1.0000    0     1.008   14.159378  -14.576497   -1.210464
  78 H     1.0000    0     1.008   13.482176  -12.969890   -7.989687
  79 H     1.0000    0     1.008   11.846070  -13.310929   -5.106135
  80 H     1.0000    0     1.008   14.289145  -17.630861   -8.069905
  81 H     1.0000    0     1.008   11.047415  -16.894756   -7.977120
  82 H     1.0000    0     1.008   12.574389  -17.963245   -5.225641
  83 H     1.0000    0     1.008   19.915200  -14.931595   -1.621347
  84 H     1.0000    0     1.008   18.122228  -15.532264    1.120740
  85 H     1.0000    0     1.008   18.233967  -12.454467   -0.150592
  86 H     1.0000    0     1.008   17.959712    5.685279    0.008239
  87 H     1.0000    0     1.008   19.572423    3.082030   -1.323904
  88 H     1.0000    0     1.008   13.999583    3.223646   -5.484571
  89 H     1.0000    0     1.008   17.326691    3.426886   -5.336039
  90 H     1.0000    0     1.008   13.544612    7.535793   -3.868761
  91 H     1.0000    0     1.008   15.545473    7.507882   -6.521369
  92 H     1.0000    0     1.008   16.857793    7.823504   -3.482633
  93 H     1.0000    0     1.008   16.376537    2.926789    3.491099
  94 H     1.0000    0     1.008   19.706385    2.962656    3.361672
  95 H     1.0000    0     1.008   18.023414    0.338544    2.185109

--------------------------------
INTERNAL COORDINATES (ANGSTROEM)
--------------------------------
 C      0   0   0     0.000000000000     0.00000000     0.00000000
 C      1   0   0     1.390937080748     0.00000000     0.00000000
 C      2   1   0     1.399234866525   121.16452336     0.00000000
 C      3   2   1     1.389987488181   120.39307725   359.41901902
 C      4   3   2     1.379603834621   118.32792922     0.00000000
 C      1   2   3     1.383649370397   118.49527682     0.54219750
 C      5   4   3     1.481525764541   128.94194577   181.38960985
 C      7   5   4     1.483840616070   104.84299783   173.74234573
 C      8   7   5     1.445231882986   108.07764997    11.81752580
 C      8   7   5     1.365319014956   120.24964643   195.09686362
 C     10   8   7     1.408786214051   128.62743058   157.62873431
 C     11  10   8     1.392117661622   126.04144561   159.89442515
 C     12  11  10     1.382460380373   112.74465913   179.79089793
 C     13  12  11     1.401615911368   112.43922855   356.28192708
 S     14  13  12     1.709421412993   112.99573598     2.75284704
 C     13  12  11     1.509034901551   137.02810472   177.05373126
 C     16  13  12     1.510503189437   100.49976073   175.92235643
 C     17  16  13     1.396917600147   110.78021842     2.73973483
 C     17  16  13     1.386542299247   136.36738261   179.67117191
 C     19  17  16     1.387449742333   112.32202731   182.40558343
 S     18  17  16     1.716795036019   112.68946162   178.61311823
 C     20  19  17     1.414825521010   127.52357039   178.75531254
 S     22  20  19     1.752795248168   120.13754085   354.80782606
 C     23  22  20     1.717543697872    90.03130441   181.67996239
 C     24  23  22     1.397170185947   112.68013388   359.30228373
 C     25  24  23     1.386687243974   112.77337572     0.85219474
 C     24  23  22     1.407843751309   138.13358113   178.65607975
 C     27  24  23     1.407618944779   108.87059566   180.41993987
 C     28  27  24     1.510318084577   110.58208196     0.79731994
 S     27  24  23     1.704416098052   138.23320527     0.74224894
 C     30  27  24     1.771246466673    90.27471124   179.65136404
 C     28  27  24     1.377840949965   112.84692251   181.06134776
 C     31  30  27     1.400528121746   115.84493484   178.45100160
 C     33  31  30     1.375748852262   132.04518256   183.82271063
 C     34  33  31     1.453238017016   123.14249889   178.55848180
 C     35  34  33     1.462208525485   107.72730236   185.23129477
 C     36  35  34     1.403416831629   108.63383813   357.90019062
 C     34  33  31     1.475946476875   128.69795134     1.67569167
 C     36  35  34     1.385358980337   131.82062900   177.95634117
 C     39  36  35     1.390874884308   118.66367519   179.73820403
 C     40  39  36     1.398757497317   121.30831397   359.86110098
 C     37  36  35     1.379507732381   122.07560842   180.45580372
 Cl    41  40  39     1.717349743704   120.04308150   180.20396266
 Cl    40  39  36     1.717716557119   118.92627467   179.83792373
 O     38  34  33     1.215212166249   129.38769774   355.29929105
 C     35  34  33     1.371652045272   127.87085162     6.43739131
 C     46  35  34     1.411749481565   123.99952903   180.33133028
 C     46  35  34     1.411275502161   126.82936303     1.19865552
 C     29  28  27     1.537389388899   111.77488463   239.93619393
 C     29  28  27     1.545142633869   111.98895091   113.59427764
 C     50  29  28     1.522568118213   115.08601309    66.14591486
 C     49  29  28     1.524355529462   112.73338520    60.02974051
 C     16  13  12     1.535905599996   112.51212707    56.29788128
 C     16  13  12     1.546752321091   111.33674349   289.78726246
 C     54  16  13     1.522163092609   114.94733558    59.23795516
 C     53  16  13     1.524358209280   112.63048347    58.30506063
 O      7   5   4     1.209155324224   127.93824120   356.15213912
 Cl     2   1   3     1.716995014699   119.03320779   180.02618854
 Cl     3   2   1     1.717343331020   119.93665296   179.50150385
 C      9   8   7     1.371492000742   126.07403422   152.85657065
 C     60   9   8     1.408793155186   123.91232516   185.22504312
 C     60   9   8     1.410180367861   123.05174941     0.30360599
 N     62  60   9     1.148215174129   177.01047785   238.29999041
 N     61  60   9     1.147787779818   177.22763943   200.35517657
 N     47  46  35     1.147928074097   175.85944287   177.49540427
 N     48  46  35     1.149090202769   174.49453267   172.63052085
 H      1   2   3     1.078028097500   119.46490778   179.85626732
 H      4   3   2     1.078497277002   120.93012335   179.94737003
 H     10   8   7     1.086037388537   115.35741626   342.48799830
 H     12  11  10     1.074866292057   121.64813267   357.91185530
 H     19  17  16     1.075276617899   125.52842574     2.68870724
 H     26  25  24     1.075317578625   125.56401332   179.68204758
 H     32  28  27     1.074002729373   125.92883730   178.19333531
 H     33  31  30     1.083405957663   112.61796678     2.14456760
 H     39  36  35     1.077240130797   122.36585517   359.53819112
 H     42  37  36     1.078513730186   120.65794114   179.77313609
 H     49  29  28     1.089883682463   108.49080100   299.26516244
 H     49  29  28     1.091724163514   108.58805376   181.60253474
 H     50  29  28     1.093070816279   107.87649426   304.21219118
 H     50  29  28     1.092243597418   107.67472566   188.32628616
 H     51  50  29     1.085756761526   111.20833095   300.61451820
 H     51  50  29     1.087598659525   109.15612294   181.38756295
 H     51  50  29     1.086120537233   111.40182299    62.20959382
 H     52  49  29     1.087719125004   110.71930281   301.10585737
 H     52  49  29     1.087121172363   109.93333996   181.50762541
 H     52  49  29     1.087809682757   111.04598171    61.64764663
 H     53  16  13     1.090236405052   108.79821207   297.22391160
 H     53  16  13     1.091651091879   108.54513661   179.71908390
 H     54  16  13     1.092345202122   107.98785718   297.97146692
 H     54  16  13     1.092080693813   107.60267915   181.78479442
 H     55  54  16     1.086229577622   110.65038210   294.89902467
 H     55  54  16     1.087323069975   109.16405857   176.18917629
 H     55  54  16     1.086718690600   111.63033993    56.78931080
 H     56  53  16     1.087742223001   110.76386968   300.46763294
 H     56  53  16     1.087105816377   110.02588221   180.68156906
 H     56  53  16     1.087684273215   110.87093562    60.85112048

---------------------------
INTERNAL COORDINATES (A.U.)
---------------------------
 C      0   0   0     0.000000000000     0.00000000     0.00000000
 C      1   0   0     2.628490152130     0.00000000     0.00000000
 C      2   1   0     2.644170694767   121.16452336     0.00000000
 C      3   2   1     2.626695682239   120.39307725   359.41901902
 C      4   3   2     2.607073420741   118.32792922     0.00000000
 C      1   2   3     2.614718375423   118.49527682     0.54219750
 C      5   4   3     2.799677955332   128.94194577   181.38960985
 C      7   5   4     2.804052390762   104.84299783   173.74234573
 C      8   7   5     2.731092458855   108.07764997    11.81752580
 C      8   7   5     2.580079023702   120.24964643   195.09686362
 C     10   8   7     2.662220125800   128.62743058   157.62873431
 C     11  10   8     2.630721126660   126.04144561   159.89442515
 C     12  11  10     2.612471509901   112.74465913   179.79089793
 C     13  12  11     2.648670217432   112.43922855   356.28192708
 S     14  13  12     3.230338318018   112.99573598     2.75284704
 C     13  12  11     2.851662690461   137.02810472   177.05373126
 C     16  13  12     2.854437352451   100.49976073   175.92235643
 C     17  16  13     2.639791695932   110.78021842     2.73973483
 C     17  16  13     2.620185218674   136.36738261   179.67117191
 C     19  17  16     2.621900037589   112.32202731   182.40558343
 S     18  17  16     3.244272446152   112.68946162   178.61311823
 C     20  19  17     2.673632761991   127.52357039   178.75531254
 S     22  20  19     3.312302987876   120.13754085   354.80782606
 C     23  22  20     3.245687212021    90.03130441   181.67996239
 C     24  23  22     2.640269013920   112.68013388   359.30228373
 C     25  24  23     2.620459124513   112.77337572     0.85219474
 C     24  23  22     2.660439129326   138.13358113   178.65607975
 C     27  24  23     2.660014306551   108.87059566   180.41993987
 C     28  27  24     2.854087554959   110.58208196     0.79731994
 S     27  24  23     3.220879643566   138.23320527     0.74224894
 C     30  27  24     3.347170737687    90.27471124   179.65136404
 C     28  27  24     2.603742051535   112.84692251   181.06134776
 C     31  30  27     2.646614592954   115.84493484   178.45100160
 C     33  31  30     2.599788559832   132.04518256   183.82271063
 C     34  33  31     2.746221859563   123.14249889   178.55848180
 C     35  34  33     2.763173663851   107.72730236   185.23129477
 C     36  35  34     2.652073463515   108.63383813   357.90019062
 C     34  33  31     2.789134629620   128.69795134     1.67569167
 C     36  35  34     2.617949070005   131.82062900   177.95634117
 C     39  36  35     2.628372617892   118.66367519   179.73820403
 C     40  39  36     2.643268597698   121.30831397   359.86110098
 C     37  36  35     2.606891813828   122.07560842   180.45580372
 Cl    41  40  39     3.245320691760   120.04308150   180.20396266
 Cl    40  39  36     3.246013868657   118.92627467   179.83792373
 O     38  34  33     2.296418188820   129.38769774   355.29929105
 C     35  34  33     2.592046716598   127.87085162     6.43739131
 C     46  35  34     2.667819889864   123.99952903   180.33133028
 C     46  35  34     2.666924198597   126.82936303     1.19865552
 C     29  28  27     2.905244906216   111.77488463   239.93619393
 C     29  28  27     2.919896415858   111.98895091   113.59427764
 C     50  29  28     2.877236763663   115.08601309    66.14591486
 C     49  29  28     2.880614481411   112.73338520    60.02974051
 C     16  13  12     2.902440951549   112.51212707    56.29788128
 C     16  13  12     2.922938283869   111.33674349   289.78726246
 C     54  16  13     2.876471376193   114.94733558    59.23795516
 C     53  16  13     2.880619545534   112.63048347    58.30506063
 O      7   5   4     2.284972416157   127.93824120   356.15213912
 Cl     2   1   3     3.244650351089   119.03320779   180.02618854
 Cl     3   2   1     3.245308573544   119.93665296   179.50150385
 C      9   8   7     2.591744276267   126.07403422   152.85657065
 C     60   9   8     2.662233242645   123.91232516   185.22504312
 C     60   9   8     2.664854694689   123.05174941     0.30360599
 N     62  60   9     2.169812221916   177.01047785   238.29999041
 N     61  60   9     2.169004563718   177.22763943   200.35517657
 N     47  46  35     2.169269681483   175.85944287   177.49540427
 N     48  46  35     2.171465786406   174.49453267   172.63052085
 H      1   2   3     2.037177868948   119.46490778   179.85626732
 H      4   3   2     2.038064489713   120.93012335   179.94737003
 H     10   8   7     2.052313235534   115.35741626   342.48799830
 H     12  11  10     2.031202922571   121.64813267   357.91185530
 H     19  17  16     2.031978326038   125.52842574     2.68870724
 H     26  25  24     2.032055730593   125.56401332   179.68204758
 H     32  28  27     2.029571025598   125.92883730   178.19333531
 H     33  31  30     2.047340551842   112.61796678     2.14456760
 H     39  36  35     2.035688827676   122.36585517   359.53819112
 H     42  37  36     2.038095581726   120.65794114   179.77313609
 H     49  29  28     2.059581677685   108.49080100   299.26516244
 H     49  29  28     2.063059682825   108.58805376   181.60253474
 H     50  29  28     2.065604487748   107.87649426   304.21219118
 H     50  29  28     2.064041270648   107.67472566   188.32628616
 H     51  50  29     2.051782927338   111.20833095   300.61451820
 H     51  50  29     2.055263610122   109.15612294   181.38756295
 H     51  50  29     2.052470363798   111.40182299    62.20959382
 H     52  49  29     2.055491256886   110.71930281   301.10585737
 H     52  49  29     2.054361290154   109.93333996   181.50762541
 H     52  49  29     2.055662386239   111.04598171    61.64764663
 H     53  16  13     2.060248226779   108.79821207   297.22391160
 H     53  16  13     2.062921597447   108.54513661   179.71908390
 H     54  16  13     2.064233275714   107.98785718   297.97146692
 H     54  16  13     2.063733427450   107.60267915   181.78479442
 H     55  54  16     2.052676420270   110.65038210   294.89902467
 H     55  54  16     2.054742821347   109.16405857   176.18917629
 H     55  54  16     2.053600709848   111.63033993    56.78931080
 H     56  53  16     2.055534905775   110.76386968   300.46763294
 H     56  53  16     2.054332271545   110.02588221   180.68156906
 H     56  53  16     2.055425396550   110.87093562    60.85112048

---------------------
BASIS SET INFORMATION
---------------------
There are 6 groups of distinct atoms

 Group   1 Type C   : 7s4p1d contracted to 3s2p1d pattern {511/31/1}
 Group   2 Type S   : 10s7p1d contracted to 4s3p1d pattern {5311/511/1}
 Group   3 Type Cl  : 10s7p1d contracted to 4s3p1d pattern {5311/511/1}
 Group   4 Type O   : 7s4p1d contracted to 3s2p1d pattern {511/31/1}
 Group   5 Type N   : 7s4p1d contracted to 3s2p1d pattern {511/31/1}
 Group   6 Type H   : 4s1p contracted to 2s1p pattern {31/1}

Atom   0C    basis set group =>   1
Atom   1C    basis set group =>   1
Atom   2C    basis set group =>   1
Atom   3C    basis set group =>   1
Atom   4C    basis set group =>   1
Atom   5C    basis set group =>   1
Atom   6C    basis set group =>   1
Atom   7C    basis set group =>   1
Atom   8C    basis set group =>   1
Atom   9C    basis set group =>   1
Atom  10C    basis set group =>   1
Atom  11C    basis set group =>   1
Atom  12C    basis set group =>   1
Atom  13C    basis set group =>   1
Atom  14S    basis set group =>   2
Atom  15C    basis set group =>   1
Atom  16C    basis set group =>   1
Atom  17C    basis set group =>   1
Atom  18C    basis set group =>   1
Atom  19C    basis set group =>   1
Atom  20S    basis set group =>   2
Atom  21C    basis set group =>   1
Atom  22S    basis set group =>   2
Atom  23C    basis set group =>   1
Atom  24C    basis set group =>   1
Atom  25C    basis set group =>   1
Atom  26C    basis set group =>   1
Atom  27C    basis set group =>   1
Atom  28C    basis set group =>   1
Atom  29S    basis set group =>   2
Atom  30C    basis set group =>   1
Atom  31C    basis set group =>   1
Atom  32C    basis set group =>   1
Atom  33C    basis set group =>   1
Atom  34C    basis set group =>   1
Atom  35C    basis set group =>   1
Atom  36C    basis set group =>   1
Atom  37C    basis set group =>   1
Atom  38C    basis set group =>   1
Atom  39C    basis set group =>   1
Atom  40C    basis set group =>   1
Atom  41C    basis set group =>   1
Atom  42Cl   basis set group =>   3
Atom  43Cl   basis set group =>   3
Atom  44O    basis set group =>   4
Atom  45C    basis set group =>   1
Atom  46C    basis set group =>   1
Atom  47C    basis set group =>   1
Atom  48C    basis set group =>   1
Atom  49C    basis set group =>   1
Atom  50C    basis set group =>   1
Atom  51C    basis set group =>   1
Atom  52C    basis set group =>   1
Atom  53C    basis set group =>   1
Atom  54C    basis set group =>   1
Atom  55C    basis set group =>   1
Atom  56O    basis set group =>   4
Atom  57Cl   basis set group =>   3
Atom  58Cl   basis set group =>   3
Atom  59C    basis set group =>   1
Atom  60C    basis set group =>   1
Atom  61C    basis set group =>   1
Atom  62N    basis set group =>   5
Atom  63N    basis set group =>   5
Atom  64N    basis set group =>   5
Atom  65N    basis set group =>   5
Atom  66H    basis set group =>   6
Atom  67H    basis set group =>   6
Atom  68H    basis set group =>   6
Atom  69H    basis set group =>   6
Atom  70H    basis set group =>   6
Atom  71H    basis set group =>   6
Atom  72H    basis set group =>   6
Atom  73H    basis set group =>   6
Atom  74H    basis set group =>   6
Atom  75H    basis set group =>   6
Atom  76H    basis set group =>   6
Atom  77H    basis set group =>   6
Atom  78H    basis set group =>   6
Atom  79H    basis set group =>   6
Atom  80H    basis set group =>   6
Atom  81H    basis set group =>   6
Atom  82H    basis set group =>   6
Atom  83H    basis set group =>   6
Atom  84H    basis set group =>   6
Atom  85H    basis set group =>   6
Atom  86H    basis set group =>   6
Atom  87H    basis set group =>   6
Atom  88H    basis set group =>   6
Atom  89H    basis set group =>   6
Atom  90H    basis set group =>   6
Atom  91H    basis set group =>   6
Atom  92H    basis set group =>   6
Atom  93H    basis set group =>   6
Atom  94H    basis set group =>   6
Atom  95H    basis set group =>   6
------------------------------------------------------------------------------
                           ORCA GTO INTEGRAL CALCULATION
------------------------------------------------------------------------------

                         BASIS SET STATISTICS AND STARTUP INFO

 # of primitive gaussian shells          ...  990
 # of primitive gaussian functions       ... 1890
 # of contracted shells                  ...  502
 # of contracted basis functions         ... 1106
 Highest angular momentum                ...    2
 Maximum contraction depth               ...    5
 Integral package used                   ... LIBINT
 Integral threshhold            Thresh   ...  2.500e-11
 Primitive cut-off              TCut     ...  2.500e-12


------------------------------ INTEGRAL EVALUATION ----------------------------


 * One electron integrals 
 Pre-screening matrix                    ... done
 Shell pair data                         ... done (   0.018 sec)

-------------------------------------------------------------------------------
                                 ORCA SCF
-------------------------------------------------------------------------------

------------
SCF SETTINGS
------------
Hamiltonian:
 Ab initio Hamiltonian  Method          .... Hartree-Fock(GTOs)


General Settings:
 Integral files         IntName         .... CPDT-4Cl
 Hartree-Fock type      HFTyp           .... RHF
 Total Charge           Charge          ....    0
 Multiplicity           Mult            ....    1
 Number of Electrons    NEL             ....  518
 Basis Dimension        Dim             .... 1106
 Nuclear Repulsion      ENuc            ....  10148.7658387966 Eh

Convergence Acceleration:
 DIIS                   CNVDIIS         .... on
   Start iteration      DIISMaxIt       ....    12
   Startup error        DIISStart       ....  0.200000
   # of expansion vecs  DIISMaxEq       ....     5
   Bias factor          DIISBfac        ....   1.050
   Max. coefficient     DIISMaxC        ....  10.000
 Newton-Raphson         CNVNR           .... off
 SOSCF                  CNVSOSCF        .... on
   Start iteration      SOSCFMaxIt      ....   150
   Startup grad/error   SOSCFStart      ....  0.003300
 Level Shifting         CNVShift        .... on
   Level shift para.    LevelShift      ....    0.2500
   Turn off err/grad.   ShiftErr        ....    0.0010
 Zerner damping         CNVZerner       .... off
 Static damping         CNVDamp         .... on
   Fraction old density DampFac         ....    0.7000
   Max. Damping (<1)    DampMax         ....    0.9800
   Min. Damping (>=0)   DampMin         ....    0.0000
   Turn off err/grad.   DampErr         ....    0.1000
 Fernandez-Rico         CNVRico         .... off

SCF Procedure:
 Maximum # iterations   MaxIter         ....   125
 SCF integral mode      SCFMode         .... Direct
   Integral package                     .... LIBINT
 Reset frequency        DirectResetFreq ....    20
 Integral Threshold     Thresh          ....  2.500e-11 Eh
 Primitive CutOff       TCut            ....  2.500e-12 Eh

Convergence Tolerance:
 Convergence Check Mode ConvCheckMode   .... Total+1el-Energy
 Convergence forced     ConvForced      .... 1
 Energy Change          TolE            ....  1.000e-08 Eh
 1-El. energy change                    ....  1.000e-05 Eh
 Orbital Gradient       TolG            ....  1.000e-05
 Orbital Rotation angle TolX            ....  1.000e-05
 DIIS Error             TolErr          ....  5.000e-07


Diagonalization of the overlap matrix:
Smallest eigenvalue                        ... 1.959e-04
Time for diagonalization                   ...    0.324 sec
Threshold for overlap eigenvalues          ... 1.000e-08
Number of eigenvalues below threshold      ... 0
Time for construction of square roots      ...    0.145 sec
Total time needed                          ...    0.476 sec

-------------------
DFT GRID GENERATION
-------------------

General Integration Accuracy     IntAcc      ...  4.340
Radial Grid Type                 RadialGrid  ... Gauss-Chebyshev
Angular Grid (max. acc.)         AngularGrid ... Lebedev-110
Angular grid pruning method      GridPruning ... 3 (G Style)
Weight generation scheme         WeightScheme... Becke
Basis function cutoff            BFCut       ...    1.0000e-11
Integration weight cutoff        WCut        ...    1.0000e-14
Grids for H and He will be reduced by one unit

# of grid points (after initial pruning)     ... 134772 (   0.2 sec)
# of grid points (after weights+screening)   ... 118271 (   5.1 sec)
nearest neighbour list constructed           ...    0.0 sec
Grid point re-assignment to atoms done       ...    0.0 sec
Grid point division into batches done        ...    0.1 sec
Reduced shell lists constructed in    2.2 sec

Total number of grid points                  ...   118271
Total number of batches                      ...     1893
Average number of points per batch           ...       62
Average number of grid points per atom       ...     1232
Average number of shells per batch           ...   104.46 (20.81%)
Average number of basis functions per batch  ...   217.59 (19.67%)
Average number of large shells per batch     ...    64.93 (62.16%)
Average number of large basis fcns per batch ...   136.29 (62.64%)
Maximum spatial batch extension              ...  20.01, 21.31, 23.17 au
Average spatial batch extension              ...   3.36,  3.30,  3.61 au

Time for grid setup =    7.482 sec

------------------------------
INITIAL GUESS: MODEL POTENTIAL
------------------------------
Loading Hartree-Fock densities                     ... done
Calculating cut-offs                               ... done
Setting up the integral package                    ... done
Initializing the effective Hamiltonian             ... done
Starting the Coulomb interaction                   ... done (   8.5 sec)
Reading the grid                                   ... done
Mapping shells                                     ... done
Starting the XC term evaluation                    ... done (   2.0 sec)
Transforming the Hamiltonian                       ... done (   0.1 sec)
Diagonalizing the Hamiltonian                      ... done (   0.3 sec)
Back transforming the eigenvectors                 ... done (   0.0 sec)
Now organizing SCF variables                       ... done
                      ------------------
                      INITIAL GUESS DONE (  18.7 sec)
                      ------------------
--------------
SCF ITERATIONS
--------------
ITER       Energy         Delta-E        Max-DP      RMS-DP      [F,P]     Damp
               ***  Starting incremental Fock matrix formation  ***
  0  -5776.9882712787   0.000000000000 0.15947304  0.00147765  0.2277055 0.7000
  1  -5777.7615301933  -0.773258914596 0.10724258  0.00113203  0.1380657 0.7000
                               ***Turning on DIIS***
  2  -5778.2186121553  -0.457081962011 0.20588488  0.00260459  0.0785095 0.0000
  3  -5775.4093643864   2.809247768822 0.07125132  0.00066551  0.0503228 0.0000
  4  -5779.3810599909  -3.971695604421 0.01411846  0.00024084  0.0154182 0.0000
  5  -5779.3613787316   0.019681259271 0.00841665  0.00012079  0.0092434 0.0000
  6  -5779.1420752403   0.219303491267 0.00499150  0.00007370  0.0028254 0.0000
  7  -5779.2088266897  -0.066751449394 0.00314393  0.00004644  0.0017388 0.0000
  8  -5779.1957090183   0.013117671437 0.00259616  0.00003506  0.0011055 0.0000
                      *** Initiating the SOSCF procedure ***
                           *** Shutting down DIIS ***
                      *** Re-Reading the Fockian *** 
                      *** Removing any level shift *** 
ITER      Energy       Delta-E        Grad      Rot      Max-DP    RMS-DP
  9  -5779.19003894   0.0056700766  0.002436  0.002436  0.002382  0.000035
               *** Restarting incremental Fock matrix formation ***
 10  -5779.20308697  -0.0130480314  0.000424  0.001755  0.001373  0.000009
 11  -5779.20309980  -0.0000128254  0.000297  0.003218  0.001101  0.000013
 12  -5779.20310947  -0.0000096675  0.000104  0.000512  0.000214  0.000003
 13  -5779.20311061  -0.0000011459  0.000053  0.000471  0.000176  0.000002
 14  -5779.20311121  -0.0000006023  0.000037  0.000459  0.000146  0.000002
 15  -5779.20311143  -0.0000002154  0.000020  0.000259  0.000067  0.000001
 16  -5779.20311149  -0.0000000572  0.000011  0.000088  0.000037  0.000000
 17  -5779.20311151  -0.0000000202  0.000003  0.000027  0.000012  0.000000
 18  -5779.20311149   0.0000000126  0.000003  0.000015  0.000006  0.000000
                  ***Gradient check signals convergence***
              ***Rediagonalizing the Fockian in SOSCF/NRSCF***

               *****************************************************
               *                     SUCCESS                       *
               *           SCF CONVERGED AFTER  19 CYCLES          *
               *****************************************************


----------------
TOTAL SCF ENERGY
----------------

Total Energy       :        -5779.20311150 Eh         -157260.11161 eV

Components:
Nuclear Repulsion  :        10148.76583880 Eh          276161.95828 eV
Electronic Energy  :       -15927.96895030 Eh         -433422.06989 eV
One Electron Energy:       -28155.17297442 Eh         -766141.20650 eV
Two Electron Energy:        12227.20402412 Eh          332719.13661 eV

Virial components:
Potential Energy   :       -11549.20163189 Eh         -314269.75357 eV
Kinetic Energy     :         5769.99852039 Eh          157009.64196 eV
Virial Ratio       :            2.00159525


---------------
SCF CONVERGENCE
---------------

  Last Energy change         ...   -5.3533e-09  Tolerance :   1.0000e-08
  Last MAX-Density change    ...    5.3709e-06  Tolerance :   1.0000e-07
  Last RMS-Density change    ...    6.6558e-08  Tolerance :   5.0000e-09
  Last Orbital Gradient      ...    1.0112e-06  Tolerance :   1.0000e-05
  Last Orbital Rotation      ...    1.1258e-05  Tolerance :   1.0000e-05

             **** THE GBW FILE WAS UPDATED (CPDT-4Cl.gbw) ****
             **** DENSITY FILE WAS UPDATED (CPDT-4Cl.scfp) ****
             **** ENERGY FILE WAS UPDATED (CPDT-4Cl.en.tmp) ****
             **** THE GBW FILE WAS UPDATED (CPDT-4Cl.gbw) ****
             **** DENSITY FILE WAS UPDATED (CPDT-4Cl.scfp) ****
----------------
ORBITAL ENERGIES
----------------

  NO   OCC          E(Eh)            E(eV) 
   0   2.0000    -104.823202     -2852.3844 
   1   2.0000    -104.822318     -2852.3603 
   2   2.0000    -104.821502     -2852.3381 
   3   2.0000    -104.818657     -2852.2607 
   4   2.0000     -91.991373     -2503.2125 
   5   2.0000     -91.991291     -2503.2103 
   6   2.0000     -91.988753     -2503.1412 
   7   2.0000     -91.987853     -2503.1167 
   8   2.0000     -20.568972      -559.7102 
   9   2.0000     -20.566154      -559.6335 
  10   2.0000     -15.591341      -424.2620 
  11   2.0000     -15.589174      -424.2030 
  12   2.0000     -15.588861      -424.1945 
  13   2.0000     -15.583524      -424.0492 
  14   2.0000     -11.367612      -309.3285 
  15   2.0000     -11.365017      -309.2578 
  16   2.0000     -11.345633      -308.7304 
  17   2.0000     -11.344275      -308.6934 
  18   2.0000     -11.342529      -308.6459 
  19   2.0000     -11.342358      -308.6413 
  20   2.0000     -11.341052      -308.6057 
  21   2.0000     -11.339125      -308.5533 
  22   2.0000     -11.322953      -308.1132 
  23   2.0000     -11.321772      -308.0811 
  24   2.0000     -11.321289      -308.0679 
  25   2.0000     -11.321037      -308.0611 
  26   2.0000     -11.319811      -308.0277 
  27   2.0000     -11.317857      -307.9745 
  28   2.0000     -11.317465      -307.9639 
  29   2.0000     -11.315379      -307.9071 
  30   2.0000     -11.302247      -307.5498 
  31   2.0000     -11.301335      -307.5250 
  32   2.0000     -11.301332      -307.5249 
  33   2.0000     -11.300204      -307.4942 
  34   2.0000     -11.300006      -307.4888 
  35   2.0000     -11.299336      -307.4706 
  36   2.0000     -11.299082      -307.4637 
  37   2.0000     -11.297577      -307.4227 
  38   2.0000     -11.295347      -307.3620 
  39   2.0000     -11.295317      -307.3612 
  40   2.0000     -11.295229      -307.3588 
  41   2.0000     -11.295194      -307.3579 
  42   2.0000     -11.293540      -307.3129 
  43   2.0000     -11.292039      -307.2720 
  44   2.0000     -11.291276      -307.2512 
  45   2.0000     -11.287044      -307.1361 
  46   2.0000     -11.283070      -307.0279 
  47   2.0000     -11.281912      -306.9964 
  48   2.0000     -11.281640      -306.9890 
  49   2.0000     -11.281000      -306.9716 
  50   2.0000     -11.279495      -306.9307 
  51   2.0000     -11.279455      -306.9296 
  52   2.0000     -11.279040      -306.9183 
  53   2.0000     -11.278015      -306.8904 
  54   2.0000     -11.274205      -306.7867 
  55   2.0000     -11.272070      -306.7286 
  56   2.0000     -11.267509      -306.6045 
  57   2.0000     -11.265284      -306.5440 
  58   2.0000     -11.255298      -306.2722 
  59   2.0000     -11.253147      -306.2137 
  60   2.0000     -11.252910      -306.2073 
  61   2.0000     -11.251427      -306.1669 
  62   2.0000     -11.236063      -305.7488 
  63   2.0000     -11.234450      -305.7049 
  64   2.0000     -11.234374      -305.7029 
  65   2.0000     -11.233842      -305.6884 
  66   2.0000     -10.586992      -288.0867 
  67   2.0000     -10.586132      -288.0633 
  68   2.0000     -10.585287      -288.0403 
  69   2.0000     -10.582457      -287.9633 
  70   2.0000      -9.026529      -245.6243 
  71   2.0000      -9.026387      -245.6205 
  72   2.0000      -9.023964      -245.5546 
  73   2.0000      -9.023203      -245.5338 
  74   2.0000      -8.062096      -219.3808 
  75   2.0000      -8.061234      -219.3573 
  76   2.0000      -8.060392      -219.3344 
  77   2.0000      -8.058311      -219.2778 
  78   2.0000      -8.058301      -219.2775 
  79   2.0000      -8.057559      -219.2573 
  80   2.0000      -8.057440      -219.2541 
  81   2.0000      -8.057426      -219.2537 
  82   2.0000      -8.056609      -219.2315 
  83   2.0000      -8.056604      -219.2313 
  84   2.0000      -8.053770      -219.1542 
  85   2.0000      -8.053755      -219.1538 
  86   2.0000      -6.714044      -182.6984 
  87   2.0000      -6.713906      -182.6947 
  88   2.0000      -6.713113      -182.6731 
  89   2.0000      -6.712976      -182.6694 
  90   2.0000      -6.711474      -182.6285 
  91   2.0000      -6.711128      -182.6191 
  92   2.0000      -6.711000      -182.6156 
  93   2.0000      -6.710642      -182.6058 
  94   2.0000      -6.710422      -182.5999 
  95   2.0000      -6.709554      -182.5762 
  96   2.0000      -6.708565      -182.5493 
  97   2.0000      -6.707769      -182.5277 
  98   2.0000      -1.401081       -38.1254 
  99   2.0000      -1.398683       -38.0601 
 100   2.0000      -1.259222       -34.2652 
 101   2.0000      -1.256417       -34.1889 
 102   2.0000      -1.254408       -34.1342 
 103   2.0000      -1.251124       -34.0448 
 104   2.0000      -1.243423       -33.8353 
 105   2.0000      -1.241362       -33.7792 
 106   2.0000      -1.226844       -33.3841 
 107   2.0000      -1.222856       -33.2756 
 108   2.0000      -1.214021       -33.0352 
 109   2.0000      -1.209872       -32.9223 
 110   2.0000      -1.206027       -32.8177 
 111   2.0000      -1.192388       -32.4465 
 112   2.0000      -1.161599       -31.6087 
 113   2.0000      -1.158690       -31.5296 
 114   2.0000      -1.156170       -31.4610 
 115   2.0000      -1.141722       -31.0678 
 116   2.0000      -1.133607       -30.8470 
 117   2.0000      -1.130636       -30.7662 
 118   2.0000      -1.106607       -30.1123 
 119   2.0000      -1.102747       -30.0073 
 120   2.0000      -1.088049       -29.6073 
 121   2.0000      -1.075832       -29.2749 
 122   2.0000      -1.057283       -28.7701 
 123   2.0000      -1.052566       -28.6418 
 124   2.0000      -1.049005       -28.5449 
 125   2.0000      -1.041583       -28.3429 
 126   2.0000      -1.035813       -28.1859 
 127   2.0000      -1.035155       -28.1680 
 128   2.0000      -1.033413       -28.1206 
 129   2.0000      -1.027791       -27.9676 
 130   2.0000      -1.024859       -27.8878 
 131   2.0000      -1.017955       -27.7000 
 132   2.0000      -0.997581       -27.1456 
 133   2.0000      -0.973996       -26.5038 
 134   2.0000      -0.953680       -25.9510 
 135   2.0000      -0.939377       -25.5618 
 136   2.0000      -0.935290       -25.4505 
 137   2.0000      -0.931798       -25.3555 
 138   2.0000      -0.928736       -25.2722 
 139   2.0000      -0.912787       -24.8382 
 140   2.0000      -0.887916       -24.1614 
 141   2.0000      -0.868847       -23.6425 
 142   2.0000      -0.856899       -23.3174 
 143   2.0000      -0.856618       -23.3098 
 144   2.0000      -0.850769       -23.1506 
 145   2.0000      -0.841852       -22.9080 
 146   2.0000      -0.838133       -22.8068 
 147   2.0000      -0.833230       -22.6733 
 148   2.0000      -0.829551       -22.5732 
 149   2.0000      -0.820110       -22.3163 
 150   2.0000      -0.812343       -22.1050 
 151   2.0000      -0.790548       -21.5119 
 152   2.0000      -0.780633       -21.2421 
 153   2.0000      -0.774549       -21.0765 
 154   2.0000      -0.770157       -20.9571 
 155   2.0000      -0.762021       -20.7356 
 156   2.0000      -0.757801       -20.6208 
 157   2.0000      -0.754504       -20.5311 
 158   2.0000      -0.748700       -20.3732 
 159   2.0000      -0.744028       -20.2460 
 160   2.0000      -0.734306       -19.9815 
 161   2.0000      -0.723437       -19.6857 
 162   2.0000      -0.714494       -19.4424 
 163   2.0000      -0.704187       -19.1619 
 164   2.0000      -0.698085       -18.9959 
 165   2.0000      -0.689658       -18.7665 
 166   2.0000      -0.684584       -18.6285 
 167   2.0000      -0.675573       -18.3833 
 168   2.0000      -0.674583       -18.3563 
 169   2.0000      -0.666084       -18.1251 
 170   2.0000      -0.664553       -18.0834 
 171   2.0000      -0.658021       -17.9057 
 172   2.0000      -0.655775       -17.8445 
 173   2.0000      -0.652840       -17.7647 
 174   2.0000      -0.651632       -17.7318 
 175   2.0000      -0.650499       -17.7010 
 176   2.0000      -0.645194       -17.5566 
 177   2.0000      -0.643371       -17.5070 
 178   2.0000      -0.636908       -17.3311 
 179   2.0000      -0.634700       -17.2711 
 180   2.0000      -0.631474       -17.1833 
 181   2.0000      -0.629513       -17.1299 
 182   2.0000      -0.628594       -17.1049 
 183   2.0000      -0.625183       -17.0121 
 184   2.0000      -0.621240       -16.9048 
 185   2.0000      -0.615732       -16.7549 
 186   2.0000      -0.611467       -16.6389 
 187   2.0000      -0.602031       -16.3821 
 188   2.0000      -0.601068       -16.3559 
 189   2.0000      -0.595319       -16.1995 
 190   2.0000      -0.591909       -16.1067 
 191   2.0000      -0.587670       -15.9913 
 192   2.0000      -0.587099       -15.9758 
 193   2.0000      -0.581187       -15.8149 
 194   2.0000      -0.580408       -15.7937 
 195   2.0000      -0.578242       -15.7348 
 196   2.0000      -0.577711       -15.7203 
 197   2.0000      -0.575582       -15.6624 
 198   2.0000      -0.574951       -15.6452 
 199   2.0000      -0.574015       -15.6197 
 200   2.0000      -0.572981       -15.5916 
 201   2.0000      -0.572050       -15.5663 
 202   2.0000      -0.570304       -15.5188 
 203   2.0000      -0.568600       -15.4724 
 204   2.0000      -0.566608       -15.4182 
 205   2.0000      -0.563895       -15.3444 
 206   2.0000      -0.561742       -15.2858 
 207   2.0000      -0.558902       -15.2085 
 208   2.0000      -0.556975       -15.1561 
 209   2.0000      -0.550747       -14.9866 
 210   2.0000      -0.547712       -14.9040 
 211   2.0000      -0.544426       -14.8146 
 212   2.0000      -0.542076       -14.7506 
 213   2.0000      -0.533758       -14.5243 
 214   2.0000      -0.531618       -14.4661 
 215   2.0000      -0.531453       -14.4616 
 216   2.0000      -0.520139       -14.1537 
 217   2.0000      -0.517719       -14.0878 
 218   2.0000      -0.513876       -13.9833 
 219   2.0000      -0.511615       -13.9218 
 220   2.0000      -0.511164       -13.9095 
 221   2.0000      -0.509451       -13.8629 
 222   2.0000      -0.509295       -13.8586 
 223   2.0000      -0.504566       -13.7299 
 224   2.0000      -0.501793       -13.6545 
 225   2.0000      -0.501366       -13.6428 
 226   2.0000      -0.499563       -13.5938 
 227   2.0000      -0.498747       -13.5716 
 228   2.0000      -0.495683       -13.4882 
 229   2.0000      -0.494819       -13.4647 
 230   2.0000      -0.492092       -13.3905 
 231   2.0000      -0.491984       -13.3876 
 232   2.0000      -0.489326       -13.3152 
 233   2.0000      -0.488083       -13.2814 
 234   2.0000      -0.486497       -13.2383 
 235   2.0000      -0.479971       -13.0607 
 236   2.0000      -0.478947       -13.0328 
 237   2.0000      -0.478567       -13.0225 
 238   2.0000      -0.472898       -12.8682 
 239   2.0000      -0.470588       -12.8053 
 240   2.0000      -0.464224       -12.6322 
 241   2.0000      -0.461933       -12.5698 
 242   2.0000      -0.461384       -12.5549 
 243   2.0000      -0.450012       -12.2454 
 244   2.0000      -0.445630       -12.1262 
 245   2.0000      -0.437992       -11.9184 
 246   2.0000      -0.416101       -11.3227 
 247   2.0000      -0.394504       -10.7350 
 248   2.0000      -0.391696       -10.6586 
 249   2.0000      -0.384497       -10.4627 
 250   2.0000      -0.382285       -10.4025 
 251   2.0000      -0.380463       -10.3529 
 252   2.0000      -0.378355       -10.2956 
 253   2.0000      -0.374808       -10.1991 
 254   2.0000      -0.355895        -9.6844 
 255   2.0000      -0.349128        -9.5003 
 256   2.0000      -0.343240        -9.3400 
 257   2.0000      -0.301179        -8.1955 
 258   2.0000      -0.258822        -7.0429 
 259   0.0000      -0.039606        -1.0777 
 260   0.0000      -0.017284        -0.4703 
 261   0.0000       0.008458         0.2301 
 262   0.0000       0.016332         0.4444 
 263   0.0000       0.037014         1.0072 
 264   0.0000       0.066484         1.8091 
 265   0.0000       0.088527         2.4090 
 266   0.0000       0.106614         2.9011 
 267   0.0000       0.126606         3.4451 
 268   0.0000       0.138325         3.7640 
 269   0.0000       0.140271         3.8170 
 270   0.0000       0.144985         3.9452 
 271   0.0000       0.145650         3.9633 
 272   0.0000       0.150321         4.0904 
 273   0.0000       0.151615         4.1257 
 274   0.0000       0.153283         4.1710 
 275   0.0000       0.157351         4.2818 
 276   0.0000       0.162382         4.4186 
 277   0.0000       0.165221         4.4959 
 278   0.0000       0.170327         4.6348 
 279   0.0000       0.171822         4.6755 
 280   0.0000       0.173395         4.7183 
 281   0.0000       0.176044         4.7904 
 282   0.0000       0.187101         5.0913 
 283   0.0000       0.188741         5.1359 
 284   0.0000       0.189060         5.1446 
 285   0.0000       0.192463         5.2372 
 286   0.0000       0.193321         5.2605 
 287   0.0000       0.203483         5.5371 
 288   0.0000       0.203756         5.5445 
 289   0.0000       0.206402         5.6165 
 290   0.0000       0.211796         5.7633 
 291   0.0000       0.215309         5.8589 
 292   0.0000       0.216307         5.8860 
 293   0.0000       0.219079         5.9614 
 294   0.0000       0.221178         6.0186 
 295   0.0000       0.225341         6.1318 
 296   0.0000       0.225622         6.1395 
 297   0.0000       0.231694         6.3047 
 298   0.0000       0.235774         6.4157 
 299   0.0000       0.236704         6.4410 
 300   0.0000       0.239264         6.5107 
 301   0.0000       0.243493         6.6258 
 302   0.0000       0.247778         6.7424 
 303   0.0000       0.248988         6.7753 
 304   0.0000       0.249439         6.7876 
 305   0.0000       0.250006         6.8030 
 306   0.0000       0.252195         6.8626 
 307   0.0000       0.257590         7.0094 
 308   0.0000       0.259832         7.0704 
 309   0.0000       0.261487         7.1154 
 310   0.0000       0.262937         7.1549 
 311   0.0000       0.265547         7.2259 
 312   0.0000       0.266937         7.2637 
 313   0.0000       0.269374         7.3300 
 314   0.0000       0.273003         7.4288 
 315   0.0000       0.274450         7.4682 
 316   0.0000       0.281414         7.6577 
 317   0.0000       0.282937         7.6991 
 318   0.0000       0.284768         7.7489 
 319   0.0000       0.288620         7.8538 
 320   0.0000       0.289057         7.8656 
 321   0.0000       0.290212         7.8971 
 322   0.0000       0.299195         8.1415 
 323   0.0000       0.310259         8.4426 
 324   0.0000       0.319018         8.6809 
 325   0.0000       0.320152         8.7118 
 326   0.0000       0.324453         8.8288 
 327   0.0000       0.329504         8.9663 
 328   0.0000       0.332683         9.0528 
 329   0.0000       0.337639         9.1876 
 330   0.0000       0.338854         9.2207 
 331   0.0000       0.340992         9.2789 
 332   0.0000       0.344662         9.3787 
 333   0.0000       0.348001         9.4696 
 334   0.0000       0.349920         9.5218 
 335   0.0000       0.352992         9.6054 
 336   0.0000       0.355910         9.6848 
 337   0.0000       0.358089         9.7441 
 338   0.0000       0.363286         9.8855 
 339   0.0000       0.369877        10.0649 
 340   0.0000       0.373430        10.1616 
 341   0.0000       0.373942        10.1755 
 342   0.0000       0.376918        10.2565 
 343   0.0000       0.379941        10.3387 
 344   0.0000       0.381535        10.3821 
 345   0.0000       0.385785        10.4977 
 346   0.0000       0.389617        10.6020 
 347   0.0000       0.395567        10.7639 
 348   0.0000       0.398666        10.8483 
 349   0.0000       0.401081        10.9140 
 350   0.0000       0.405451        11.0329 
 351   0.0000       0.406227        11.0540 
 352   0.0000       0.409472        11.1423 
 353   0.0000       0.411582        11.1997 
 354   0.0000       0.413207        11.2439 
 355   0.0000       0.414318        11.2742 
 356   0.0000       0.416086        11.3223 
 357   0.0000       0.419360        11.4114 
 358   0.0000       0.422140        11.4870 
 359   0.0000       0.426301        11.6002 
 360   0.0000       0.430273        11.7083 
 361   0.0000       0.437443        11.9034 
 362   0.0000       0.440126        11.9765 
 363   0.0000       0.442090        12.0299 
 364   0.0000       0.446411        12.1475 
 365   0.0000       0.449346        12.2273 
 366   0.0000       0.451641        12.2898 
 367   0.0000       0.452626        12.3166 
 368   0.0000       0.456279        12.4160 
 369   0.0000       0.460478        12.5302 
 370   0.0000       0.462862        12.5951 
 371   0.0000       0.464881        12.6501 
 372   0.0000       0.466152        12.6846 
 373   0.0000       0.478039        13.0081 
 374   0.0000       0.479206        13.0399 
 375   0.0000       0.490583        13.3495 
 376   0.0000       0.491690        13.3796 
 377   0.0000       0.492328        13.3969 
 378   0.0000       0.499639        13.5959 
 379   0.0000       0.503589        13.7033 
 380   0.0000       0.508199        13.8288 
 381   0.0000       0.509157        13.8549 
 382   0.0000       0.513487        13.9727 
 383   0.0000       0.518497        14.1090 
 384   0.0000       0.519563        14.1380 
 385   0.0000       0.522009        14.2046 
 386   0.0000       0.522674        14.2227 
 387   0.0000       0.529934        14.4202 
 388   0.0000       0.534181        14.5358 
 389   0.0000       0.537439        14.6244 
 390   0.0000       0.542333        14.7576 
 391   0.0000       0.549732        14.9590 
 392   0.0000       0.554685        15.0938 
 393   0.0000       0.565247        15.3812 
 394   0.0000       0.567564        15.4442 
 395   0.0000       0.570518        15.5246 
 396   0.0000       0.573785        15.6135 
 397   0.0000       0.582891        15.8613 
 398   0.0000       0.586556        15.9610 
 399   0.0000       0.589182        16.0325 
 400   0.0000       0.592377        16.1194 
 401   0.0000       0.595706        16.2100 
 402   0.0000       0.597069        16.2471 
 403   0.0000       0.603210        16.4142 
 404   0.0000       0.606463        16.5027 
 405   0.0000       0.607887        16.5414 
 406   0.0000       0.611208        16.6318 
 407   0.0000       0.614193        16.7130 
 408   0.0000       0.614880        16.7317 
 409   0.0000       0.619675        16.8622 
 410   0.0000       0.621984        16.9250 
 411   0.0000       0.625483        17.0203 
 412   0.0000       0.628295        17.0968 
 413   0.0000       0.629804        17.1378 
 414   0.0000       0.632530        17.2120 
 415   0.0000       0.636107        17.3094 
 416   0.0000       0.641257        17.4495 
 417   0.0000       0.641866        17.4661 
 418   0.0000       0.643690        17.5157 
 419   0.0000       0.646579        17.5943 
 420   0.0000       0.648056        17.6345 
 421   0.0000       0.648297        17.6411 
 422   0.0000       0.650907        17.7121 
 423   0.0000       0.654039        17.7973 
 424   0.0000       0.656679        17.8691 
 425   0.0000       0.659611        17.9489 
 426   0.0000       0.665872        18.1193 
 427   0.0000       0.671899        18.2833 
 428   0.0000       0.673411        18.3244 
 429   0.0000       0.674422        18.3520 
 430   0.0000       0.675509        18.3815 
 431   0.0000       0.677669        18.4403 
 432   0.0000       0.684320        18.6213 
 433   0.0000       0.688136        18.7251 
 434   0.0000       0.692732        18.8502 
 435   0.0000       0.693600        18.8738 
 436   0.0000       0.694774        18.9058 
 437   0.0000       0.697649        18.9840 
 438   0.0000       0.706458        19.2237 
 439   0.0000       0.708752        19.2861 
 440   0.0000       0.715724        19.4758 
 441   0.0000       0.719667        19.5831 
 442   0.0000       0.721181        19.6243 
 443   0.0000       0.723219        19.6798 
 444   0.0000       0.724336        19.7102 
 445   0.0000       0.727277        19.7902 
 446   0.0000       0.729003        19.8372 
 447   0.0000       0.734848        19.9962 
 448   0.0000       0.737097        20.0574 
 449   0.0000       0.738757        20.1026 
 450   0.0000       0.745408        20.2836 
 451   0.0000       0.748837        20.3769 
 452   0.0000       0.749564        20.3967 
 453   0.0000       0.753858        20.5135 
 454   0.0000       0.754055        20.5189 
 455   0.0000       0.754595        20.5336 
 456   0.0000       0.758728        20.6460 
 457   0.0000       0.759851        20.6766 
 458   0.0000       0.766061        20.8456 
 459   0.0000       0.768448        20.9105 
 460   0.0000       0.772154        21.0114 
 461   0.0000       0.774560        21.0768 
 462   0.0000       0.778995        21.1975 
 463   0.0000       0.780738        21.2449 
 464   0.0000       0.787540        21.4300 
 465   0.0000       0.789070        21.4717 
 466   0.0000       0.792152        21.5556 
 467   0.0000       0.793479        21.5917 
 468   0.0000       0.800056        21.7706 
 469   0.0000       0.802673        21.8418 
 470   0.0000       0.806591        21.9485 
 471   0.0000       0.807356        21.9693 
 472   0.0000       0.808710        22.0061 
 473   0.0000       0.811161        22.0728 
 474   0.0000       0.813350        22.1324 
 475   0.0000       0.815378        22.1876 
 476   0.0000       0.815917        22.2022 
 477   0.0000       0.821853        22.3637 
 478   0.0000       0.826622        22.4935 
 479   0.0000       0.828630        22.5482 
 480   0.0000       0.830644        22.6030 
 481   0.0000       0.832467        22.6526 
 482   0.0000       0.833699        22.6861 
 483   0.0000       0.834549        22.7092 
 484   0.0000       0.838043        22.8043 
 485   0.0000       0.840886        22.8817 
 486   0.0000       0.844440        22.9784 
 487   0.0000       0.845382        23.0040 
 488   0.0000       0.849287        23.1103 
 489   0.0000       0.850662        23.1477 
 490   0.0000       0.853229        23.2175 
 491   0.0000       0.853398        23.2222 
 492   0.0000       0.855387        23.2763 
 493   0.0000       0.856765        23.3138 
 494   0.0000       0.860876        23.4256 
 495   0.0000       0.864254        23.5176 
 496   0.0000       0.866129        23.5686 
 497   0.0000       0.869633        23.6639 
 498   0.0000       0.870326        23.6828 
 499   0.0000       0.872436        23.7402 
 500   0.0000       0.874585        23.7987 
 501   0.0000       0.877187        23.8695 
 502   0.0000       0.879277        23.9263 
 503   0.0000       0.880614        23.9627 
 504   0.0000       0.883972        24.0541 
 505   0.0000       0.884622        24.0718 
 506   0.0000       0.886582        24.1251 
 507   0.0000       0.888544        24.1785 
 508   0.0000       0.890445        24.2302 
 509   0.0000       0.891599        24.2617 
 510   0.0000       0.892458        24.2850 
 511   0.0000       0.893904        24.3244 
 512   0.0000       0.896467        24.3941 
 513   0.0000       0.899545        24.4779 
 514   0.0000       0.901047        24.5187 
 515   0.0000       0.902914        24.5695 
 516   0.0000       0.904658        24.6170 
 517   0.0000       0.905930        24.6516 
 518   0.0000       0.908498        24.7215 
 519   0.0000       0.909381        24.7455 
 520   0.0000       0.910260        24.7694 
 521   0.0000       0.912898        24.8412 
 522   0.0000       0.914995        24.8983 
 523   0.0000       0.917726        24.9726 
 524   0.0000       0.919254        25.0142 
 525   0.0000       0.920813        25.0566 
 526   0.0000       0.922167        25.0934 
 527   0.0000       0.922397        25.0997 
 528   0.0000       0.924591        25.1594 
 529   0.0000       0.926777        25.2189 
 530   0.0000       0.928782        25.2735 
 531   0.0000       0.929329        25.2883 
 532   0.0000       0.931461        25.3464 
 533   0.0000       0.933017        25.3887 
 534   0.0000       0.936789        25.4913 
 535   0.0000       0.938911        25.5491 
 536   0.0000       0.940069        25.5806 
 537   0.0000       0.940648        25.5963 
 538   0.0000       0.942784        25.6545 
 539   0.0000       0.944298        25.6957 
 540   0.0000       0.949091        25.8261 
 541   0.0000       0.949313        25.8321 
 542   0.0000       0.951880        25.9020 
 543   0.0000       0.955898        26.0113 
 544   0.0000       0.957799        26.0630 
 545   0.0000       0.958456        26.0809 
 546   0.0000       0.960416        26.1342 
 547   0.0000       0.962129        26.1809 
 548   0.0000       0.964193        26.2370 
 549   0.0000       0.964939        26.2573 
 550   0.0000       0.966634        26.3034 
 551   0.0000       0.970119        26.3983 
 552   0.0000       0.973512        26.4906 
 553   0.0000       0.975171        26.5358 
 554   0.0000       0.976758        26.5789 
 555   0.0000       0.976880        26.5823 
 556   0.0000       0.978007        26.6129 
 557   0.0000       0.979295        26.6480 
 558   0.0000       0.983405        26.7598 
 559   0.0000       0.985004        26.8033 
 560   0.0000       0.988281        26.8925 
 561   0.0000       0.990248        26.9460 
 562   0.0000       0.991247        26.9732 
 563   0.0000       0.994506        27.0619 
 564   0.0000       0.996167        27.1071 
 565   0.0000       0.997799        27.1515 
 566   0.0000       1.002142        27.2697 
 567   0.0000       1.004052        27.3216 
 568   0.0000       1.005144        27.3514 
 569   0.0000       1.008164        27.4335 
 570   0.0000       1.009743        27.4765 
 571   0.0000       1.010770        27.5044 
 572   0.0000       1.011876        27.5345 
 573   0.0000       1.014441        27.6043 
 574   0.0000       1.015413        27.6308 
 575   0.0000       1.020882        27.7796 
 576   0.0000       1.025666        27.9098 
 577   0.0000       1.026381        27.9293 
 578   0.0000       1.028643        27.9908 
 579   0.0000       1.031193        28.0602 
 580   0.0000       1.037192        28.2234 
 581   0.0000       1.038736        28.2654 
 582   0.0000       1.042559        28.3695 
 583   0.0000       1.048970        28.5439 
 584   0.0000       1.049445        28.5568 
 585   0.0000       1.054172        28.6855 
 586   0.0000       1.055717        28.7275 
 587   0.0000       1.059192        28.8221 
 588   0.0000       1.059402        28.8278 
 589   0.0000       1.062857        28.9218 
 590   0.0000       1.065179        28.9850 
 591   0.0000       1.069189        29.0941 
 592   0.0000       1.070962        29.1423 
 593   0.0000       1.081933        29.4409 
 594   0.0000       1.082602        29.4591 
 595   0.0000       1.085331        29.5334 
 596   0.0000       1.086312        29.5600 
 597   0.0000       1.088143        29.6099 
 598   0.0000       1.091159        29.6920 
 599   0.0000       1.092633        29.7321 
 600   0.0000       1.093460        29.7546 
 601   0.0000       1.095407        29.8075 
 602   0.0000       1.098331        29.8871 
 603   0.0000       1.101066        29.9615 
 604   0.0000       1.102343        29.9963 
 605   0.0000       1.105525        30.0829 
 606   0.0000       1.109021        30.1780 
 607   0.0000       1.112853        30.2823 
 608   0.0000       1.115229        30.3469 
 609   0.0000       1.120203        30.4823 
 610   0.0000       1.121553        30.5190 
 611   0.0000       1.122564        30.5465 
 612   0.0000       1.123568        30.5738 
 613   0.0000       1.126882        30.6640 
 614   0.0000       1.132365        30.8132 
 615   0.0000       1.136059        30.9137 
 616   0.0000       1.148026        31.2394 
 617   0.0000       1.150269        31.3004 
 618   0.0000       1.150420        31.3045 
 619   0.0000       1.151325        31.3292 
 620   0.0000       1.154070        31.4038 
 621   0.0000       1.155079        31.4313 
 622   0.0000       1.158012        31.5111 
 623   0.0000       1.171665        31.8826 
 624   0.0000       1.177592        32.0439 
 625   0.0000       1.182317        32.1725 
 626   0.0000       1.192355        32.4456 
 627   0.0000       1.194165        32.4949 
 628   0.0000       1.197347        32.5815 
 629   0.0000       1.205258        32.7967 
 630   0.0000       1.205528        32.8041 
 631   0.0000       1.209538        32.9132 
 632   0.0000       1.214855        33.0579 
 633   0.0000       1.217448        33.1285 
 634   0.0000       1.222164        33.2568 
 635   0.0000       1.227680        33.4069 
 636   0.0000       1.229731        33.4627 
 637   0.0000       1.232578        33.5402 
 638   0.0000       1.235928        33.6313 
 639   0.0000       1.236654        33.6511 
 640   0.0000       1.237747        33.6808 
 641   0.0000       1.245901        33.9027 
 642   0.0000       1.247055        33.9341 
 643   0.0000       1.250713        34.0336 
 644   0.0000       1.253521        34.1100 
 645   0.0000       1.261240        34.3201 
 646   0.0000       1.266401        34.4605 
 647   0.0000       1.268816        34.5262 
[...]
   Lowest Energy          :     0.109031954605
   Maximum Energy change  :     0.185936061891 (vector 2)
   Maximum residual norm  :     0.014284461787

                       ****Iteration    1****
   Time for densities:     1.108
   Using LibInt in JK Direct
   Time for J+K (Direct):  1435.801
   Time for Sigma-Completion:    15.789
   Size of expansion space: 12
   Lowest Energy          :     0.089262048937
   Maximum Energy change  :     0.029544758017 (vector 1)
   Maximum residual norm  :     0.003178155254

                       ****Iteration    2****
   Time for densities:     1.103
   Using LibInt in JK Direct
   Time for J+K (Direct):  1456.031
   Time for Sigma-Completion:    14.289
   Size of expansion space: 15
   Lowest Energy          :     0.086542317995
   Maximum Energy change  :     0.007763085082 (vector 2)
   Maximum residual norm  :     0.000440314470

                       ****Iteration    3****
   Time for densities:     1.125
   Using LibInt in JK Direct
   Time for J+K (Direct):  1445.844
   Time for Sigma-Completion:    15.794
   Size of expansion space: 18
   Lowest Energy          :     0.086317415907
   Maximum Energy change  :     0.001132800532 (vector 2)
   Maximum residual norm  :     0.000095529470

                       ****Iteration    4****
   Time for densities:     1.121
   Using LibInt in JK Direct
   Time for J+K (Direct):  1455.080
   Time for Sigma-Completion:    13.183
   Size of expansion space: 21
   Lowest Energy          :     0.086294022289
   Maximum Energy change  :     0.000191957352 (vector 2)
   Maximum residual norm  :     0.000021075827

                       ****Iteration    5****
   Time for densities:     1.111
   Using LibInt in JK Direct
   Time for J+K (Direct):  1443.900
   Time for Sigma-Completion:    15.729
   Size of expansion space: 24
   Lowest Energy          :     0.086290801750
   Maximum Energy change  :     0.000055018985 (vector 2)
   Maximum residual norm  :     0.000005796938

                       ****Iteration    6****
   Time for densities:     1.109
   Using LibInt in JK Direct
   Time for J+K (Direct):  1447.544
   Time for Sigma-Completion:    15.830
   Size of expansion space: 27
   Lowest Energy          :     0.086290276993
   Maximum Energy change  :     0.000012836833 (vector 2)
   Maximum residual norm  :     0.000001677879

                       ****Iteration    7****
   Time for densities:     1.106
   Using LibInt in JK Direct
   Time for J+K (Direct):  1419.342
   Time for Sigma-Completion:    13.801
   Size of expansion space: 30
   Lowest Energy          :     0.086290162801
   Maximum Energy change  :     0.000004553457 (vector 2)
   Maximum residual norm  :     0.000000659085
   Rebuilding the expansion space

                       ****Iteration    8****
   Time for densities:     2.207
   Using LibInt in JK Direct
   Time for J+K (Direct):  2876.659
   Time for Sigma-Completion:    31.507
   Size of expansion space: 6
   Lowest Energy          :     0.086290142898
   Maximum Energy change  :     0.000001165599 (vector 2)
   Maximum residual norm  :     0.000000209128

      *** CONVERGENCE OF RESIDUAL NORM REACHED ***

Storing the converged CI vectors               ... CPDT-4Cl.cis1

                 *** DAVIDSON DONE ***

Total time for solving the CIS problem: 17753.259sec

-----------------------------
CIS-EXCITED STATES (SINGLETS)
-----------------------------

the weight of the individual excitations are printed if larger than 1.0e-02

STATE  1:  E=   0.086290 au      2.348 eV    18938.5 cm**-1
   254a -> 263a  :     0.010540 (c=  0.10266649)
   257a -> 260a  :     0.140958 (c= -0.37544427)
   257a -> 262a  :     0.012785 (c= -0.11306923)
   258a -> 259a  :     0.722237 (c=  0.84984551)
   258a -> 261a  :     0.017522 (c= -0.13237236)
   258a -> 263a  :     0.010999 (c= -0.10487386)

STATE  2:  E=   0.113953 au      3.101 eV    25009.8 cm**-1
   254a -> 260a  :     0.017075 (c=  0.13067038)
   256a -> 260a  :     0.037485 (c=  0.19361163)
   257a -> 259a  :     0.358982 (c= -0.59915098)
   257a -> 263a  :     0.013039 (c= -0.11419057)
   257a -> 265a  :     0.010442 (c= -0.10218563)
   258a -> 260a  :     0.418055 (c=  0.64657143)
   258a -> 262a  :     0.019662 (c=  0.14022239)
   258a -> 264a  :     0.015479 (c=  0.12441370)

STATE  3:  E=   0.147759 au      4.021 eV    32429.3 cm**-1
   247a -> 260a  :     0.011410 (c= -0.10681679)
   254a -> 259a  :     0.042973 (c= -0.20729866)
   255a -> 259a  :     0.010226 (c=  0.10112206)
   256a -> 259a  :     0.109721 (c= -0.33124223)
   256a -> 261a  :     0.015474 (c= -0.12439302)
   257a -> 259a  :     0.013072 (c= -0.11433449)
   257a -> 260a  :     0.212806 (c=  0.46130873)
   257a -> 262a  :     0.017099 (c= -0.13076441)
   257a -> 266a  :     0.015707 (c=  0.12532876)
   258a -> 261a  :     0.253274 (c= -0.50326353)
   258a -> 263a  :     0.133149 (c= -0.36489539)
   258a -> 265a  :     0.026546 (c= -0.16292885)


----------------------
CIS-EXCITATION SPECTRA
----------------------

Center of mass = ( 13.8532, -7.4799, -3.9508)
Calculating the Dipole integrals                  ... done
Transforming integrals                            ... done
Calculating the Linear Momentum integrals         ... done
Transforming integrals                            ... done
Calculating angular momentum integrals            ... done
Transforming integrals                            ... done

-----------------------------------------------------------------------------
         ABSORPTION SPECTRUM VIA TRANSITION ELECTRIC DIPOLE MOMENTS
-----------------------------------------------------------------------------
State   Energy    Wavelength  fosc         T2        TX        TY        TZ  
        (cm-1)      (nm)                 (au**2)    (au)      (au)      (au) 
-----------------------------------------------------------------------------
   1   18938.5    528.0   2.574683584  44.75628  -3.80058   4.91170   2.48737
   2   25009.8    399.8   0.367751497   4.84083  -0.15921  -1.71966  -1.36317
   3   32429.3    308.4   0.183141171   1.85919   0.97081   0.92448   0.24910

-----------------------------------------------------------------------------
         ABSORPTION SPECTRUM VIA TRANSITION VELOCITY DIPOLE MOMENTS
-----------------------------------------------------------------------------
State   Energy    Wavelength   fosc        P2         PX        PY        PZ  
        (cm-1)      (nm)                 (au**2)     (au)      (au)      (au) 
-----------------------------------------------------------------------------
   1   18938.5    528.0   1.628859511   0.21083   0.25372  -0.34118  -0.17336
   2   25009.8    399.8   0.225669353   0.03857   0.00724   0.17548   0.08790
   3   32429.3    308.4   0.076837199   0.01703  -0.10456  -0.04194   0.06587

-------------------------------------------------------------------
                             CD SPECTRUM
-------------------------------------------------------------------
State  Energy     Wavelength     R         MX        MY        MZ   
       (cm-1)       (nm)     (1e40*cgs)   (au)      (au)      (au)  
-------------------------------------------------------------------
   1   18938.5    528.0     32.74191   0.15925  -0.69072   1.63519
   2   25009.8    399.8    -254.02745   0.14866  -0.33319   0.79823
   3   32429.3    308.4    259.75459   0.25475   0.31099   0.06484

Total run time:    17895.475 sec

           *** ORCA-CIS/TD-DFT FINISHED WITHOUT ERROR ***

-----------------------
CIS/TD-DFT TOTAL ENERGY
-----------------------

    E(SCF)  =  -5779.203111500 Eh
    DE(CIS) =      0.086290143 Eh (Root  1)
    ----------------------------- ---------
    E(tot)  =  -5779.116821357 Eh


-------------------------   --------------------
FINAL SINGLE POINT ENERGY     -5779.116821356810
-------------------------   --------------------

------------------------------------------------------------------------------
                         ORCA SCF GRADIENT CALCULATION
------------------------------------------------------------------------------


------------
CIS GRADIENT
------------

Reference wavefunction             ... RHF
State of interest                  ... 1
Basis dimension                    ... 1106
DFT-XC contribution needed         ... NO
RI-approximation                   ... OFF
CIS-vectors being read from        ... CPDT-4Cl.cis

 => Number of Vectors found: 3
 => Orbital Window: 98...258 -> 259...1105

Reading the CIS file                     ... done
Norm of the CI vector                    ... 1.000000000
Making the CIS (pseudo)densities         ... done
Making operators G(D) and Q(T)           ... done
Transforming the Fock operators          ... done
Making the frozen-core relaxed density   ... done
Constructing the G(H) operator           ... done
Transforming the G(H) operator           ... done
Calculating the CIS Lagrangian           ... done
Solving the Z-vector equations           ... done
Finalizing the relaxed density           ... done
Storing the relaxed density              ... done
Constructing the G(Z) operator           ... done
Transforming the G(Z) operator           ... done
Making the W-matrix                      ... done
Finalizing the W-matrix                  ... done
Transforming the W-matrix                ... done
Nuclear repulsion gradient               ... done
One-Electron gradient                    ... done
Prescreening matrices                    ... done
Two-Electron gradient (4-center)         ... done
                 ---------------------------
                 EXCITED STATE GRADIENT DONE
                 ---------------------------


------------------
CARTESIAN GRADIENT
------------------

   1   C   :   -0.001032502    0.001162098    0.000207795
   2   C   :   -0.003210916   -0.005253352   -0.004246588
   3   C   :   -0.000592904    0.004401134    0.005363395
   4   C   :   -0.003574572   -0.000477093    0.002794801
   5   C   :    0.011912534    0.006977559    0.002290860
   6   C   :    0.010736441   -0.008421276   -0.018224087
   7   C   :   -0.020751775   -0.026300725   -0.019176473
   8   C   :   -0.000949778   -0.000458392   -0.004837078
   9   C   :   -0.008087117   -0.003094739    0.020672854
  10   C   :   -0.005823532   -0.003469879    0.000048029
  11   C   :    0.002162243    0.003749758   -0.005654316
  12   C   :   -0.002729999    0.002748920   -0.000063196
  13   C   :    0.006404871    0.003559516   -0.003396223
  14   C   :   -0.000397651    0.003415682    0.002292302
  15   S   :   -0.005079944    0.004556922   -0.004832247
  16   C   :   -0.009107307   -0.005349092    0.007950182
  17   C   :    0.005269639    0.006824175   -0.000663543
  18   C   :    0.001601167   -0.004916640   -0.002057838
  19   C   :    0.000053737   -0.008673157   -0.001481881
  20   C   :    0.004681741    0.012849147   -0.000034725
  21   S   :    0.001744759   -0.000790610   -0.000768300
  22   C   :   -0.004010605   -0.012233892    0.000235550
  23   S   :   -0.001202351    0.001934987    0.001179702
  24   C   :    0.002076483    0.001021977   -0.001652856
  25   C   :   -0.007330495   -0.006729209    0.004880939
  26   C   :    0.000382731    0.006061688    0.001156249
  27   C   :    0.003013396    0.003839383   -0.000730668
  28   C   :   -0.009197545   -0.012312801    0.004923721
  29   C   :    0.011118307    0.004412839   -0.002240341
  30   S   :    0.002621495    0.001129240   -0.001427298
  31   C   :   -0.003547478   -0.009061325    0.000054927
  32   C   :    0.002896412    0.002600352   -0.002569626
  33   C   :   -0.001763620    0.001122357    0.001998295
  34   C   :   -0.000292169   -0.002257752   -0.000893107
  35   C   :   -0.015106468   -0.017476354    0.001896523
  36   C   :    0.015763345    0.017077777   -0.003697397
  37   C   :   -0.008072288    0.007424185    0.007858022
  38   C   :    0.029644446   -0.006446991   -0.021965310
  39   C   :   -0.000946059   -0.000169972    0.000652830
  40   C   :    0.005054640   -0.001050531   -0.003709499
  41   C   :   -0.005402771   -0.002920865    0.002536727
  42   C   :   -0.000670508   -0.004021119   -0.001208105
  43   Cl  :    0.005644656    0.003411742   -0.002443468
  44   Cl  :   -0.005149899    0.001979908    0.004116258
  45   O   :   -0.030661840    0.007683709    0.023081583
  46   C   :    0.018583987    0.010756006   -0.005983155
  47   C   :   -0.037351299    0.029424477    0.033832940
  48   C   :   -0.023839595   -0.053754491   -0.009609831
  49   C   :   -0.006831753   -0.002826613   -0.002298346
  50   C   :   -0.000577460    0.002878488    0.002551434
  51   C   :    0.001691924   -0.004244494   -0.000556213
  52   C   :    0.003474737    0.002796251   -0.001155309
  53   C   :    0.001993485    0.003759013   -0.006359229
  54   C   :    0.002685611   -0.003640220    0.000269700
  55   C   :   -0.001338891    0.003385031    0.002222026
  56   C   :   -0.003112808   -0.002802300    0.001910512
  57   O   :    0.018453668    0.028670290    0.019588661
  58   Cl  :    0.003903363    0.005098564    0.003179924
  59   Cl  :    0.001696060   -0.004172915   -0.005923505
  60   C   :   -0.001657749   -0.004517641   -0.022381618
  61   C   :    0.042867203    0.029794330    0.023586911
  62   C   :   -0.039410478   -0.015790733    0.041362529
  63   N   :    0.026578844    0.006158913   -0.020577635
  64   N   :   -0.023188661   -0.016493998   -0.015314978
  65   N   :    0.023474288   -0.013777331   -0.019439936
  66   N   :    0.017469377    0.030735303    0.003194741
  67   H   :    0.001776242   -0.000790202   -0.001516782
  68   H   :    0.000363429   -0.000725990   -0.001007558
  69   H   :    0.000950517   -0.000340208    0.001396392
  70   H   :   -0.001373916   -0.003405026   -0.000199175
  71   H   :   -0.003328532   -0.001632577    0.001421102
  72   H   :    0.003199514    0.001713059   -0.001671423
  73   H   :   -0.000241893   -0.000745676    0.000390166
  74   H   :    0.005271218    0.002079716   -0.002903135
  75   H   :    0.001672491    0.002389909   -0.000355441
  76   H   :    0.000880332    0.000712226   -0.000270268
  77   H   :    0.002882144    0.000159276   -0.001596726
  78   H   :    0.001767053    0.002488895   -0.000134456
  79   H   :    0.001936589   -0.000688744   -0.001389259
  80   H   :    0.000838222   -0.001149189    0.001221486
  81   H   :    0.000625088    0.002689191    0.001647828
  82   H   :    0.001801407    0.001870808    0.001355498
  83   H   :    0.001073036    0.003161007   -0.000668010
  84   H   :   -0.002465126    0.000296442   -0.001305370
  85   H   :   -0.001372463    0.000792889   -0.002777287
  86   H   :   -0.001524859   -0.000664411   -0.002171718
  87   H   :   -0.002611490   -0.000176489    0.001652619
  88   H   :   -0.001114034   -0.002521666    0.000918752
  89   H   :   -0.002084221    0.000162444    0.001131555
  90   H   :    0.000560414    0.001067281    0.001501308
  91   H   :    0.000905083   -0.002467088    0.001289068
  92   H   :    0.000107477   -0.002511135    0.001658901
  93   H   :   -0.001521680   -0.003278306   -0.000225538
  94   H   :    0.000074745    0.000322803   -0.002814432
  95   H   :   -0.001794673    0.000145235   -0.002677171
  96   H   :   -0.000906920    0.001550308   -0.002217921

Difference to translation invariance:
           :   -0.0000000001   -0.0000000001    0.0000000001

Norm of the cartesian gradient     ...    0.1747159222
RMS gradient                       ...    0.0102952344
MAX gradient                       ...    0.0537544914

-------
TIMINGS
-------

Total CIS gradient time            ...    21957.124 sec

Fock matrix formation       ....    1587.039 sec  (  7.2%)
  Coulomb formation         ....    1587.039 sec  (100.0% of F)
Z-vector equation           ....   18637.765 sec  ( 84.9%)
One electron gradient       ....      11.523 sec  (  0.1%)
Prescreening matrices       ....       1.117 sec  (  0.0%)
Two electron gradient       ....    1716.900 sec  (  7.8%)

                            ***************************************
                            *     ORCA property calculations      *
                            ***************************************

                                    ---------------------
                                    Active property flags
                                    ---------------------
   (+) Dipole Moment


------------------------------------------------------------------------------
                       ORCA ELECTRIC PROPERTIES CALCULATION
------------------------------------------------------------------------------

Dipole Moment Calculation                       ... on
Quadrupole Moment Calculation                   ... off
Polarizability Calculation                      ... off
GBWName                                         ... CPDT-4Cl.gbw
Electron density file                           ... CPDT-4Cl.scfp
The origin for moment calculation is the CENTER OF MASS  = (13.853228, -7.479939 -3.950809)

-------------
DIPOLE MOMENT
-------------
                                X             Y             Z
Electronic contribution:    -37.01643     -37.01131     -10.10812
Nuclear contribution   :     36.32375      37.93612      12.70522
                        -----------------------------------------
Total Dipole Moment    :     -0.69268       0.92481       2.59710
                        -----------------------------------------
Magnitude (a.u.)       :      2.84254
Magnitude (Debye)      :      7.22516



--------------------
Rotational spectrum 
--------------------
 
Rotational constants in cm-1:     0.002134     0.000213     0.000199 
Rotational constants in MHz :    63.983756     6.391502     5.957991 

 Dipole components along the rotational axes: 
x,y,z [a.u.] :     2.105079     0.285820     1.888643 
x,y,z [Debye]:     5.350685     0.726497     4.800549 

 

                        *** CIS RELAXED DENSITY ***

------------------------------------------------------------------------------
                       ORCA ELECTRIC PROPERTIES CALCULATION
------------------------------------------------------------------------------

Dipole Moment Calculation                       ... on
Quadrupole Moment Calculation                   ... off
Polarizability Calculation                      ... off
GBWName                                         ... CPDT-4Cl.gbw
Electron density file                           ... CPDT-4Cl.cisp
The origin for moment calculation is the CENTER OF MASS  = (13.853228, -7.479939 -3.950809)

-------------
DIPOLE MOMENT
-------------
                                X             Y             Z
Electronic contribution:    -36.53881     -37.20226     -10.16919
Nuclear contribution   :     36.32375      37.93612      12.70522
                        -----------------------------------------
Total Dipole Moment    :     -0.21506       0.73386       2.53603
                        -----------------------------------------
Magnitude (a.u.)       :      2.64882
Magnitude (Debye)      :      6.73278



--------------------
Rotational spectrum 
--------------------
 
Rotational constants in cm-1:     0.002134     0.000213     0.000199 
Rotational constants in MHz :    63.983756     6.391502     5.957991 

 Dipole components along the rotational axes: 
x,y,z [a.u.] :     1.688179     0.018856     2.041070 
x,y,z [Debye]:     4.291010     0.047929     5.187987 

 

Timings for individual modules:

Sum of individual times         ...    46790.228 sec (= 779.837 min)
GTO integral calculation        ...        1.398 sec (=   0.023 min)   0.0 %
SCF iterations                  ...     6936.121 sec (= 115.602 min)  14.8 %
CIS module                      ...    17895.545 sec (= 298.259 min)  38.2 %
SCF Gradient evaluation         ...    21957.164 sec (= 365.953 min)  46.9 %
                             ****ORCA TERMINATED NORMALLY****
TOTAL RUN TIME: 0 days 12 hours 59 minutes 51 seconds 71 msec
