
                                 *****************
                                 * O   R   C   A *
                                 *****************

           --- An Ab Initio, DFT and Semiempirical electronic structure package ---

                  #######################################################
                  #                        -***-                        #
                  #          Department of theory and spectroscopy      #
                  #               Directorship: Frank Neese             #
                  #        Max Planck Institute fuer Kohlenforschung    #
                  #                Kaiser Wilhelm Platz 1               #
                  #                 D-45470 Muelheim/Ruhr               #
                  #                      Germany                        #
                  #                                                     #
                  #                  All rights reserved                #
                  #                        -***-                        #
                  #######################################################


                         Program Version 4.2.0 -  RELEASE  -


 With contributions from (in alphabetic order):
   Daniel Aravena         : Magnetic Suceptibility
   Michael Atanasov       : Ab Initio Ligand Field Theory (pilot matlab implementation)
   Alexander A. Auer      : GIAO ZORA, VPT2
   Ute Becker             : Parallelization
   Giovanni Bistoni       : ED, misc. LED, open-shell LED, HFLED
   Martin Brehm           : Molecular dynamics
   Dmytro Bykov           : SCF Hessian
   Vijay G. Chilkuri      : MRCI spin determinant printing, contributions to CSF-ICE
   Dipayan Datta          : RHF DLPNO-CCSD density
   Achintya Kumar Dutta   : EOM-CC, STEOM-CC
   Dmitry Ganyushin       : Spin-Orbit,Spin-Spin,Magnetic field MRCI
   Miquel Garcia          : C-PCM Hessian, Gaussian charge scheme
   Yang Guo               : DLPNO-NEVPT2, CIM, IAO-localization
   Andreas Hansen         : Spin unrestricted coupled pair/coupled cluster methods
   Benjamin Helmich-Paris : CASSCF linear response (MC-RPA)
   Lee Huntington         : MR-EOM, pCC
   Robert Izsak           : Overlap fitted RIJCOSX, COSX-SCS-MP3, EOM
   Christian Kollmar      : KDIIS, OOCD, Brueckner-CCSD(T), CCSD density
   Simone Kossmann        : Meta GGA functionals, TD-DFT gradient, OOMP2, MP2 Hessian
   Martin Krupicka        : AUTO-CI
   Lucas Lang             : DCDCAS
   Dagmar Lenk            : GEPOL surface, SMD
   Dimitrios Liakos       : Extrapolation schemes; Compound Job, initial MDCI parallelization
   Dimitrios Manganas     : Further ROCIS development; embedding schemes
   Dimitrios Pantazis     : SARC Basis sets
   Taras Petrenko         : DFT Hessian,TD-DFT gradient, ASA, ECA, R-Raman, ABS, FL, XAS/XES, NRVS
   Peter Pinski           : DLPNO-MP2, DLPNO-MP2 Gradient
   Christoph Reimann      : Effective Core Potentials
   Marius Retegan         : Local ZFS, SOC
   Christoph Riplinger    : Optimizer, TS searches, QM/MM, DLPNO-CCSD(T), (RO)-DLPNO pert. Triples
   Tobias Risthaus        : Range-separated hybrids, TD-DFT gradient, RPA, STAB
   Michael Roemelt        : Original ROCIS implementation
   Masaaki Saitow         : Open-shell DLPNO-CCSD energy and density
   Barbara Sandhoefer     : DKH picture change effects
   Avijit Sen             : IP-ROCIS
   Kantharuban Sivalingam : CASSCF convergence, NEVPT2, FIC-MRCI
   Bernardo de Souza      : ESD, SOC TD-DFT
   Georgi Stoychev        : AutoAux, RI-MP2 NMR
   Willem Van den Heuvel  : Paramagnetic NMR
   Boris Wezisla          : Elementary symmetry handling
   Frank Wennmohs         : Technical directorship


 We gratefully acknowledge several colleagues who have allowed us to
 interface, adapt or use parts of their codes:
   Stefan Grimme, W. Hujo, H. Kruse,             : VdW corrections, initial TS optimization,
                  C. Bannwarth                     DFT functionals, gCP, sTDA/sTD-DF
   Ed Valeev, F. Pavosevic, A. Kumar             : LibInt (2-el integral package), F12 methods
   Garnet Chan, S. Sharma, J. Yang, R. Olivares  : DMRG
   Ulf Ekstrom                                   : XCFun DFT Library
   Mihaly Kallay                                 : mrcc  (arbitrary order and MRCC methods)
   Andreas Klamt, Michael Diedenhofen            : otool_cosmo (COSMO solvation model)
   Jiri Pittner, Ondrej Demel                    : Mk-CCSD
   Frank Weinhold                                : gennbo (NPA and NBO analysis)
   Christopher J. Cramer and Donald G. Truhlar   : smd solvation model
   Lars Goerigk                                  : TD-DFT with DH, B97 family of functionals
   V. Asgeirsson, H. Jonsson                     : NEB implementation
   FAccTs GmbH                                   : IRC, NEB, NEB-TS, Multilevel, MM, QM/MM, CI optimization
   S Lehtola, MJT Oliveira, MAL Marques          : LibXC Library


 Your calculation uses the libint2 library for the computation of 2-el integrals
 For citations please refer to: http://libint.valeyev.net

 Your ORCA version has been built with support for libXC version: 4.2.3
 For citations please refer to: https://tddft.org/programs/libxc/

 This ORCA versions uses:
   CBLAS   interface :  Fast vector & matrix operations
   LAPACKE interface :  Fast linear algebra routines
   SCALAPACK package :  Parallel linear algebra routines


----- Orbital basis set information -----
Your calculation utilizes the basis: def2-SVP
   F. Weigend and R. Ahlrichs, Phys. Chem. Chem. Phys. 7, 3297 (2005).

================================================================================
                                        WARNINGS
                       Please study these warnings very carefully!
================================================================================

INFO   : Checking CIS options ...

WARNING: CIS/ROCIS methods need fully converged wavefunctions
  ===> : Setting SCFConvForced true
         You can overwrite this default with %scf ConvForced false 


INFO   : the flag for use of LIBINT has been found!

================================================================================
                                       INPUT FILE
================================================================================
NAME = DTG-IW.inp
|  1> # ORCA input file
|  2> # DTG-IW.out: Geometry 135
|  3> ! Engrad Keepdens
|  4> %maxcore 1000
|  5> %tddft
|  6>   nroots 3 
|  7>   # nroots is the number of states to be computed
|  8>   Iroot 1
|  9>   end
| 10> * xyz 0 1
| 11>    C       -0.82337         0.49674        -0.34886
| 12>    C        0.41620        -0.14161        -0.16585
| 13>    S        0.23869        -1.67408         0.65404
| 14>    C       -1.49393        -1.47880         0.77053
| 15>    C       -1.87201        -0.26322         0.20513
| 16>    C       -2.41157        -2.36976         1.39687
| 17>    C       -2.35014        -3.69159         1.75588
| 18>    C       -1.45047        -4.78923         1.43121
| 19>    C       -0.73787        -4.94498         0.25546
| 20>    C        0.16160        -6.03264         0.03496
| 21>    N        0.91747        -6.89633        -0.14863
| 22>    C       -0.94736        -4.09595        -0.87494
| 23>    N       -1.15274        -3.44991        -1.81849
| 24>    C       -1.65594        -5.84029         2.45929
| 25>    C       -1.00093        -7.05606         2.69245
| 26>    C       -1.50015        -7.88316         3.69596
| 27>    F       -0.90866        -9.04692         3.95063
| 28>    C       -2.63079        -7.53280         4.45766
| 29>    F       -3.05486        -8.37821         5.39414
| 30>    C       -3.29070        -6.33083         4.22875
| 31>    C       -2.78848        -5.50171         3.23127
| 32>    C       -3.32018        -4.18557         2.78767
| 33>    O       -4.30605        -3.61261         3.20217
| 34>    C        8.28804         3.33401        -5.81734
| 35>    C        7.10072         3.59355        -5.10712
| 36>    S        6.30853         5.02787        -5.67676
| 37>    C        7.56396         5.32411        -6.86763
| 38>    C        8.53556         4.32130        -6.79259
| 39>    C        7.39959         6.47939        -7.67892
| 40>    C        8.25092         7.14653        -8.53528
| 41>    C        7.91615         8.37866        -9.26057
| 42>    C        6.66850         8.94351        -9.45980
| 43>    C        6.48093        10.15254       -10.20105
| 44>    N        6.32083        11.13638       -10.79875
| 45>    C        5.44837         8.37903        -8.97290
| 46>    N        4.44100         7.94582        -8.58773
| 47>    C        9.17829         8.92791        -9.80643
| 48>    C        9.45552        10.11233       -10.50007
| 49>    C       10.77248        10.36025       -10.86956
| 50>    F       11.06861        11.47893       -11.52396
| 51>    C       11.81015         9.45818       -10.57076
| 52>    F       13.04719         9.76304       -10.95136
| 53>    C       11.54275         8.27526        -9.88970
| 54>    C       10.22515         8.03302        -9.51601
| 55>    C        9.69464         6.86133        -8.77087
| 56>    O       10.35226         5.89120        -8.43435
| 57>    C       -1.00971         1.81519        -1.06016
| 58>    C       -2.33743         2.56973        -0.82486
| 59>    C       -2.33825         3.38836         0.47813
| 60>    C       -2.18453         2.61372         1.78788
| 61>    C       -2.63136         3.46516        -2.04573
| 62>    C       -3.98555         4.17419        -2.02264
| 63>    C        1.74570         0.27419        -0.55226
| 64>    S        2.03252         1.24773        -1.99207
| 65>    C        3.74548         1.16633        -1.75456
| 66>    C        4.09575         0.43382        -0.61585
| 67>    C        2.95641        -0.06702         0.05353
| 68>    C        4.80936         1.78421        -2.51563
| 69>    C        6.11564         1.66442        -2.03319
| 70>   Ge        6.02641         0.72319        -0.29997
| 71>    S        4.73421         2.63902        -4.01920
| 72>    C        6.48385         2.84470        -4.03173
| 73>    C        7.05535         2.26741        -2.90270
| 74>    C        9.09205         2.05928        -5.66803
| 75>    C       10.50065         2.03359        -6.29649
| 76>    C       11.57342         2.66451        -5.39008
| 77>    C       11.32025         4.10394        -4.93748
| 78>    C       10.86025         0.58179        -6.67523
| 79>    C       12.23335         0.39649        -7.32254
| 80>    C        6.08565         1.98636         1.21481
| 81>    C        7.28627        -0.76605        -0.11986
| 82>    C        5.45789         3.34474         0.83895
| 83>    C        4.73417         4.00443         2.02833
| 84>    C        3.37677         3.37227         2.33983
| 85>    C        6.51158         4.27279         0.20704
| 86>    C        5.91376         5.34598        -0.69925
| 87>    C        8.74059        -0.30730        -0.40413
| 88>    C        9.74478        -0.94523         0.57046
| 89>    C        9.60146        -0.48697         2.02065
| 90>    C        9.10230        -0.58620        -1.87478
| 91>    C       10.42076         0.02507        -2.34850
| 92>    H       -2.91474         0.04862         0.20161
| 93>    H       -3.34394        -1.88935         1.72294
| 94>    H       -0.12654        -7.38727         2.13436
| 95>    H       -4.17495        -6.05630         4.80632
| 96>    H        9.39338         4.33702        -7.45688
| 97>    H        6.41891         6.93939        -7.55253
| 98>    H        8.70396        10.85178       -10.76542
| 99>    H       12.34080         7.57031        -9.65095
|100>    H       -0.90795         1.62252        -2.14289
|101>    H       -0.17080         2.48606        -0.80860
|102>    H       -3.15972         1.83415        -0.77117
|103>    H       -3.27861         3.95957         0.52725
|104>    H       -1.53439         4.14481         0.40250
|105>    H       -2.97529         1.85577         1.90802
|106>    H       -2.25850         3.30016         2.64618
|107>    H       -1.21794         2.09198         1.86038
|108>    H       -2.57353         2.83585        -2.95078
|109>    H       -1.82257         4.21162        -2.14817
|110>    H       -4.80935         3.45086        -1.90078
|111>    H       -4.16087         4.72215        -2.96187
|112>    H       -4.06342         4.90539        -1.20361
|113>    H        2.98734        -0.65426         0.97310
|114>    H        8.12500         2.33111        -2.70184
|115>    H        8.48643         1.25970        -6.13161
|116>    H        9.16994         1.77355        -4.60865
|117>    H       10.47641         2.60308        -7.24100
|118>    H       12.53637         2.63578        -5.92427
|119>    H       11.70219         2.01672        -4.50349
|120>    H       11.21670         4.78360        -5.79737
|121>    H       12.15847         4.46811        -4.32221
|122>    H       10.40551         4.19836        -4.33217
|123>    H       10.08518         0.20729        -7.36566
|124>    H       10.78696        -0.05506        -5.77457
|125>    H       12.38311         1.10989        -8.14956
|126>    H       12.34098        -0.61776        -7.73818
|127>    H       13.05338         0.54512        -6.60442
|128>    H        7.11740         2.11425         1.58129
|129>    H        5.52573         1.49059         2.02462
|130>    H        6.99685        -1.58936        -0.79095
|131>    H        7.17778        -1.14760         0.90697
|132>    H        4.68212         3.17217         0.07139
|133>    H        4.58006         5.07426         1.80618
|134>    H        5.39112         3.96829         2.91613
|135>    H        2.69818         3.46604         1.47507
|136>    H        2.89147         3.85801         3.20088
|137>    H        3.46215         2.29731         2.56787
|138>    H        7.21533         3.66560        -0.38494
|139>    H        7.11330         4.73521         1.01140
|140>    H        5.36998         4.88399        -1.53956
|141>    H        6.69136         5.99819        -1.12583
|142>    H        5.20176         5.98834        -0.15615
|143>    H        8.81634         0.78916        -0.25372
|144>    H       10.76684        -0.70796         0.23290
|145>    H        9.64550        -2.04451         0.50760
|146>    H        9.76104         0.60081         2.11209
|147>    H       10.33693        -0.98564         2.66955
|148>    H        8.60427        -0.71154         2.43174
|149>    H        8.28448        -0.21704        -2.51377
|150>    H        9.12604        -1.68083        -2.02344
|151>    H       10.42552         1.12319        -2.23441
|152>    H       10.59853        -0.19986        -3.41133
|153>    H       11.28328        -0.36580        -1.78805
|154> *
|155> 
|156>                          ****END OF INPUT****
================================================================================

                     *******************************
                     * Energy+Gradient Calculation *
                     *******************************

---------------------------------
CARTESIAN COORDINATES (ANGSTROEM)
---------------------------------
  C     -0.823370    0.496740   -0.348860
  C      0.416200   -0.141610   -0.165850
  S      0.238690   -1.674080    0.654040
  C     -1.493930   -1.478800    0.770530
  C     -1.872010   -0.263220    0.205130
  C     -2.411570   -2.369760    1.396870
  C     -2.350140   -3.691590    1.755880
  C     -1.450470   -4.789230    1.431210
  C     -0.737870   -4.944980    0.255460
  C      0.161600   -6.032640    0.034960
  N      0.917470   -6.896330   -0.148630
  C     -0.947360   -4.095950   -0.874940
  N     -1.152740   -3.449910   -1.818490
  C     -1.655940   -5.840290    2.459290
  C     -1.000930   -7.056060    2.692450
  C     -1.500150   -7.883160    3.695960
  F     -0.908660   -9.046920    3.950630
  C     -2.630790   -7.532800    4.457660
  F     -3.054860   -8.378210    5.394140
  C     -3.290700   -6.330830    4.228750
  C     -2.788480   -5.501710    3.231270
  C     -3.320180   -4.185570    2.787670
  O     -4.306050   -3.612610    3.202170
  C      8.288040    3.334010   -5.817340
  C      7.100720    3.593550   -5.107120
  S      6.308530    5.027870   -5.676760
  C      7.563960    5.324110   -6.867630
  C      8.535560    4.321300   -6.792590
  C      7.399590    6.479390   -7.678920
  C      8.250920    7.146530   -8.535280
  C      7.916150    8.378660   -9.260570
  C      6.668500    8.943510   -9.459800
  C      6.480930   10.152540  -10.201050
  N      6.320830   11.136380  -10.798750
  C      5.448370    8.379030   -8.972900
  N      4.441000    7.945820   -8.587730
  C      9.178290    8.927910   -9.806430
  C      9.455520   10.112330  -10.500070
  C     10.772480   10.360250  -10.869560
  F     11.068610   11.478930  -11.523960
  C     11.810150    9.458180  -10.570760
  F     13.047190    9.763040  -10.951360
  C     11.542750    8.275260   -9.889700
  C     10.225150    8.033020   -9.516010
  C      9.694640    6.861330   -8.770870
  O     10.352260    5.891200   -8.434350
  C     -1.009710    1.815190   -1.060160
  C     -2.337430    2.569730   -0.824860
  C     -2.338250    3.388360    0.478130
  C     -2.184530    2.613720    1.787880
  C     -2.631360    3.465160   -2.045730
  C     -3.985550    4.174190   -2.022640
  C      1.745700    0.274190   -0.552260
  S      2.032520    1.247730   -1.992070
  C      3.745480    1.166330   -1.754560
  C      4.095750    0.433820   -0.615850
  C      2.956410   -0.067020    0.053530
  C      4.809360    1.784210   -2.515630
  C      6.115640    1.664420   -2.033190
  Ge     6.026410    0.723190   -0.299970
  S      4.734210    2.639020   -4.019200
  C      6.483850    2.844700   -4.031730
  C      7.055350    2.267410   -2.902700
  C      9.092050    2.059280   -5.668030
  C     10.500650    2.033590   -6.296490
  C     11.573420    2.664510   -5.390080
  C     11.320250    4.103940   -4.937480
  C     10.860250    0.581790   -6.675230
  C     12.233350    0.396490   -7.322540
  C      6.085650    1.986360    1.214810
  C      7.286270   -0.766050   -0.119860
  C      5.457890    3.344740    0.838950
  C      4.734170    4.004430    2.028330
  C      3.376770    3.372270    2.339830
  C      6.511580    4.272790    0.207040
  C      5.913760    5.345980   -0.699250
  C      8.740590   -0.307300   -0.404130
  C      9.744780   -0.945230    0.570460
  C      9.601460   -0.486970    2.020650
  C      9.102300   -0.586200   -1.874780
  C     10.420760    0.025070   -2.348500
  H     -2.914740    0.048620    0.201610
  H     -3.343940   -1.889350    1.722940
  H     -0.126540   -7.387270    2.134360
  H     -4.174950   -6.056300    4.806320
  H      9.393380    4.337020   -7.456880
  H      6.418910    6.939390   -7.552530
  H      8.703960   10.851780  -10.765420
  H     12.340800    7.570310   -9.650950
  H     -0.907950    1.622520   -2.142890
  H     -0.170800    2.486060   -0.808600
  H     -3.159720    1.834150   -0.771170
  H     -3.278610    3.959570    0.527250
  H     -1.534390    4.144810    0.402500
  H     -2.975290    1.855770    1.908020
  H     -2.258500    3.300160    2.646180
  H     -1.217940    2.091980    1.860380
  H     -2.573530    2.835850   -2.950780
  H     -1.822570    4.211620   -2.148170
  H     -4.809350    3.450860   -1.900780
  H     -4.160870    4.722150   -2.961870
  H     -4.063420    4.905390   -1.203610
  H      2.987340   -0.654260    0.973100
  H      8.125000    2.331110   -2.701840
  H      8.486430    1.259700   -6.131610
  H      9.169940    1.773550   -4.608650
  H     10.476410    2.603080   -7.241000
  H     12.536370    2.635780   -5.924270
  H     11.702190    2.016720   -4.503490
  H     11.216700    4.783600   -5.797370
  H     12.158470    4.468110   -4.322210
  H     10.405510    4.198360   -4.332170
  H     10.085180    0.207290   -7.365660
  H     10.786960   -0.055060   -5.774570
  H     12.383110    1.109890   -8.149560
  H     12.340980   -0.617760   -7.738180
  H     13.053380    0.545120   -6.604420
  H      7.117400    2.114250    1.581290
  H      5.525730    1.490590    2.024620
  H      6.996850   -1.589360   -0.790950
  H      7.177780   -1.147600    0.906970
  H      4.682120    3.172170    0.071390
  H      4.580060    5.074260    1.806180
  H      5.391120    3.968290    2.916130
  H      2.698180    3.466040    1.475070
  H      2.891470    3.858010    3.200880
  H      3.462150    2.297310    2.567870
  H      7.215330    3.665600   -0.384940
  H      7.113300    4.735210    1.011400
  H      5.369980    4.883990   -1.539560
  H      6.691360    5.998190   -1.125830
  H      5.201760    5.988340   -0.156150
  H      8.816340    0.789160   -0.253720
  H     10.766840   -0.707960    0.232900
  H      9.645500   -2.044510    0.507600
  H      9.761040    0.600810    2.112090
  H     10.336930   -0.985640    2.669550
  H      8.604270   -0.711540    2.431740
  H      8.284480   -0.217040   -2.513770
  H      9.126040   -1.680830   -2.023440
  H     10.425520    1.123190   -2.234410
  H     10.598530   -0.199860   -3.411330
  H     11.283280   -0.365800   -1.788050

----------------------------
CARTESIAN COORDINATES (A.U.)
----------------------------
  NO LB      ZA    FRAG     MASS         X           Y           Z
   0 C     6.0000    0    12.011   -1.555944    0.938703   -0.659250
   1 C     6.0000    0    12.011    0.786504   -0.267604   -0.313411
   2 S    16.0000    0    32.060    0.451059   -3.163553    1.235956
   3 C     6.0000    0    12.011   -2.823119   -2.794527    1.456091
   4 C     6.0000    0    12.011   -3.537586   -0.497414    0.387640
   5 C     6.0000    0    12.011   -4.557207   -4.478197    2.639702
   6 C     6.0000    0    12.011   -4.441121   -6.976094    3.318132
   7 C     6.0000    0    12.011   -2.740991   -9.050333    2.704595
   8 C     6.0000    0    12.011   -1.394372   -9.344658    0.482749
   9 C     6.0000    0    12.011    0.305380  -11.400037    0.066065
  10 N     7.0000    0    14.007    1.733767  -13.032175   -0.280870
  11 C     6.0000    0    12.011   -1.790251   -7.740224   -1.653397
  12 N     7.0000    0    14.007   -2.178363   -6.519385   -3.436448
  13 C     6.0000    0    12.011   -3.129273  -11.036549    4.647385
  14 C     6.0000    0    12.011   -1.891484  -13.334021    5.087993
  15 C     6.0000    0    12.011   -2.834873  -14.897013    6.984352
  16 F     9.0000    0    18.998   -1.717119  -17.096201    7.465609
  17 C     6.0000    0    12.011   -4.971473  -14.234929    8.423757
  18 F     9.0000    0    18.998   -5.772849  -15.832522   10.193447
  19 C     6.0000    0    12.011   -6.218522  -11.963535    7.991179
  20 C     6.0000    0    12.011   -5.269464  -10.396725    6.106215
  21 C     6.0000    0    12.011   -6.274231   -7.909581    5.267933
  22 O     8.0000    0    15.999   -8.137255   -6.826844    6.051224
  23 C     6.0000    0    12.011   15.662126    6.300366  -10.993179
  24 C     6.0000    0    12.011   13.418416    6.790825   -9.651058
  25 S    16.0000    0    32.060   11.921394    9.501297  -10.727522
  26 C     6.0000    0    12.011   14.293813   10.061110  -12.977940
  27 C     6.0000    0    12.011   16.129871    8.166074  -12.836135
  28 C     6.0000    0    12.011   13.983199   12.244273  -14.511056
  29 C     6.0000    0    12.011   15.591979   13.504985  -16.129342
  30 C     6.0000    0    12.011   14.959356   15.833373  -17.499941
  31 C     6.0000    0    12.011   12.601639   16.900785  -17.876431
  32 C     6.0000    0    12.011   12.247183   19.185520  -19.277191
  33 N     7.0000    0    14.007   11.944638   21.044708  -20.406680
  34 C     6.0000    0    12.011   10.295927   15.834072  -16.956324
  35 N     7.0000    0    14.007    8.392274   15.015424  -16.228458
  36 C     6.0000    0    12.011   17.344454   16.871305  -18.531467
  37 C     6.0000    0    12.011   17.868343   19.109534  -19.842257
  38 C     6.0000    0    12.011   20.357037   19.578035  -20.540492
  39 F     9.0000    0    18.998   20.916642   21.692034  -21.777128
  40 C     6.0000    0    12.011   22.317949   17.873370  -19.975841
  41 F     9.0000    0    18.998   24.655616   18.449472  -20.695071
  42 C     6.0000    0    12.011   21.812636   15.637975  -18.688825
  43 C     6.0000    0    12.011   19.322733   15.180208  -17.982653
  44 C     6.0000    0    12.011   18.320215   12.966035  -16.574542
  45 O     8.0000    0    15.999   19.562936   11.132755  -15.938612
  46 C     6.0000    0    12.011   -1.908075    3.430212   -2.003412
  47 C     6.0000    0    12.011   -4.417103    4.856086   -1.558759
  48 C     6.0000    0    12.011   -4.418652    6.403072    0.903535
  49 C     6.0000    0    12.011   -4.128163    4.939215    3.378604
  50 C     6.0000    0    12.011   -4.972550    6.548203   -3.865869
  51 C     6.0000    0    12.011   -7.531598    7.888076   -3.822236
  52 C     6.0000    0    12.011    3.298895    0.518144   -1.043620
  53 S    16.0000    0    32.060    3.840906    2.357868   -3.764467
  54 C     6.0000    0    12.011    7.077931    2.204044   -3.315638
  55 C     6.0000    0    12.011    7.739846    0.819801   -1.163788
  56 C     6.0000    0    12.011    5.586805   -0.126649    0.101157
  57 C     6.0000    0    12.011    9.088373    3.371668   -4.753852
  58 C     6.0000    0    12.011   11.556885    3.145298   -3.842172
  59 Ge   32.0000    0    72.590   11.388264    1.366631   -0.566861
  60 S    16.0000    0    32.060    8.946360    4.987025   -7.595187
  61 C     6.0000    0    12.011   12.252701    5.375704   -7.618866
  62 C     6.0000    0    12.011   13.332679    4.284784   -5.485308
  63 C     6.0000    0    12.011   17.181484    3.891475  -10.711024
  64 C     6.0000    0    12.011   19.843353    3.842928  -11.898642
  65 C     6.0000    0    12.011   21.870594    5.035194  -10.185775
  66 C     6.0000    0    12.011   21.392172    7.755323   -9.330485
  67 C     6.0000    0    12.011   20.522898    1.099424  -12.614357
  68 C     6.0000    0    12.011   23.117681    0.749258  -13.837595
  69 C     6.0000    0    12.011   11.500212    3.753676    2.295658
  70 C     6.0000    0    12.011   13.769055   -1.447625   -0.226503
  71 C     6.0000    0    12.011   10.313917    6.320643    1.585386
  72 C     6.0000    0    12.011    8.946285    7.567276    3.832988
  73 C     6.0000    0    12.011    6.381171    6.372667    4.421638
  74 C     6.0000    0    12.011   12.305103    8.074403    0.391249
  75 C     6.0000    0    12.011   11.175387   10.102438   -1.321391
  76 C     6.0000    0    12.011   16.517321   -0.580713   -0.763695
  77 C     6.0000    0    12.011   18.414965   -1.786226    1.078013
  78 C     6.0000    0    12.011   18.144130   -0.920240    3.818475
  79 C     6.0000    0    12.011   17.200854   -1.107757   -3.542821
  80 C     6.0000    0    12.011   19.692383    0.047375   -4.438022
  81 H     1.0000    0     1.008   -5.508060    0.091878    0.380988
  82 H     1.0000    0     1.008   -6.319131   -3.570354    3.255885
  83 H     1.0000    0     1.008   -0.239126  -13.959917    4.033356
  84 H     1.0000    0     1.008   -7.889512  -11.444748    9.082629
  85 H     1.0000    0     1.008   17.750916    8.195780  -14.091461
  86 H     1.0000    0     1.008   12.129982   13.113547  -14.272213
  87 H     1.0000    0     1.008   16.448101   20.506892  -20.343696
  88 H     1.0000    0     1.008   23.320732   14.305813  -18.237652
  89 H     1.0000    0     1.008   -1.715777    3.066118   -4.049475
  90 H     1.0000    0     1.008   -0.322765    4.697973   -1.528033
  91 H     1.0000    0     1.008   -5.971005    3.466041   -1.457300
  92 H     1.0000    0     1.008   -6.195675    7.482503    0.996358
  93 H     1.0000    0     1.008   -2.899577    7.832556    0.760615
  94 H     1.0000    0     1.008   -5.622483    3.506897    3.605635
  95 H     1.0000    0     1.008   -4.267946    6.236399    5.000556
  96 H     1.0000    0     1.008   -2.301573    3.953269    3.515609
  97 H     1.0000    0     1.008   -4.863267    5.358980   -5.576166
  98 H     1.0000    0     1.008   -3.444158    7.958808   -4.059453
  99 H     1.0000    0     1.008   -9.088354    6.521180   -3.591954
 100 H     1.0000    0     1.008   -7.862905    8.923570   -5.597123
 101 H     1.0000    0     1.008   -7.678751    9.269844   -2.274493
 102 H     1.0000    0     1.008    5.645254   -1.236372    1.838893
 103 H     1.0000    0     1.008   15.354025    4.405159   -5.105738
 104 H     1.0000    0     1.008   16.037029    2.380488  -11.587064
 105 H     1.0000    0     1.008   17.328675    3.351524   -8.709086
 106 H     1.0000    0     1.008   19.797546    4.919108  -13.683507
 107 H     1.0000    0     1.008   23.690306    4.980902  -11.195248
 108 H     1.0000    0     1.008   22.113934    3.811048   -8.510363
 109 H     1.0000    0     1.008   21.196491    9.039694  -10.955442
 110 H     1.0000    0     1.008   22.976179    8.443504   -8.167793
 111 H     1.0000    0     1.008   19.663564    7.933751   -8.186615
 112 H     1.0000    0     1.008   19.058228    0.391721  -13.919080
 113 H     1.0000    0     1.008   20.384400   -0.104048  -10.912356
 114 H     1.0000    0     1.008   23.400687    2.097388  -15.400437
 115 H     1.0000    0     1.008   23.321072   -1.167397  -14.623041
 116 H     1.0000    0     1.008   24.667313    1.030128  -12.480545
 117 H     1.0000    0     1.008   13.449937    3.995353    2.988205
 118 H     1.0000    0     1.008   10.442116    2.816807    3.825977
 119 H     1.0000    0     1.008   13.222130   -3.003455   -1.494679
 120 H     1.0000    0     1.008   13.564038   -2.168650    1.713925
 121 H     1.0000    0     1.008    8.847925    5.994533    0.134908
 122 H     1.0000    0     1.008    8.655059    9.588962    3.413186
 123 H     1.0000    0     1.008   10.187740    7.498981    5.510687
 124 H     1.0000    0     1.008    5.098821    6.549866    2.787478
 125 H     1.0000    0     1.008    5.464086    7.290582    6.048787
 126 H     1.0000    0     1.008    6.542515    4.341287    4.852571
 127 H     1.0000    0     1.008   13.634998    6.926980   -0.727431
 128 H     1.0000    0     1.008   13.442189    8.948250    1.911269
 129 H     1.0000    0     1.008   10.147792    9.229404   -2.909347
 130 H     1.0000    0     1.008   12.644838   11.334936   -2.127510
 131 H     1.0000    0     1.008    9.829902   11.316323   -0.295081
 132 H     1.0000    0     1.008   16.660468    1.491296   -0.479461
 133 H     1.0000    0     1.008   20.346379   -1.337851    0.440117
 134 H     1.0000    0     1.008   18.227353   -3.863564    0.959225
 135 H     1.0000    0     1.008   18.445692    1.135366    3.991272
 136 H     1.0000    0     1.008   19.533967   -1.862590    5.044718
 137 H     1.0000    0     1.008   16.259714   -1.344616    4.595323
 138 H     1.0000    0     1.008   15.655398   -0.410146   -4.750337
 139 H     1.0000    0     1.008   17.245716   -3.176308   -3.823747
 140 H     1.0000    0     1.008   19.701378    2.122521   -4.222423
 141 H     1.0000    0     1.008   20.028319   -0.377681   -6.446479
 142 H     1.0000    0     1.008   21.322309   -0.691262   -3.378925

--------------------------------
INTERNAL COORDINATES (ANGSTROEM)
--------------------------------
 C      0   0   0     0.000000000000     0.00000000     0.00000000
 C      1   0   0     1.406242215090     0.00000000     0.00000000
 S      2   1   0     1.747052864999   111.69693711     0.00000000
 C      3   2   1     1.747477113698    91.94854158   359.73546200
 C      4   3   2     1.392930860739   109.85146972   359.24326504
 C      4   3   2     1.424139981462   126.74641892   182.08684746
 C      6   4   3     1.371093131009   133.58454583   340.51120224
 C      7   6   4     1.455895012492   134.11766181   345.97191133
 C      8   7   6     1.383634664570   126.34327303   330.53101425
 C      9   8   7     1.428520495653   122.76223279   177.79828751
 N     10   9   8     1.162327475843   178.40469788   239.61793603
 C      9   8   7     1.429175342986   121.98826420   351.70129353
 N     12   9   8     1.161824095335   176.96496825   260.42199342
 C      8   7   6     1.484551626216   107.08666334   162.13968086
 C     14   8   7     1.400535032978   131.69426973   185.10733734
 C     15  14   8     1.392963509393   117.88890480   184.70183818
 F     16  15  14     1.330058106475   119.87384569   179.99140855
 C     16  15  14     1.407581553303   122.00038072     0.42716967
 F     18  16  15     1.330995200367   118.59191206   179.57386074
 C     18  16  15     1.390184475924   120.49089442   359.86068193
 C     20  18  16     1.390910224709   117.52149298   359.82142527
 C     21  20  18     1.487182016298   127.76036486   179.16434110
 O     22  21  20     1.213273698924   127.33952709   358.42201516
 C      2   1   3    10.294908381822   116.69957383   163.91020672
 C     24   2   1     1.407658425329    30.72014238    34.68521583
 S     25  24   2     1.734741648805   111.83601017   204.93862326
 C     26  25  24     1.755572265502    92.04604421   359.30370900
 C     27  26  25     1.398308069668   109.84456295     0.21245870
 C     27  26  25     1.421225119184   116.21128572   180.17395952
 C     29  27  26     1.379561886289   132.53760929   167.48741207
 C     30  29  27     1.468421218146   124.86801460   182.68561085
 C     31  30  29     1.383972050982   128.24956343   345.39441799
 C     32  31  30     1.430520048199   122.53006089   180.49736099
 N     33  32  31     1.162247153406   179.55256248   204.85616006
 C     32  31  30     1.429834430030   123.99595598   359.48281251
 N     35  32  31     1.162248316798   178.43151616   175.07148163
 C     31  30  29     1.480755240308   107.39728127   167.12941940
 C     37  31  30     1.400301274333   131.68958843   184.50600515
 C     38  37  31     1.390097416766   118.03944327   179.00011693
 F     39  38  37     1.329427425360   119.46842502   180.29425594
 C     39  38  37     1.407043266499   121.86336891     0.29083944
 F     41  39  38     1.329685655033   118.57608439   180.22045031
 C     41  39  38     1.390915241846   120.49362218     0.11642873
 C     43  41  39     1.390825004700   117.50401708   359.60023012
 C     44  43  41     1.486449439369   127.59555345   180.90110135
 O     45  44  43     1.219369505810   124.95937527   355.98459714
 C      1   2   3     1.509629321423   124.51187911   181.90242437
 C     47   1   2     1.545165719268   117.43838166   197.30626986
 C     48  47   1     1.538810803640   112.90377875    82.01132853
 C     49  48  47     1.529425392263   117.10542304   297.65622999
 C     48  47   1     1.542307779498   109.07007916   206.14111396
 C     51  48  47     1.528753493896   115.22223697   174.24958661
 C      2   1   3     1.445604571831   130.19017802   179.57359764
 S     53   2   1     1.761561432395   121.81530209   328.57621403
 C     54  53   2     1.731262233661    91.31701878   183.80925240
 C     55  54  53     1.398542254313   112.58993508   359.57675168
 C     53   2   1     1.396146300464   127.68028647   152.72214408
 C     55  54  53     1.446666476317   129.44758148   182.65421967
 C     58  55  54     1.397664278752   117.97717689   173.86361857
 Ge    59  58  55     1.974316963965   107.55635143   356.25683233
 S     58  55  54     1.731204899340   129.48514025   351.43570821
 C     25  24   2     1.448367554007   129.68191798    24.09680689
 C     62  25  24     1.390893502393   129.96281803    44.09099649
 C     24   2   1     1.514484113188    93.87892530   200.93792772
 C     64  24   2     1.542652231613   117.29690236   183.24569042
 C     65  64  24     1.539634569435   112.92715125    83.29035927
 C     66  65  64     1.530000174444   116.38404042   303.91761557
 C     65  64  24     1.542880224645   109.17725525   208.02804760
 C     68  65  64     1.529297203326   115.28890860   179.60667118
 C     60  59  58     1.973237511021   111.55396531   261.74265001
 C     60  59  58     1.958959573166   114.46093014   131.32529790
 C     70  60  59     1.542902972192   111.36884846    30.13748368
 C     72  70  60     1.540644773755   112.33646963   146.00555612
 C     73  72  70     1.529442145228   113.40078030   283.85970401
 C     72  70  60     1.539756366020   110.62116701   272.43252190
 C     75  72  70     1.526593296396   113.53877094   155.73107645
 C     71  60  59     1.551227790429   111.17874333    54.42108665
 C     77  71  60     1.537913492073   111.92321179   139.58970544
 C     78  77  71     1.527610515184   114.57586815   292.91534733
 C     77  71  60     1.539945049864   109.97801910   264.92601427
 C     80  77  71     1.528528188455   115.22348588   170.33422177
 H      5   4   3     1.088366863195   120.75710666   181.31881932
 H      6   4   3     1.098375723466   113.82172314   155.81254984
 H     15  14   8     1.088908804400   123.66012916     4.73227736
 H     20  18  16     1.091261603970   120.99778095   179.27124667
 H     28  27  26     1.085073027450   120.40251332   179.93397250
 H     29  27  26     1.090553847593   112.37819733   350.68225767
 H     38  37  31     1.087216334774   124.00860184   359.16342612
 H     43  41  39     1.091256096203   121.05974016   180.15787570
 H     47   1   2     1.104436996573   107.34851887    75.13566614
 H     47   1   2     1.103231153748   109.25588592   321.73402995
 H     48  47   1     1.104591054010   108.77674504   321.86583309
 H     49  48  47     1.101349430517   108.30851463   175.20733733
 H     49  48  47     1.106402909884   107.78545357    61.41115535
 H     50  49  48     1.101917964143   111.69273441   302.27218789
 H     50  49  48     1.101521822072   110.17541673   183.26072279
 H     50  49  48     1.100802028387   112.62596260    63.07004331
 H     51  48  47     1.103852747200   107.94168981    52.37615073
 H     51  48  47     1.105367698687   109.02512368   298.00779241
 H     52  51  48     1.103042423708   111.04455802   304.55191913
 H     52  51  48     1.101431004149   111.03003576   184.94132061
 H     52  51  48     1.100694016428   112.45826355    65.05195683
 H     57  53   2     1.091520255149   121.43999167   355.03771823
 H     63  62  25     1.090208031570   121.90018194     0.02783939
 H     64  24   2     1.104993292830   106.06516362    61.88615126
 H     64  24   2     1.099997486088   110.55906990   308.85081109
 H     65  64  24     1.103179757700   108.67105653   323.57375408
 H     66  65  64     1.101570275334   108.23476370   181.85334656
 H     66  65  64     1.105556613250   108.24993616    67.65146020
 H     67  66  65     1.100941020309   111.42701902   301.41897472
 H     67  66  65     1.101721257941   110.50489535   181.74476241
 H     67  66  65     1.100938054615   112.38420198    61.96498665
 H     68  65  64     1.103484181944   108.01282326    57.51734511
 H     68  65  64     1.105503406689   109.06394029   303.30163023
 H     69  68  65     1.102419928158   111.16748391   310.47954552
 H     69  68  65     1.101382716861   111.04231623   190.93246675
 H     69  68  65     1.100107454842   112.12350373    70.86820703
 H     70  60  59     1.102348177755   110.95159636   265.84853610
 H     70  60  59     1.102311451179   105.11755415   151.15656387
 H     71  60  59     1.100892856095   110.08498985   291.18446406
 H     71  60  59     1.100786233335   106.61171409   176.09110064
 H     72  70  60     1.104874586277   108.50577923    29.31480422
 H     73  72  70     1.103465787191   108.98524834   162.85789108
 H     73  72  70     1.105024091185   109.08470507    47.49024487
 H     74  73  72     1.103216687057   110.55658773   299.20216290
 H     74  73  72     1.101302201986   111.59403667   179.33614224
 H     74  73  72     1.102193716005   112.11722403    58.53398648
 H     75  72  70     1.101990961397   108.98880364    34.57830980
 H     75  72  70     1.105845479441   109.01909718   279.44498526
 H     76  75  72     1.102384844145   110.55389155   299.10381588
 H     76  75  72     1.100913321066   111.70997559   179.38984405
 H     76  75  72     1.102056250651   111.72775684    58.82244400
 H     77  71  60     1.109317701202   109.35850504    22.15562904
 H     78  77  71     1.102202544953   108.79029273   171.62741881
 H     78  77  71     1.105542589139   108.52894388    56.42205742
 H     79  78  77     1.103219098094   111.15546368   299.07285085
 H     79  78  77     1.100299550032   111.17335197   179.31354735
 H     79  78  77     1.101732530653   112.20924808    59.50960840
 H     80  77  71     1.101552031499   108.59636963    47.69131787
 H     80  77  71     1.104933581760   108.23746049   293.44208423
 H     81  80  77     1.104041086237   111.68201898   301.18249995
 H     81  80  77     1.100819370605   110.90416311   181.17551991
 H     81  80  77     1.100374622481   112.09937041    61.62937901

---------------------------
INTERNAL COORDINATES (A.U.)
---------------------------
 C      0   0   0     0.000000000000     0.00000000     0.00000000
 C      1   0   0     2.657412664478     0.00000000     0.00000000
 S      2   1   0     3.301451456330   111.69693711     0.00000000
 C      3   2   1     3.302253170185    91.94854158   359.73546200
 C      4   3   2     2.632257850285   109.85146972   359.24326504
 C      4   3   2     2.691234541332   126.74641892   182.08684746
 C      6   4   3     2.590990521708   133.58454583   340.51120224
 C      7   6   4     2.751242853352   134.11766181   345.97191133
 C      8   7   6     2.614690585437   126.34327303   330.53101425
 C      9   8   7     2.699512513477   122.76223279   177.79828751
 N     10   9   8     2.196480607276   178.40469788   239.61793603
 C      9   8   7     2.700749995597   121.98826420   351.70129353
 N     12   9   8     2.195529355973   176.96496825   260.42199342
 C      8   7   6     2.805396005215   107.08666334   162.13968086
 C     14   8   7     2.646627653292   131.69426973   185.10733734
 C     15  14   8     2.632319547298   117.88890480   184.70183818
 F     16  15  14     2.513445563440   119.87384569   179.99140855
 C     16  15  14     2.659943646903   122.00038072     0.42716967
 F     18  16  15     2.515216414257   118.59191206   179.57386074
 C     18  16  15     2.627067935125   120.49089442   359.86068193
 C     20  18  16     2.628439401571   117.52149298   359.82142527
 C     21  20  18     2.810366722096   127.76036486   179.16434110
 O     22  21  20     2.292755016455   127.33952709   358.42201516
 C      2   1   3    19.454557415453   116.69957383   163.91020672
 C     24   2   1     2.660088913979    30.72014238    34.68521583
 S     25  24   2     3.278186629349   111.83601017   204.93862326
 C     26  25  24     3.317550790107    92.04604421   359.30370900
 C     27  26  25     2.642419302526   109.84456295     0.21245870
 C     27  26  25     2.685726249908   116.21128572   180.17395952
 C     29  27  26     2.606994149881   132.53760929   167.48741207
 C     30  29  27     2.774913951534   124.86801460   182.68561085
 C     31  30  29     2.615328153358   128.24956343   345.39441799
 C     32  31  30     2.703291120180   122.53006089   180.49736099
 N     33  32  31     2.196328819867   179.55256248   204.85616006
 C     32  31  30     2.701995489609   123.99595598   359.48281251
 N     35  32  31     2.196331018359   178.43151616   175.07148163
 C     31  30  29     2.798221875551   107.39728127   167.12941940
 C     37  31  30     2.646185913471   131.68958843   184.50600515
 C     38  37  31     2.626903417159   118.03944327   179.00011693
 F     39  38  37     2.512253748855   119.46842502   180.29425594
 C     39  38  37     2.658926432261   121.86336891     0.29083944
 F     41  39  38     2.512741732216   118.57608439   180.22045031
 C     41  39  38     2.628448882586   120.49362218     0.11642873
 C     43  41  39     2.628278359094   117.50401708   359.60023012
 C     44  43  41     2.808982352328   127.59555345   180.90110135
 O     45  44  43     2.304274422036   124.95937527   355.98459714
 C      1   2   3     2.852785981227   124.51187911   181.90242437
 C     47   1   2     2.919940040939   117.43838166   197.30626986
 C     48  47   1     2.907930990799   112.90377875    82.01132853
 C     49  48  47     2.890195133643   117.10542304   297.65622999
 C     48  47   1     2.914539317467   109.07007916   206.14111396
 C     51  48  47     2.888925429739   115.22223697   174.24958661
 C      2   1   3     2.731796738706   130.19017802   179.57359764
 S     53   2   1     3.328868675304   121.81530209   328.57621403
 C     54  53   2     3.271611487620    91.31701878   183.80925240
 C     55  54  53     2.642861847369   112.58993508   359.57675168
 C     53   2   1     2.638334150765   127.68028647   152.72214408
 C     55  54  53     2.733803447364   129.44758148   182.65421967
 C     58  55  54     2.641202714006   117.97717689   173.86361857
 Ge    59  58  55     3.730918363449   107.55635143   356.25683233
 S     58  55  54     3.271503141456   129.48514025   351.43570821
 C     25  24   2     2.737018018330   129.68191798    24.09680689
 C     62  25  24     2.628407800974   129.96281803    44.09099649
 C     24   2   1     2.861960208101    93.87892530   200.93792772
 C     64  24   2     2.915190237631   117.29690236   183.24569042
 C     65  64  24     2.909487682550   112.92715125    83.29035927
 C     66  65  64     2.891281314552   116.38404042   303.91761557
 C     65  64  24     2.915621082022   109.17725525   208.02804760
 C     68  65  64     2.889952891657   115.28890860   179.60667118
 C     60  59  58     3.728878493010   111.55396531   261.74265001
 C     60  59  58     3.701897100708   114.46093014   131.32529790
 C     70  60  59     2.915664068657   111.36884846    30.13748368
 C     72  70  60     2.911396692055   112.33646963   146.00555612
 C     73  72  70     2.890226792158   113.40078030   283.85970401
 C     72  70  60     2.909717844740   110.62116701   272.43252190
 C     75  72  70     2.884843248068   113.53877094   155.73107645
 C     71  60  59     2.931395695239   111.17874333    54.42108665
 C     77  71  60     2.906235317680   111.92321179   139.58970544
 C     78  77  71     2.886765512996   114.57586815   292.91534733
 C     77  71  60     2.910074405530   109.97801910   264.92601427
 C     80  77  71     2.888499664158   115.22348588   170.33422177
 H      5   4   3     2.056715304673   120.75710666   181.31881932
 H      6   4   3     2.075629309499   113.82172314   155.81254984
 H     15  14   8     2.057739425132   123.66012916     4.73227736
 H     20  18  16     2.062185571968   120.99778095   179.27124667
 H     28  27  26     2.050490857186   120.40251332   179.93397250
 H     29  27  26     2.060848106245   112.37819733   350.68225767
 H     38  37  31     2.054541121049   124.00860184   359.16342612
 H     43  41  39     2.062175163796   121.05974016   180.15787570
 H     47   1   2     2.087083455694   107.34851887    75.13566614
 H     47   1   2     2.084804742994   109.25588592   321.73402995
 H     48  47   1     2.087374582059   108.77674504   321.86583309
 H     49  48  47     2.081248801427   108.30851463   175.20733733
 H     49  48  47     2.090798493454   107.78545357    61.41115535
 H     50  49  48     2.082323174277   111.69273441   302.27218789
 H     50  49  48     2.081574574253   110.17541673   183.26072279
 H     50  49  48     2.080214361316   112.62596260    63.07004331
 H     51  48  47     2.085979384384   107.94168981    52.37615073
 H     51  48  47     2.088842227801   109.02512368   298.00779241
 H     52  51  48     2.084448094905   111.04455802   304.55191913
 H     52  51  48     2.081402953251   111.03003576   184.94132061
 H     52  51  48     2.080010248294   112.45826355    65.05195683
 H     57  53   2     2.062674351859   121.43999167   355.03771823
 H     63  62  25     2.060194608669   121.90018194     0.02783939
 H     64  24   2     2.088134703269   106.06516362    61.88615126
 H     64  24   2     2.078693996708   110.55906990   308.85081109
 H     65  64  24     2.084707618539   108.67105653   323.57375408
 H     66  65  64     2.081666137650   108.23476370   181.85334656
 H     66  65  64     2.089199224587   108.24993616    67.65146020
 H     67  66  65     2.080477017985   111.42701902   301.41897472
 H     67  66  65     2.081951453428   110.50489535   181.74476241
 H     67  66  65     2.080471413635   112.38420198    61.96498665
 H     68  65  64     2.085282896988   108.01282326    57.51734511
 H     68  65  64     2.089098678758   109.06394029   303.30163023
 H     69  68  65     2.083271748796   111.16748391   310.47954552
 H     69  68  65     2.081311703501   111.04231623   190.93246675
 H     69  68  65     2.078901807537   112.12350373    70.86820703
 H     70  60  59     2.083136160184   110.95159636   265.84853610
 H     70  60  59     2.083066757013   105.11755415   151.15656387
 H     71  60  59     2.080386000809   110.08498985   291.18446406
 H     71  60  59     2.080184512994   106.61171409   176.09110064
 H     72  70  60     2.087910380392   108.50577923    29.31480422
 H     73  72  70     2.085248135942   108.98524834   162.85789108
 H     73  72  70     2.088192903726   109.08470507    47.49024487
 H     74  73  72     2.084777404909   110.55658773   299.20216290
 H     74  73  72     2.081159552439   111.59403667   179.33614224
 H     74  73  72     2.082844269778   112.11722403    58.53398648
 H     75  72  70     2.082461119096   108.98880364    34.57830980
 H     75  72  70     2.089745102578   109.01909718   279.44498526
 H     76  75  72     2.083205449619   110.55389155   299.10381588
 H     76  75  72     2.080424674000   111.70997559   179.38984405
 H     76  75  72     2.082584497907   111.72775684    58.82244400
 H     77  71  60     2.096306650783   109.35850504    22.15562904
 H     78  77  71     2.082860954071   108.79029273   171.62741881
 H     78  77  71     2.089172722859   108.52894388    56.42205742
 H     79  78  77     2.084781961110   111.15546368   299.07285085
 H     79  78  77     2.079264814837   111.17335197   179.31354735
 H     79  78  77     2.081972755767   112.20924808    59.50960840
 H     80  77  71     2.081631661798   108.59636963    47.69131787
 H     80  77  71     2.088021865698   108.23746049   293.44208423
 H     81  80  77     2.086335293585   111.68201898   301.18249995
 H     81  80  77     2.080247133360   110.90416311   181.17551991
 H     81  80  77     2.079406681206   112.09937041    61.62937901

---------------------
BASIS SET INFORMATION
---------------------
There are 7 groups of distinct atoms

 Group   1 Type C   : 7s4p1d contracted to 3s2p1d pattern {511/31/1}
 Group   2 Type S   : 10s7p1d contracted to 4s3p1d pattern {5311/511/1}
 Group   3 Type N   : 7s4p1d contracted to 3s2p1d pattern {511/31/1}
 Group   4 Type F   : 7s4p1d contracted to 3s2p1d pattern {511/31/1}
 Group   5 Type O   : 7s4p1d contracted to 3s2p1d pattern {511/31/1}
 Group   6 Type Ge  : 14s10p6d contracted to 5s4p3d pattern {63311/5311/411}
 Group   7 Type H   : 4s1p contracted to 2s1p pattern {31/1}

Atom   0C    basis set group =>   1
Atom   1C    basis set group =>   1
Atom   2S    basis set group =>   2
Atom   3C    basis set group =>   1
Atom   4C    basis set group =>   1
Atom   5C    basis set group =>   1
Atom   6C    basis set group =>   1
Atom   7C    basis set group =>   1
Atom   8C    basis set group =>   1
Atom   9C    basis set group =>   1
Atom  10N    basis set group =>   3
Atom  11C    basis set group =>   1
Atom  12N    basis set group =>   3
Atom  13C    basis set group =>   1
Atom  14C    basis set group =>   1
Atom  15C    basis set group =>   1
Atom  16F    basis set group =>   4
Atom  17C    basis set group =>   1
Atom  18F    basis set group =>   4
Atom  19C    basis set group =>   1
Atom  20C    basis set group =>   1
Atom  21C    basis set group =>   1
Atom  22O    basis set group =>   5
Atom  23C    basis set group =>   1
Atom  24C    basis set group =>   1
Atom  25S    basis set group =>   2
Atom  26C    basis set group =>   1
Atom  27C    basis set group =>   1
Atom  28C    basis set group =>   1
Atom  29C    basis set group =>   1
Atom  30C    basis set group =>   1
Atom  31C    basis set group =>   1
Atom  32C    basis set group =>   1
Atom  33N    basis set group =>   3
Atom  34C    basis set group =>   1
Atom  35N    basis set group =>   3
Atom  36C    basis set group =>   1
Atom  37C    basis set group =>   1
Atom  38C    basis set group =>   1
Atom  39F    basis set group =>   4
Atom  40C    basis set group =>   1
Atom  41F    basis set group =>   4
Atom  42C    basis set group =>   1
Atom  43C    basis set group =>   1
Atom  44C    basis set group =>   1
Atom  45O    basis set group =>   5
Atom  46C    basis set group =>   1
Atom  47C    basis set group =>   1
Atom  48C    basis set group =>   1
Atom  49C    basis set group =>   1
Atom  50C    basis set group =>   1
Atom  51C    basis set group =>   1
Atom  52C    basis set group =>   1
Atom  53S    basis set group =>   2
Atom  54C    basis set group =>   1
Atom  55C    basis set group =>   1
Atom  56C    basis set group =>   1
Atom  57C    basis set group =>   1
Atom  58C    basis set group =>   1
Atom  59Ge   basis set group =>   6
Atom  60S    basis set group =>   2
Atom  61C    basis set group =>   1
Atom  62C    basis set group =>   1
Atom  63C    basis set group =>   1
Atom  64C    basis set group =>   1
Atom  65C    basis set group =>   1
Atom  66C    basis set group =>   1
Atom  67C    basis set group =>   1
Atom  68C    basis set group =>   1
Atom  69C    basis set group =>   1
Atom  70C    basis set group =>   1
Atom  71C    basis set group =>   1
Atom  72C    basis set group =>   1
Atom  73C    basis set group =>   1
Atom  74C    basis set group =>   1
Atom  75C    basis set group =>   1
Atom  76C    basis set group =>   1
Atom  77C    basis set group =>   1
Atom  78C    basis set group =>   1
Atom  79C    basis set group =>   1
Atom  80C    basis set group =>   1
Atom  81H    basis set group =>   7
Atom  82H    basis set group =>   7
Atom  83H    basis set group =>   7
Atom  84H    basis set group =>   7
Atom  85H    basis set group =>   7
Atom  86H    basis set group =>   7
Atom  87H    basis set group =>   7
Atom  88H    basis set group =>   7
Atom  89H    basis set group =>   7
Atom  90H    basis set group =>   7
Atom  91H    basis set group =>   7
Atom  92H    basis set group =>   7
Atom  93H    basis set group =>   7
Atom  94H    basis set group =>   7
Atom  95H    basis set group =>   7
Atom  96H    basis set group =>   7
Atom  97H    basis set group =>   7
Atom  98H    basis set group =>   7
Atom  99H    basis set group =>   7
Atom 100H    basis set group =>   7
Atom 101H    basis set group =>   7
Atom 102H    basis set group =>   7
Atom 103H    basis set group =>   7
Atom 104H    basis set group =>   7
Atom 105H    basis set group =>   7
Atom 106H    basis set group =>   7
Atom 107H    basis set group =>   7
Atom 108H    basis set group =>   7
Atom 109H    basis set group =>   7
Atom 110H    basis set group =>   7
Atom 111H    basis set group =>   7
Atom 112H    basis set group =>   7
Atom 113H    basis set group =>   7
Atom 114H    basis set group =>   7
Atom 115H    basis set group =>   7
Atom 116H    basis set group =>   7
Atom 117H    basis set group =>   7
Atom 118H    basis set group =>   7
Atom 119H    basis set group =>   7
Atom 120H    basis set group =>   7
Atom 121H    basis set group =>   7
Atom 122H    basis set group =>   7
Atom 123H    basis set group =>   7
Atom 124H    basis set group =>   7
Atom 125H    basis set group =>   7
Atom 126H    basis set group =>   7
Atom 127H    basis set group =>   7
Atom 128H    basis set group =>   7
Atom 129H    basis set group =>   7
Atom 130H    basis set group =>   7
Atom 131H    basis set group =>   7
Atom 132H    basis set group =>   7
Atom 133H    basis set group =>   7
Atom 134H    basis set group =>   7
Atom 135H    basis set group =>   7
Atom 136H    basis set group =>   7
Atom 137H    basis set group =>   7
Atom 138H    basis set group =>   7
Atom 139H    basis set group =>   7
Atom 140H    basis set group =>   7
Atom 141H    basis set group =>   7
Atom 142H    basis set group =>   7
------------------------------------------------------------------------------
                           ORCA GTO INTEGRAL CALCULATION
------------------------------------------------------------------------------

                         BASIS SET STATISTICS AND STARTUP INFO

 # of primitive gaussian shells          ... 1324
 # of primitive gaussian functions       ... 2476
 # of contracted shells                  ...  686
 # of contracted basis functions         ... 1478
 Highest angular momentum                ...    2
 Maximum contraction depth               ...    6
 Integral package used                   ... LIBINT
 Integral threshhold            Thresh   ...  2.500e-11
 Primitive cut-off              TCut     ...  2.500e-12


------------------------------ INTEGRAL EVALUATION ----------------------------


 * One electron integrals 
 Pre-screening matrix                    ... done
 Shell pair data                         ... done (   0.027 sec)

-------------------------------------------------------------------------------
                                 ORCA SCF
-------------------------------------------------------------------------------

------------
SCF SETTINGS
------------
Hamiltonian:
 Ab initio Hamiltonian  Method          .... Hartree-Fock(GTOs)


General Settings:
 Integral files         IntName         .... DTG-IW
 Hartree-Fock type      HFTyp           .... RHF
 Total Charge           Charge          ....    0
 Multiplicity           Mult            ....    1
 Number of Electrons    NEL             ....  634
 Basis Dimension        Dim             .... 1478
 Nuclear Repulsion      ENuc            ....  14874.9953896626 Eh

Convergence Acceleration:
 DIIS                   CNVDIIS         .... on
   Start iteration      DIISMaxIt       ....    12
   Startup error        DIISStart       ....  0.200000
   # of expansion vecs  DIISMaxEq       ....     5
   Bias factor          DIISBfac        ....   1.050
   Max. coefficient     DIISMaxC        ....  10.000
 Newton-Raphson         CNVNR           .... off
 SOSCF                  CNVSOSCF        .... on
   Start iteration      SOSCFMaxIt      ....   150
   Startup grad/error   SOSCFStart      ....  0.003300
 Level Shifting         CNVShift        .... on
   Level shift para.    LevelShift      ....    0.2500
   Turn off err/grad.   ShiftErr        ....    0.0010
 Zerner damping         CNVZerner       .... off
 Static damping         CNVDamp         .... on
   Fraction old density DampFac         ....    0.7000
   Max. Damping (<1)    DampMax         ....    0.9800
   Min. Damping (>=0)   DampMin         ....    0.0000
   Turn off err/grad.   DampErr         ....    0.1000
 Fernandez-Rico         CNVRico         .... off

SCF Procedure:
 Maximum # iterations   MaxIter         ....   125
 SCF integral mode      SCFMode         .... Direct
   Integral package                     .... LIBINT
 Reset frequency        DirectResetFreq ....    20
 Integral Threshold     Thresh          ....  2.500e-11 Eh
 Primitive CutOff       TCut            ....  2.500e-12 Eh

Convergence Tolerance:
 Convergence Check Mode ConvCheckMode   .... Total+1el-Energy
 Convergence forced     ConvForced      .... 1
 Energy Change          TolE            ....  1.000e-08 Eh
 1-El. energy change                    ....  1.000e-05 Eh
 Orbital Gradient       TolG            ....  1.000e-05
 Orbital Rotation angle TolX            ....  1.000e-05
 DIIS Error             TolErr          ....  5.000e-07


Diagonalization of the overlap matrix:
Smallest eigenvalue                        ... 2.206e-04
Time for diagonalization                   ...    0.670 sec
Threshold for overlap eigenvalues          ... 1.000e-08
Number of eigenvalues below threshold      ... 0
Time for construction of square roots      ...    0.260 sec
Total time needed                          ...    0.936 sec

-------------------
DFT GRID GENERATION
-------------------

General Integration Accuracy     IntAcc      ...  4.340
Radial Grid Type                 RadialGrid  ... Gauss-Chebyshev
Angular Grid (max. acc.)         AngularGrid ... Lebedev-110
Angular grid pruning method      GridPruning ... 3 (G Style)
Weight generation scheme         WeightScheme... Becke
Basis function cutoff            BFCut       ...    1.0000e-11
Integration weight cutoff        WCut        ...    1.0000e-14
Grids for H and He will be reduced by one unit

# of grid points (after initial pruning)     ... 185860 (   0.4 sec)
# of grid points (after weights+screening)   ... 160967 (  11.7 sec)
nearest neighbour list constructed           ...    0.0 sec
Grid point re-assignment to atoms done       ...    0.0 sec
Grid point division into batches done        ...    0.1 sec
Reduced shell lists constructed in    3.2 sec

Total number of grid points                  ...   160967
Total number of batches                      ...     2590
Average number of points per batch           ...       62
Average number of grid points per atom       ...     1126
Average number of shells per batch           ...   122.99 (17.93%)
Average number of basis functions per batch  ...   240.88 (16.30%)
Average number of large shells per batch     ...    70.50 (57.32%)
Average number of large basis fcns per batch ...   141.02 (58.54%)
Maximum spatial batch extension              ...  20.05, 22.36, 22.36 au
Average spatial batch extension              ...   3.10,  3.16,  3.27 au

Time for grid setup =   15.337 sec

------------------------------
INITIAL GUESS: MODEL POTENTIAL
------------------------------
Loading Hartree-Fock densities                     ... done
Calculating cut-offs                               ... done
Setting up the integral package                    ... done
Initializing the effective Hamiltonian             ... done
Starting the Coulomb interaction                   ... done (  16.0 sec)
Reading the grid                                   ... done
Mapping shells                                     ... done
Starting the XC term evaluation                    ... done (   3.0 sec)
Transforming the Hamiltonian                       ... done (   0.2 sec)
Diagonalizing the Hamiltonian                      ... done (   0.6 sec)
Back transforming the eigenvectors                 ... done (   0.1 sec)
Now organizing SCF variables                       ... done
                      ------------------
                      INITIAL GUESS DONE (  35.7 sec)
                      ------------------
--------------
SCF ITERATIONS
--------------
ITER       Energy         Delta-E        Max-DP      RMS-DP      [F,P]     Damp
               ***  Starting incremental Fock matrix formation  ***
  0  -6959.7226079781   0.000000000000 0.09190559  0.00104217  0.2678323 0.7000
  1  -6960.7824719228  -1.059863944673 0.07062940  0.00080163  0.1430934 0.7000
                               ***Turning on DIIS***
  2  -6961.4063196897  -0.623847766943 0.17203718  0.00183182  0.0769079 0.0000
  3  -6957.7131941413   3.693125548478 0.06458300  0.00051801  0.0511751 0.0000
  4  -6962.8954419911  -5.182247849865 0.01838439  0.00017517  0.0157585 0.0000
  5  -6962.9317150361  -0.036273045007 0.00816542  0.00008677  0.0100401 0.0000
  6  -6962.6669023713   0.264812664846 0.00481005  0.00005123  0.0027983 0.0000
                      *** Initiating the SOSCF procedure ***
                           *** Shutting down DIIS ***
                      *** Re-Reading the Fockian *** 
                      *** Removing any level shift *** 
ITER      Energy       Delta-E        Grad      Rot      Max-DP    RMS-DP
  7  -6962.74114575  -0.0742433784  0.002772  0.002772  0.003042  0.000030
               *** Restarting incremental Fock matrix formation ***
  8  -6962.72406679   0.0170789588  0.001742  0.007053  0.002660  0.000021
  9  -6962.72431412  -0.0002473295  0.000749  0.008079  0.004242  0.000032
 10  -6962.72443540  -0.0001212802  0.000235  0.000630  0.000942  0.000007
 11  -6962.72444307  -0.0000076662  0.000147  0.000471  0.000373  0.000003
 12  -6962.72444592  -0.0000028554  0.000035  0.000135  0.000132  0.000001
 13  -6962.72444623  -0.0000003073  0.000024  0.000148  0.000102  0.000001
 14  -6962.72444639  -0.0000001592  0.000014  0.000125  0.000066  0.000000
 15  -6962.72444643  -0.0000000369  0.000007  0.000065  0.000027  0.000000
 16  -6962.72444640   0.0000000290  0.000003  0.000038  0.000018  0.000000
                  ***Gradient check signals convergence***
              ***Rediagonalizing the Fockian in SOSCF/NRSCF***

               *****************************************************
               *                     SUCCESS                       *
               *           SCF CONVERGED AFTER  17 CYCLES          *
               *****************************************************


----------------
TOTAL SCF ENERGY
----------------

Total Energy       :        -6962.72444637 Eh         -189465.36442 eV

Components:
Nuclear Repulsion  :        14874.99538966 Eh          404769.20262 eV
Electronic Energy  :       -21837.71983603 Eh         -594234.56704 eV
One Electron Energy:       -39245.37505984 Eh        -1067920.94743 eV
Two Electron Energy:        17407.65522381 Eh          473686.38039 eV

Virial components:
Potential Energy   :       -13909.02974862 Eh         -378483.94121 eV
Kinetic Energy     :         6946.30530225 Eh          189018.57679 eV
Virial Ratio       :            2.00236372


---------------
SCF CONVERGENCE
---------------

  Last Energy change         ...    2.7390e-08  Tolerance :   1.0000e-08
  Last MAX-Density change    ...    6.6931e-06  Tolerance :   1.0000e-07
  Last RMS-Density change    ...    5.5116e-08  Tolerance :   5.0000e-09
  Last Orbital Gradient      ...    1.6117e-06  Tolerance :   1.0000e-05
  Last Orbital Rotation      ...    7.9076e-06  Tolerance :   1.0000e-05

             **** THE GBW FILE WAS UPDATED (DTG-IW.gbw) ****
             **** DENSITY FILE WAS UPDATED (DTG-IW.scfp) ****
             **** ENERGY FILE WAS UPDATED (DTG-IW.en.tmp) ****
             **** THE GBW FILE WAS UPDATED (DTG-IW.gbw) ****
             **** DENSITY FILE WAS UPDATED (DTG-IW.scfp) ****
----------------
ORBITAL ENERGIES
----------------

  NO   OCC          E(Eh)            E(eV) 
   0   2.0000    -405.207965    -11026.2693 
   1   2.0000     -91.979021     -2502.8764 
   2   2.0000     -91.978332     -2502.8576 
   3   2.0000     -91.977370     -2502.8315 
   4   2.0000     -91.977310     -2502.8298 
   5   2.0000     -52.133454     -1418.6234 
   6   2.0000     -46.235240     -1258.1249 
   7   2.0000     -46.234615     -1258.1078 
   8   2.0000     -46.234266     -1258.0983 
   9   2.0000     -26.339328      -716.7296 
  10   2.0000     -26.337698      -716.6852 
  11   2.0000     -26.336434      -716.6508 
  12   2.0000     -26.336324      -716.6478 
  13   2.0000     -20.576616      -559.9182 
  14   2.0000     -20.569105      -559.7138 
  15   2.0000     -15.599393      -424.4811 
  16   2.0000     -15.597898      -424.4404 
  17   2.0000     -15.596833      -424.4114 
  18   2.0000     -15.590406      -424.2365 
  19   2.0000     -11.381580      -309.7086 
  20   2.0000     -11.380447      -309.6777 
  21   2.0000     -11.379294      -309.6463 
  22   2.0000     -11.379152      -309.6425 
  23   2.0000     -11.376617      -309.5735 
  24   2.0000     -11.369002      -309.3663 
  25   2.0000     -11.352418      -308.9150 
  26   2.0000     -11.350087      -308.8516 
  27   2.0000     -11.331796      -308.3539 
  28   2.0000     -11.331326      -308.3410 
  29   2.0000     -11.328474      -308.2634 
  30   2.0000     -11.324847      -308.1648 
  31   2.0000     -11.318407      -307.9895 
  32   2.0000     -11.317199      -307.9566 
  33   2.0000     -11.311101      -307.7907 
  34   2.0000     -11.310729      -307.7806 
  35   2.0000     -11.309730      -307.7534 
  36   2.0000     -11.309291      -307.7414 
  37   2.0000     -11.308984      -307.7331 
  38   2.0000     -11.305149      -307.6287 
  39   2.0000     -11.304169      -307.6021 
  40   2.0000     -11.303874      -307.5940 
  41   2.0000     -11.303741      -307.5904 
  42   2.0000     -11.300967      -307.5149 
  43   2.0000     -11.300291      -307.4965 
  44   2.0000     -11.299411      -307.4726 
  45   2.0000     -11.299337      -307.4706 
  46   2.0000     -11.298269      -307.4415 
  47   2.0000     -11.298156      -307.4385 
  48   2.0000     -11.297276      -307.4145 
  49   2.0000     -11.293928      -307.3234 
  50   2.0000     -11.293057      -307.2997 
  51   2.0000     -11.285992      -307.1075 
  52   2.0000     -11.285924      -307.1056 
  53   2.0000     -11.281032      -306.9725 
  54   2.0000     -11.278988      -306.9169 
  55   2.0000     -11.278571      -306.9055 
  56   2.0000     -11.276663      -306.8536 
  57   2.0000     -11.274834      -306.8038 
  58   2.0000     -11.274787      -306.8026 
  59   2.0000     -11.254186      -306.2420 
  60   2.0000     -11.253039      -306.2108 
  61   2.0000     -11.252795      -306.2041 
  62   2.0000     -11.252705      -306.2017 
  63   2.0000     -11.252273      -306.1899 
  64   2.0000     -11.246363      -306.0291 
  65   2.0000     -11.242932      -305.9357 
  66   2.0000     -11.242270      -305.9177 
  67   2.0000     -11.241405      -305.8942 
  68   2.0000     -11.239661      -305.8467 
  69   2.0000     -11.239537      -305.8434 
  70   2.0000     -11.239075      -305.8308 
  71   2.0000     -11.237302      -305.7825 
  72   2.0000     -11.236424      -305.7586 
  73   2.0000     -11.236150      -305.7512 
  74   2.0000     -11.236077      -305.7492 
  75   2.0000     -11.236012      -305.7474 
  76   2.0000     -11.233446      -305.6776 
  77   2.0000     -11.232710      -305.6576 
  78   2.0000     -11.231233      -305.6174 
  79   2.0000     -11.231013      -305.6114 
  80   2.0000     -11.230491      -305.5972 
  81   2.0000     -11.230316      -305.5924 
  82   2.0000     -11.229276      -305.5641 
  83   2.0000     -11.228003      -305.5295 
  84   2.0000     -11.225771      -305.4688 
  85   2.0000      -9.013699      -245.2752 
  86   2.0000      -9.013474      -245.2691 
  87   2.0000      -9.013135      -245.2599 
  88   2.0000      -9.012546      -245.2439 
  89   2.0000      -7.191050      -195.6784 
  90   2.0000      -6.701128      -182.3470 
  91   2.0000      -6.700927      -182.3415 
  92   2.0000      -6.700513      -182.3302 
  93   2.0000      -6.700121      -182.3196 
  94   2.0000      -6.700011      -182.3166 
  95   2.0000      -6.699845      -182.3121 
  96   2.0000      -6.699330      -182.2980 
  97   2.0000      -6.698924      -182.2870 
  98   2.0000      -6.698313      -182.2704 
  99   2.0000      -6.698036      -182.2628 
 100   2.0000      -6.697596      -182.2509 
 101   2.0000      -6.697060      -182.2363 
 102   2.0000      -5.169957      -140.6817 
 103   2.0000      -5.169325      -140.6645 
 104   2.0000      -5.167883      -140.6253 
 105   2.0000      -1.651802       -44.9478 
 106   2.0000      -1.650687       -44.9175 
 107   2.0000      -1.646153       -44.7941 
 108   2.0000      -1.643245       -44.7150 
 109   2.0000      -1.642569       -44.6966 
 110   2.0000      -1.640537       -44.6413 
 111   2.0000      -1.639960       -44.6256 
 112   2.0000      -1.635966       -44.5169 
 113   2.0000      -1.634785       -44.4848 
 114   2.0000      -1.403767       -38.1985 
 115   2.0000      -1.398279       -38.0491 
 116   2.0000      -1.248163       -33.9642 
 117   2.0000      -1.245153       -33.8823 
 118   2.0000      -1.227622       -33.4053 
 119   2.0000      -1.224726       -33.3265 
 120   2.0000      -1.223604       -33.2960 
 121   2.0000      -1.219908       -33.1954 
 122   2.0000      -1.217746       -33.1365 
 123   2.0000      -1.212112       -32.9833 
 124   2.0000      -1.198322       -32.6080 
 125   2.0000      -1.175525       -31.9877 
 126   2.0000      -1.167199       -31.7611 
 127   2.0000      -1.164712       -31.6934 
 128   2.0000      -1.115217       -30.3466 
 129   2.0000      -1.114329       -30.3224 
 130   2.0000      -1.108086       -30.1525 
 131   2.0000      -1.103320       -30.0229 
 132   2.0000      -1.100580       -29.9483 
 133   2.0000      -1.097444       -29.8630 
 134   2.0000      -1.092585       -29.7308 
 135   2.0000      -1.086862       -29.5750 
 136   2.0000      -1.070116       -29.1193 
 137   2.0000      -1.069224       -29.0951 
 138   2.0000      -1.066360       -29.0171 
 139   2.0000      -1.037130       -28.2217 
 140   2.0000      -1.035833       -28.1864 
 141   2.0000      -1.033526       -28.1237 
 142   2.0000      -1.021168       -27.7874 
 143   2.0000      -1.016479       -27.6598 
 144   2.0000      -1.013132       -27.5687 
 145   2.0000      -1.011310       -27.5191 
 146   2.0000      -1.010708       -27.5028 
 147   2.0000      -1.004974       -27.3467 
 148   2.0000      -0.994505       -27.0619 
 149   2.0000      -0.978615       -26.6295 
 150   2.0000      -0.976189       -26.5635 
 151   2.0000      -0.970908       -26.4198 
 152   2.0000      -0.964827       -26.2543 
 153   2.0000      -0.962692       -26.1962 
 154   2.0000      -0.947683       -25.7878 
 155   2.0000      -0.940672       -25.5970 
 156   2.0000      -0.936803       -25.4917 
 157   2.0000      -0.927879       -25.2489 
 158   2.0000      -0.897157       -24.4129 
 159   2.0000      -0.892958       -24.2986 
 160   2.0000      -0.888069       -24.1656 
 161   2.0000      -0.886061       -24.1109 
 162   2.0000      -0.872848       -23.7514 
 163   2.0000      -0.869963       -23.6729 
 164   2.0000      -0.860667       -23.4199 
 165   2.0000      -0.858946       -23.3731 
 166   2.0000      -0.844085       -22.9687 
 167   2.0000      -0.842769       -22.9329 
 168   2.0000      -0.837956       -22.8019 
 169   2.0000      -0.836751       -22.7692 
 170   2.0000      -0.829679       -22.5767 
 171   2.0000      -0.828786       -22.5524 
 172   2.0000      -0.820357       -22.3230 
 173   2.0000      -0.812292       -22.1036 
 174   2.0000      -0.807540       -21.9743 
 175   2.0000      -0.802210       -21.8293 
 176   2.0000      -0.792788       -21.5729 
 177   2.0000      -0.788506       -21.4563 
 178   2.0000      -0.786282       -21.3958 
 179   2.0000      -0.785357       -21.3707 
 180   2.0000      -0.782711       -21.2986 
 181   2.0000      -0.773061       -21.0361 
 182   2.0000      -0.766663       -20.8619 
 183   2.0000      -0.764959       -20.8156 
 184   2.0000      -0.759857       -20.6768 
 185   2.0000      -0.752474       -20.4759 
 186   2.0000      -0.747374       -20.3371 
 187   2.0000      -0.746247       -20.3064 
 188   2.0000      -0.745350       -20.2820 
 189   2.0000      -0.743127       -20.2215 
 190   2.0000      -0.738227       -20.0882 
 191   2.0000      -0.731241       -19.8981 
 192   2.0000      -0.726799       -19.7772 
 193   2.0000      -0.723424       -19.6854 
 194   2.0000      -0.718036       -19.5387 
 195   2.0000      -0.717870       -19.5342 
 196   2.0000      -0.717071       -19.5125 
 197   2.0000      -0.710882       -19.3441 
 198   2.0000      -0.705572       -19.1996 
 199   2.0000      -0.695780       -18.9331 
 200   2.0000      -0.690862       -18.7993 
 201   2.0000      -0.684456       -18.6250 
 202   2.0000      -0.677850       -18.4452 
 203   2.0000      -0.666695       -18.1417 
 204   2.0000      -0.665290       -18.1035 
 205   2.0000      -0.661831       -18.0093 
 206   2.0000      -0.657422       -17.8894 
 207   2.0000      -0.654444       -17.8083 
 208   2.0000      -0.653408       -17.7801 
 209   2.0000      -0.647009       -17.6060 
 210   2.0000      -0.641771       -17.4635 
 211   2.0000      -0.639370       -17.3982 
 212   2.0000      -0.635892       -17.3035 
 213   2.0000      -0.633668       -17.2430 
 214   2.0000      -0.630501       -17.1568 
 215   2.0000      -0.628894       -17.1131 
 216   2.0000      -0.626302       -17.0425 
 217   2.0000      -0.624569       -16.9954 
 218   2.0000      -0.623367       -16.9627 
 219   2.0000      -0.622579       -16.9412 
 220   2.0000      -0.621322       -16.9070 
 221   2.0000      -0.620897       -16.8955 
 222   2.0000      -0.619357       -16.8536 
 223   2.0000      -0.616976       -16.7888 
 224   2.0000      -0.616265       -16.7694 
 225   2.0000      -0.615044       -16.7362 
 226   2.0000      -0.612811       -16.6754 
 227   2.0000      -0.604227       -16.4419 
 228   2.0000      -0.602211       -16.3870 
 229   2.0000      -0.601064       -16.3558 
 230   2.0000      -0.599087       -16.3020 
 231   2.0000      -0.597540       -16.2599 
 232   2.0000      -0.591826       -16.1044 
 233   2.0000      -0.588317       -16.0089 
 234   2.0000      -0.585724       -15.9383 
 235   2.0000      -0.584026       -15.8921 
 236   2.0000      -0.581382       -15.8202 
 237   2.0000      -0.580443       -15.7946 
 238   2.0000      -0.578174       -15.7329 
 239   2.0000      -0.576998       -15.7009 
 240   2.0000      -0.575230       -15.6528 
 241   2.0000      -0.574784       -15.6407 
 242   2.0000      -0.574050       -15.6207 
 243   2.0000      -0.573696       -15.6111 
 244   2.0000      -0.571260       -15.5448 
 245   2.0000      -0.566905       -15.4263 
 246   2.0000      -0.566610       -15.4182 
 247   2.0000      -0.563592       -15.3361 
 248   2.0000      -0.563056       -15.3215 
 249   2.0000      -0.561052       -15.2670 
 250   2.0000      -0.557117       -15.1599 
 251   2.0000      -0.555262       -15.1095 
 252   2.0000      -0.551514       -15.0075 
 253   2.0000      -0.547210       -14.8903 
 254   2.0000      -0.544670       -14.8212 
 255   2.0000      -0.541573       -14.7370 
 256   2.0000      -0.538240       -14.6462 
 257   2.0000      -0.535780       -14.5793 
 258   2.0000      -0.534087       -14.5333 
 259   2.0000      -0.533232       -14.5100 
 260   2.0000      -0.530783       -14.4433 
 261   2.0000      -0.529110       -14.3978 
 262   2.0000      -0.527537       -14.3550 
 263   2.0000      -0.524953       -14.2847 
 264   2.0000      -0.522943       -14.2300 
 265   2.0000      -0.520357       -14.1596 
 266   2.0000      -0.520037       -14.1509 
 267   2.0000      -0.515780       -14.0351 
 268   2.0000      -0.512066       -13.9340 
 269   2.0000      -0.511120       -13.9083 
 270   2.0000      -0.510241       -13.8844 
 271   2.0000      -0.507438       -13.8081 
 272   2.0000      -0.504499       -13.7281 
 273   2.0000      -0.502712       -13.6795 
 274   2.0000      -0.502289       -13.6680 
 275   2.0000      -0.498854       -13.5745 
 276   2.0000      -0.497899       -13.5485 
 277   2.0000      -0.497116       -13.5272 
 278   2.0000      -0.496886       -13.5210 
 279   2.0000      -0.494565       -13.4578 
 280   2.0000      -0.493190       -13.4204 
 281   2.0000      -0.490596       -13.3498 
 282   2.0000      -0.485216       -13.2034 
 283   2.0000      -0.480516       -13.0755 
 284   2.0000      -0.479185       -13.0393 
 285   2.0000      -0.476277       -12.9602 
 286   2.0000      -0.475504       -12.9391 
 287   2.0000      -0.473427       -12.8826 
 288   2.0000      -0.469757       -12.7827 
 289   2.0000      -0.468472       -12.7478 
 290   2.0000      -0.466823       -12.7029 
 291   2.0000      -0.464926       -12.6513 
 292   2.0000      -0.463907       -12.6236 
 293   2.0000      -0.461765       -12.5653 
 294   2.0000      -0.460115       -12.5204 
 295   2.0000      -0.457757       -12.4562 
[...]
   Maximum Energy change  :     0.000001831494 (vector 2)
   Maximum residual norm  :     0.000000336598

                       ****Iteration    9****
   Time for densities:     2.248
   Using LibInt in JK Direct
   Time for J+K (Direct):  2282.979
   Time for Sigma-Completion:    20.866
   Size of expansion space: 9
   Lowest Energy          :     0.104505978389
   Maximum Energy change  :     0.000000942578 (vector 2)
   Maximum residual norm  :     0.000000156620

      *** CONVERGENCE OF RESIDUAL NORM REACHED ***

Storing the converged CI vectors               ... DTG-IW.cis1

                 *** DAVIDSON DONE ***

Total time for solving the CIS problem: 29669.859sec

-----------------------------
CIS-EXCITED STATES (SINGLETS)
-----------------------------

the weight of the individual excitations are printed if larger than 1.0e-02

STATE  1:  E=   0.104506 au      2.844 eV    22936.4 cm**-1
   314a -> 317a  :     0.023571 (c= -0.15352717)
   314a -> 321a  :     0.023476 (c= -0.15321843)
   315a -> 318a  :     0.174683 (c= -0.41795058)
   315a -> 320a  :     0.012608 (c=  0.11228577)
   316a -> 317a  :     0.546879 (c= -0.73951285)
   316a -> 318a  :     0.016940 (c= -0.13015325)
   316a -> 319a  :     0.048149 (c=  0.21942936)
   316a -> 320a  :     0.016045 (c=  0.12666882)
   316a -> 321a  :     0.047867 (c=  0.21878445)

STATE  2:  E=   0.122647 au      3.337 eV    26918.0 cm**-1
   314a -> 318a  :     0.099526 (c= -0.31547741)
   315a -> 317a  :     0.359187 (c= -0.59932178)
   316a -> 318a  :     0.357290 (c= -0.59773731)
   316a -> 319a  :     0.018420 (c= -0.13571887)
   316a -> 320a  :     0.011825 (c=  0.10874131)
   316a -> 322a  :     0.018472 (c=  0.13591008)

STATE  3:  E=   0.148593 au      4.043 eV    32612.4 cm**-1
   307a -> 318a  :     0.013464 (c= -0.11603568)
   313a -> 318a  :     0.010917 (c=  0.10448316)
   314a -> 317a  :     0.184470 (c=  0.42950021)
   314a -> 321a  :     0.010195 (c= -0.10097195)
   315a -> 318a  :     0.178914 (c=  0.42298219)
   315a -> 324a  :     0.011749 (c=  0.10839385)
   316a -> 319a  :     0.110903 (c=  0.33302122)
   316a -> 320a  :     0.043710 (c=  0.20906944)
   316a -> 321a  :     0.258586 (c=  0.50851344)
   316a -> 323a  :     0.043757 (c=  0.20918215)


----------------------
CIS-EXCITATION SPECTRA
----------------------

Center of mass = (  8.3033,  3.1527, -4.9091)
Calculating the Dipole integrals                  ... done
Transforming integrals                            ... done
Calculating the Linear Momentum integrals         ... done
Transforming integrals                            ... done
Calculating angular momentum integrals            ... done
Transforming integrals                            ... done

-----------------------------------------------------------------------------
         ABSORPTION SPECTRUM VIA TRANSITION ELECTRIC DIPOLE MOMENTS
-----------------------------------------------------------------------------
State   Energy    Wavelength  fosc         T2        TX        TY        TZ  
        (cm-1)      (nm)                 (au**2)    (au)      (au)      (au) 
-----------------------------------------------------------------------------
   1   22936.4    436.0   2.056214264  29.51335  -2.80788  -3.78329   2.70479
   2   26918.0    371.5   0.430204196   5.26148  -0.09291   0.80341  -2.14648
   3   32612.4    306.6   0.515950057   5.20836  -1.80709   1.38844   0.12256

-----------------------------------------------------------------------------
         ABSORPTION SPECTRUM VIA TRANSITION VELOCITY DIPOLE MOMENTS
-----------------------------------------------------------------------------
State   Energy    Wavelength   fosc        P2         PX        PY        PZ  
        (cm-1)      (nm)                 (au**2)     (au)      (au)      (au) 
-----------------------------------------------------------------------------
   1   22936.4    436.0   1.396635760   0.21894   0.26034   0.31041  -0.23410
   2   26918.0    371.5   0.225569239   0.04150   0.00438  -0.06472   0.19311
   3   32612.4    306.6   0.191644515   0.04272   0.09254  -0.16003   0.09242

-------------------------------------------------------------------
                             CD SPECTRUM
-------------------------------------------------------------------
State  Energy     Wavelength     R         MX        MY        MZ   
       (cm-1)       (nm)     (1e40*cgs)   (au)      (au)      (au)  
-------------------------------------------------------------------
   1   22936.4    436.0    700.40422   0.30138  -0.14496   0.65937
   2   26918.0    371.5    -1270.01391   0.72534   0.48210   1.40405
   3   32612.4    306.6    560.07445  -0.26459   0.53108  -0.22460

Total run time:    29811.651 sec

           *** ORCA-CIS/TD-DFT FINISHED WITHOUT ERROR ***

-----------------------
CIS/TD-DFT TOTAL ENERGY
-----------------------

    E(SCF)  =  -6962.724446369 Eh
    DE(CIS) =      0.104505978 Eh (Root  1)
    ----------------------------- ---------
    E(tot)  =  -6962.619940391 Eh


-------------------------   --------------------
FINAL SINGLE POINT ENERGY     -6962.619940390933
-------------------------   --------------------

------------------------------------------------------------------------------
                         ORCA SCF GRADIENT CALCULATION
------------------------------------------------------------------------------


------------
CIS GRADIENT
------------

Reference wavefunction             ... RHF
State of interest                  ... 1
Basis dimension                    ... 1478
DFT-XC contribution needed         ... NO
RI-approximation                   ... OFF
CIS-vectors being read from        ... DTG-IW.cis

 => Number of Vectors found: 3
 => Orbital Window: 105...316 -> 317...1477

Reading the CIS file                     ... done
Norm of the CI vector                    ... 1.000000000
Making the CIS (pseudo)densities         ... done
Making operators G(D) and Q(T)           ... done
Transforming the Fock operators          ... done
Making the frozen-core relaxed density   ... done
Constructing the G(H) operator           ... done
Transforming the G(H) operator           ... done
Calculating the CIS Lagrangian           ... done
Solving the Z-vector equations           ... done
Finalizing the relaxed density           ... done
Storing the relaxed density              ... done
Constructing the G(Z) operator           ... done
Transforming the G(Z) operator           ... done
Making the W-matrix                      ... done
Finalizing the W-matrix                  ... done
Transforming the W-matrix                ... done
Nuclear repulsion gradient               ... done
One-Electron gradient                    ... done
Prescreening matrices                    ... done
Two-Electron gradient (4-center)         ... done
                 ---------------------------
                 EXCITED STATE GRADIENT DONE
                 ---------------------------


------------------
CARTESIAN GRADIENT
------------------

   1   C   :    0.013268625    0.009198320   -0.003585259
   2   C   :   -0.015405460    0.002427311   -0.000197828
   3   S   :    0.000989469   -0.005371554   -0.005135700
   4   C   :    0.001276723    0.004604364   -0.003616438
   5   C   :   -0.004533329   -0.007644535    0.004993093
   6   C   :    0.003769575   -0.012931864    0.002675432
   7   C   :   -0.000247686    0.007812909   -0.007398482
   8   C   :   -0.000157197   -0.005413335    0.015300932
   9   C   :    0.006864371   -0.003788466   -0.014597004
  10   C   :   -0.048685296    0.054612230    0.012307435
  11   N   :    0.045356342   -0.051543717   -0.010707726
  12   C   :    0.014064417   -0.039090048    0.062225547
  13   N   :   -0.011993199    0.040706430   -0.055094515
  14   C   :    0.010608514    0.008165612   -0.014431882
  15   C   :    0.000858760    0.001449983   -0.003262300
  16   C   :    0.004459867    0.003960581   -0.006527925
  17   F   :    0.007957121   -0.017833593    0.004131565
  18   C   :   -0.005206346    0.006772514    0.000234412
  19   F   :   -0.006052942   -0.013529804    0.013942233
  20   C   :   -0.001388633    0.002717674    0.000302955
  21   C   :   -0.007694976    0.009863896    0.001434916
  22   C   :    0.027887495   -0.023127267   -0.011313584
  23   O   :   -0.038697928    0.023339971    0.015905403
  24   C   :    0.009950537   -0.006282366   -0.003195062
  25   C   :   -0.006422314   -0.002582061    0.004996097
  26   S   :   -0.007956241    0.004770196    0.004208751
  27   C   :   -0.000453632    0.009808799   -0.008095718
  28   C   :    0.004943755   -0.006311351    0.002997471
  29   C   :   -0.000080512   -0.007954132    0.004146529
  30   C   :   -0.000859197    0.005062507   -0.003757779
  31   C   :    0.021946044   -0.004952915    0.000691479
  32   C   :   -0.020978056    0.009043855   -0.003551539
  33   C   :    0.011026310   -0.065251274    0.039261328
  34   N   :   -0.007914284    0.061140618   -0.037235169
  35   C   :    0.066955893    0.028039138   -0.024045203
  36   N   :   -0.061260240   -0.026885549    0.023851633
  37   C   :   -0.018979672    0.002131881    0.002432052
  38   C   :   -0.004080378   -0.001450485    0.001513327
  39   C   :   -0.007093752   -0.000805102    0.002040842
  40   F   :    0.003658339    0.017155646   -0.010041054
  41   C   :   -0.000903592   -0.006439255    0.003661570
  42   F   :    0.018772023    0.005670932   -0.006208240
  43   C   :   -0.001262420   -0.002779424    0.001597885
  44   C   :    0.003075318   -0.010980274    0.005655760
  45   C   :   -0.019992181    0.033049461   -0.012704748
  46   O   :    0.025399013   -0.040939860    0.014662372
  47   C   :   -0.004970255   -0.006482555    0.006650887
  48   C   :    0.005406997    0.004606881   -0.000531817
  49   C   :    0.000256924   -0.008440273   -0.000079859
  50   C   :   -0.001024662    0.002653060   -0.005423211
  51   C   :   -0.005365403   -0.000494624    0.004887581
  52   C   :    0.005833861   -0.002892753   -0.000304728
  53   C   :    0.013046837    0.000083735    0.002234656
  54   S   :   -0.005175094    0.001023899   -0.001387836
  55   C   :   -0.005104443   -0.004244294    0.004472409
  56   C   :    0.010897818    0.002297840   -0.003776333
  57   C   :   -0.009664190    0.002121914    0.003941077
  58   C   :    0.003540035    0.005707881   -0.004036167
  59   C   :    0.002902091   -0.002113009    0.008476319
  60   Ge  :   -0.002117674   -0.000042695   -0.003611176
  61   S   :   -0.004321095    0.000577248   -0.003662521
  62   C   :    0.002609939    0.003871466   -0.005270130
  63   C   :    0.004009600    0.000053705    0.003119699
  64   C   :    0.002190862    0.009281117   -0.002711945
  65   C   :   -0.001090040   -0.003393073    0.005997662
  66   C   :   -0.006130969    0.003459360   -0.002152558
  67   C   :    0.000678054   -0.005430190   -0.001656062
  68   C   :    0.004658610    0.004877471   -0.002211741
  69   C   :   -0.005083879    0.000484740    0.002689470
  70   C   :   -0.003107412    0.004009458   -0.002993546
  71   C   :    0.004859792    0.005005081   -0.001873595
  72   C   :    0.005505020   -0.001199824    0.002599724
  73   C   :   -0.003129987   -0.005840597   -0.002657169
  74   C   :    0.004650699    0.002548839   -0.000814900
  75   C   :   -0.006339148    0.000734852   -0.002347419
  76   C   :    0.003130870   -0.004845089    0.003224707
  77   C   :   -0.002085532   -0.005273845   -0.001220074
  78   C   :   -0.005601307    0.005129350    0.002643039
  79   C   :    0.001697472   -0.001849862   -0.006123327
  80   C   :    0.003395879    0.005077752    0.002521540
  81   C   :   -0.005678495   -0.001590346    0.001501352
  82   H   :   -0.008410094    0.003047356    0.000344675
  83   H   :   -0.007444394    0.003786428    0.005011441
  84   H   :    0.007103463   -0.002154706   -0.004879688
  85   H   :   -0.006536977    0.002414547    0.004069596
  86   H   :    0.008578308    0.001706972   -0.005991980
  87   H   :   -0.009039480    0.005091368    0.000265053
  88   H   :   -0.007218481    0.005612334   -0.002102230
  89   H   :    0.005572795   -0.005548818    0.002369897
  90   H   :    0.001213327   -0.000386491   -0.007682698
  91   H   :    0.006707296    0.004614499    0.001078100
  92   H   :   -0.005223498   -0.005737313    0.001364475
  93   H   :   -0.006679681    0.004711793   -0.000921255
  94   H   :    0.005196674    0.004841694   -0.001612610
  95   H   :   -0.004530889   -0.005728804    0.000512368
  96   H   :   -0.000868876    0.004063740    0.005565056
  97   H   :    0.006354785   -0.004630167   -0.000123429
  98   H   :    0.001519641   -0.004773870   -0.005730399
  99   H   :    0.005132684    0.004170187   -0.000634185
 100   H   :   -0.005002556   -0.004527377    0.001089328
 101   H   :   -0.001839997    0.004196543   -0.005536333
 102   H   :   -0.000641536    0.004519622    0.006317048
 103   H   :   -0.000486634   -0.004364352    0.006641766
 104   H   :    0.008766025    0.000655339    0.001484688
 105   H   :   -0.004120242   -0.005575139   -0.002955552
 106   H   :    0.000258034   -0.003267311    0.008003188
 107   H   :   -0.000738933    0.004276831   -0.006019140
 108   H   :    0.006441871   -0.001163527   -0.004146124
 109   H   :    0.000588411   -0.004893701    0.005308795
 110   H   :   -0.001666544    0.004154289   -0.005926448
 111   H   :    0.004800157    0.002813719    0.004075581
 112   H   :   -0.006552072    0.000607849    0.003143245
 113   H   :   -0.005313696   -0.002632577   -0.003801284
 114   H   :   -0.001227589   -0.003736415    0.006386389
 115   H   :    0.001086624    0.004526440   -0.004535266
 116   H   :    0.001359269   -0.006123355   -0.003211722
 117   H   :    0.004953742    0.001362923    0.004697865
 118   H   :    0.006611846   -0.000044109    0.001378546
 119   H   :   -0.003969697   -0.003371432    0.004163772
 120   H   :   -0.002384217   -0.004380997   -0.004333778
 121   H   :   -0.000527871   -0.001692345    0.007117581
 122   H   :   -0.005439696   -0.001731752   -0.005564486
 123   H   :   -0.000534269    0.007482045   -0.002436986
 124   H   :    0.004707827   -0.000340973    0.005088199
 125   H   :   -0.004181123    0.000215070   -0.006131774
 126   H   :   -0.003459673    0.002941610    0.005143037
 127   H   :    0.000669959   -0.007455394    0.000514845
 128   H   :    0.004124889   -0.005452534   -0.004304788
 129   H   :    0.003929466    0.002492262    0.005372376
 130   H   :   -0.003773810   -0.003682298   -0.005470304
 131   H   :    0.004240869    0.003900733   -0.003102579
 132   H   :   -0.005118640    0.003608986    0.004214723
 133   H   :    0.000115512    0.006739015    0.000656767
 134   H   :    0.007148841    0.002499802   -0.003767003
 135   H   :   -0.000918639   -0.006992136   -0.001175536
 136   H   :    0.000845252    0.007030929    0.000666142
 137   H   :    0.003776234   -0.002886782    0.004271043
 138   H   :   -0.007186276   -0.001628839    0.001992097
 139   H   :   -0.005808252    0.003299870   -0.003538750
 140   H   :   -0.000540283   -0.006955401   -0.000457360
 141   H   :    0.000155312    0.007503829    0.000404748
 142   H   :    0.001893227   -0.001322009   -0.007802997
 143   H   :    0.005461450   -0.002796917    0.004602381

Difference to translation invariance:
           :    0.0000000016   -0.0000000000   -0.0000000000

Norm of the cartesian gradient     ...    0.2503561420
RMS gradient                       ...    0.0120873084
MAX gradient                       ...    0.0669558933

-------
TIMINGS
-------

Total CIS gradient time            ...    32815.919 sec

Fock matrix formation       ....    2378.458 sec  (  7.2%)
  Coulomb formation         ....    2378.458 sec  (100.0% of F)
Z-vector equation           ....   27647.387 sec  ( 84.2%)
One electron gradient       ....      25.342 sec  (  0.1%)
Prescreening matrices       ....       1.538 sec  (  0.0%)
Two electron gradient       ....    2758.430 sec  (  8.4%)

                            ***************************************
                            *     ORCA property calculations      *
                            ***************************************

                                    ---------------------
                                    Active property flags
                                    ---------------------
   (+) Dipole Moment


------------------------------------------------------------------------------
                       ORCA ELECTRIC PROPERTIES CALCULATION
------------------------------------------------------------------------------

Dipole Moment Calculation                       ... on
Quadrupole Moment Calculation                   ... off
Polarizability Calculation                      ... off
GBWName                                         ... DTG-IW.gbw
Electron density file                           ... DTG-IW.scfp
The origin for moment calculation is the CENTER OF MASS  = ( 8.303268,  3.152656 -4.909063)

-------------
DIPOLE MOMENT
-------------
                                X             Y             Z
Electronic contribution:    -45.02200     -31.53470     -33.83287
Nuclear contribution   :     47.00991      31.42162      36.55554
                        -----------------------------------------
Total Dipole Moment    :      1.98790      -0.11307       2.72267
                        -----------------------------------------
Magnitude (a.u.)       :      3.37305
Magnitude (Debye)      :      8.57361



--------------------
Rotational spectrum 
--------------------
 
Rotational constants in cm-1:     0.001148     0.000228     0.000207 
Rotational constants in MHz :    34.405236     6.837300     6.217418 

 Dipole components along the rotational axes: 
x,y,z [a.u.] :    -0.468458    -2.277575     2.443491 
x,y,z [Debye]:    -1.190726    -5.789136     6.210861 

 

                        *** CIS RELAXED DENSITY ***

------------------------------------------------------------------------------
                       ORCA ELECTRIC PROPERTIES CALCULATION
------------------------------------------------------------------------------

Dipole Moment Calculation                       ... on
Quadrupole Moment Calculation                   ... off
Polarizability Calculation                      ... off
GBWName                                         ... DTG-IW.gbw
Electron density file                           ... DTG-IW.cisp
The origin for moment calculation is the CENTER OF MASS  = ( 8.303268,  3.152656 -4.909063)

-------------
DIPOLE MOMENT
-------------
                                X             Y             Z
Electronic contribution:    -44.24327     -30.85947     -33.88252
Nuclear contribution   :     47.00991      31.42162      36.55554
                        -----------------------------------------
Total Dipole Moment    :      2.76663       0.56216       2.67302
                        -----------------------------------------
Magnitude (a.u.)       :      3.88784
Magnitude (Debye)      :      9.88211



--------------------
Rotational spectrum 
--------------------
 
Rotational constants in cm-1:     0.001148     0.000228     0.000207 
Rotational constants in MHz :    34.405236     6.837300     6.217418 

 Dipole components along the rotational axes: 
x,y,z [a.u.] :     0.408005    -2.523093     2.929652 
x,y,z [Debye]:     1.037067    -6.413193     7.446584 

 

Timings for individual modules:

Sum of individual times         ...    72897.927 sec (=1214.965 min)
GTO integral calculation        ...        5.117 sec (=   0.085 min)   0.0 %
SCF iterations                  ...    10264.618 sec (= 171.077 min)  14.1 %
CIS module                      ...    29811.981 sec (= 496.866 min)  40.9 %
SCF Gradient evaluation         ...    32816.211 sec (= 546.937 min)  45.0 %
                             ****ORCA TERMINATED NORMALLY****
TOTAL RUN TIME: 0 days 20 hours 14 minutes 59 seconds 289 msec
