
                                 *****************
                                 * O   R   C   A *
                                 *****************

           --- An Ab Initio, DFT and Semiempirical electronic structure package ---

                  #######################################################
                  #                        -***-                        #
                  #          Department of theory and spectroscopy      #
                  #               Directorship: Frank Neese             #
                  #        Max Planck Institute fuer Kohlenforschung    #
                  #                Kaiser Wilhelm Platz 1               #
                  #                 D-45470 Muelheim/Ruhr               #
                  #                      Germany                        #
                  #                                                     #
                  #                  All rights reserved                #
                  #                        -***-                        #
                  #######################################################


                         Program Version 4.2.0 -  RELEASE  -


 With contributions from (in alphabetic order):
   Daniel Aravena         : Magnetic Suceptibility
   Michael Atanasov       : Ab Initio Ligand Field Theory (pilot matlab implementation)
   Alexander A. Auer      : GIAO ZORA, VPT2
   Ute Becker             : Parallelization
   Giovanni Bistoni       : ED, misc. LED, open-shell LED, HFLED
   Martin Brehm           : Molecular dynamics
   Dmytro Bykov           : SCF Hessian
   Vijay G. Chilkuri      : MRCI spin determinant printing, contributions to CSF-ICE
   Dipayan Datta          : RHF DLPNO-CCSD density
   Achintya Kumar Dutta   : EOM-CC, STEOM-CC
   Dmitry Ganyushin       : Spin-Orbit,Spin-Spin,Magnetic field MRCI
   Miquel Garcia          : C-PCM Hessian, Gaussian charge scheme
   Yang Guo               : DLPNO-NEVPT2, CIM, IAO-localization
   Andreas Hansen         : Spin unrestricted coupled pair/coupled cluster methods
   Benjamin Helmich-Paris : CASSCF linear response (MC-RPA)
   Lee Huntington         : MR-EOM, pCC
   Robert Izsak           : Overlap fitted RIJCOSX, COSX-SCS-MP3, EOM
   Christian Kollmar      : KDIIS, OOCD, Brueckner-CCSD(T), CCSD density
   Simone Kossmann        : Meta GGA functionals, TD-DFT gradient, OOMP2, MP2 Hessian
   Martin Krupicka        : AUTO-CI
   Lucas Lang             : DCDCAS
   Dagmar Lenk            : GEPOL surface, SMD
   Dimitrios Liakos       : Extrapolation schemes; Compound Job, initial MDCI parallelization
   Dimitrios Manganas     : Further ROCIS development; embedding schemes
   Dimitrios Pantazis     : SARC Basis sets
   Taras Petrenko         : DFT Hessian,TD-DFT gradient, ASA, ECA, R-Raman, ABS, FL, XAS/XES, NRVS
   Peter Pinski           : DLPNO-MP2, DLPNO-MP2 Gradient
   Christoph Reimann      : Effective Core Potentials
   Marius Retegan         : Local ZFS, SOC
   Christoph Riplinger    : Optimizer, TS searches, QM/MM, DLPNO-CCSD(T), (RO)-DLPNO pert. Triples
   Tobias Risthaus        : Range-separated hybrids, TD-DFT gradient, RPA, STAB
   Michael Roemelt        : Original ROCIS implementation
   Masaaki Saitow         : Open-shell DLPNO-CCSD energy and density
   Barbara Sandhoefer     : DKH picture change effects
   Avijit Sen             : IP-ROCIS
   Kantharuban Sivalingam : CASSCF convergence, NEVPT2, FIC-MRCI
   Bernardo de Souza      : ESD, SOC TD-DFT
   Georgi Stoychev        : AutoAux, RI-MP2 NMR
   Willem Van den Heuvel  : Paramagnetic NMR
   Boris Wezisla          : Elementary symmetry handling
   Frank Wennmohs         : Technical directorship


 We gratefully acknowledge several colleagues who have allowed us to
 interface, adapt or use parts of their codes:
   Stefan Grimme, W. Hujo, H. Kruse,             : VdW corrections, initial TS optimization,
                  C. Bannwarth                     DFT functionals, gCP, sTDA/sTD-DF
   Ed Valeev, F. Pavosevic, A. Kumar             : LibInt (2-el integral package), F12 methods
   Garnet Chan, S. Sharma, J. Yang, R. Olivares  : DMRG
   Ulf Ekstrom                                   : XCFun DFT Library
   Mihaly Kallay                                 : mrcc  (arbitrary order and MRCC methods)
   Andreas Klamt, Michael Diedenhofen            : otool_cosmo (COSMO solvation model)
   Jiri Pittner, Ondrej Demel                    : Mk-CCSD
   Frank Weinhold                                : gennbo (NPA and NBO analysis)
   Christopher J. Cramer and Donald G. Truhlar   : smd solvation model
   Lars Goerigk                                  : TD-DFT with DH, B97 family of functionals
   V. Asgeirsson, H. Jonsson                     : NEB implementation
   FAccTs GmbH                                   : IRC, NEB, NEB-TS, Multilevel, MM, QM/MM, CI optimization
   S Lehtola, MJT Oliveira, MAL Marques          : LibXC Library


 Your calculation uses the libint2 library for the computation of 2-el integrals
 For citations please refer to: http://libint.valeyev.net

 Your ORCA version has been built with support for libXC version: 4.2.3
 For citations please refer to: https://tddft.org/programs/libxc/

 This ORCA versions uses:
   CBLAS   interface :  Fast vector & matrix operations
   LAPACKE interface :  Fast linear algebra routines
   SCALAPACK package :  Parallel linear algebra routines


----- Orbital basis set information -----
Your calculation utilizes the basis: def2-SVP
   F. Weigend and R. Ahlrichs, Phys. Chem. Chem. Phys. 7, 3297 (2005).

================================================================================
                                        WARNINGS
                       Please study these warnings very carefully!
================================================================================

INFO   : Checking CIS options ...

WARNING: CIS/ROCIS methods need fully converged wavefunctions
  ===> : Setting SCFConvForced true
         You can overwrite this default with %scf ConvForced false 


INFO   : the flag for use of LIBINT has been found!

================================================================================
                                       INPUT FILE
================================================================================
NAME = EH-IDTBR.inp
|  1> # ORCA input file
|  2> # EH-IDTBR.out: Geometry 51
|  3> ! Engrad Keepdens
|  4> %maxcore 1000
|  5> %tddft
|  6>   nroots 3 
|  7>   # nroots is the number of states to be computed
|  8>   Iroot 1
|  9>   end
| 10> * xyz 0 1
| 11>    S       -1.34109        -1.21835        -2.61673
| 12>    C       -0.73298        -0.06801        -3.82128
| 13>    S       -0.87318        -0.33186        -5.43775
| 14>    N       -0.14882         1.01296        -3.20757
| 15>    C        0.48850         2.09911        -3.95376
| 16>    C        1.92050         1.76108        -4.35981
| 17>    C       -0.17512         1.03900        -1.80581
| 18>    O        0.29979         1.93857        -1.14555
| 19>    C       -0.90592        -0.15412        -1.28213
| 20>    C       -1.23629        -0.17713         0.03743
| 21>    C       -2.08680        -1.05135         0.81376
| 22>    C       -2.45939        -2.39302         0.45307
| 23>    N       -1.94848        -3.09689        -0.55565
| 24>    S       -2.67649        -4.56594        -0.55983
| 25>    N       -3.66374        -4.36218         0.73559
| 26>    C       -3.45780        -3.13565         1.21710
| 27>    C       -4.12731        -2.53384         2.34962
| 28>    C       -3.65561        -1.27361         2.71494
| 29>    C       -2.66862        -0.57223         1.98746
| 30>    C       -5.26730        -3.16670         2.98285
| 31>    C       -5.71967        -4.47812         2.85904
| 32>    C       -6.97468        -4.67632         3.46787
| 33>    C       -7.48093        -3.54001         4.07755
| 34>    S       -6.41904        -2.18672         3.91314
| 35>    C       -8.84203        -3.75996         4.52357
| 36>    C       -9.19774        -5.08316         4.12613
| 37>    C       -8.00138        -5.79591         3.46822
| 38>    C       -8.27147        -6.27458         2.01476
| 39>    C       -8.37156        -5.18469         0.93072
| 40>    C       -8.09063        -5.77587        -0.46510
| 41>    C       -6.64448        -6.22831        -0.68541
| 42>    C       -9.69884        -4.39846         0.94944
| 43>    C       -9.53416        -2.94609         0.49943
| 44>    C       -7.47105        -6.93731         4.38825
| 45>    C       -8.20828        -8.29316         4.40257
| 46>    C       -7.64607        -9.27040         3.34056
| 47>    C       -8.69527       -10.14128         2.65257
| 48>    C       -8.11752        -8.87298         5.83012
| 49>    C       -8.65089       -10.28864         6.03952
| 50>    C      -10.49750        -5.53594         4.32017
| 51>    C      -11.43649        -4.65178         4.88098
| 52>    C      -11.07046        -3.34138         5.30483
| 53>    C       -9.76274        -2.90353         5.14589
| 54>    C      -12.28525        -2.57814         5.86240
| 55>    C      -12.12261        -2.13335         7.34424
| 56>    C      -12.29124        -3.18850         8.44830
| 57>    C      -11.17633        -4.26223         8.45792
| 58>    C      -11.69174        -5.68684         8.66966
| 59>    C      -12.40773        -2.45626         9.79835
| 60>    C      -12.64245        -3.34111        11.02094
| 61>    C      -12.63476        -1.33428         4.99396
| 62>    C      -11.62746        -0.15427         5.03297
| 63>    C      -10.76488        -0.10245         3.74944
| 64>    C       -9.33909         0.42561         3.92957
| 65>    C      -12.38846         1.15170         5.33771
| 66>    C      -11.54685         2.41246         5.52996
| 67>    C      -13.37575        -3.62401         5.68701
| 68>    C      -12.85416        -4.78825         5.13387
| 69>    S      -14.04182        -6.01544         4.91015
| 70>    C      -15.30105        -4.94647         5.55562
| 71>    C      -14.75842        -3.70902         5.92378
| 72>    C      -16.68803        -5.35333         5.64407
| 73>    C      -17.12559        -6.68553         5.30656
| 74>    N      -16.34242        -7.67242         4.87164
| 75>    S      -17.29407        -8.98318         4.61953
| 76>    N      -18.73782        -8.33904         5.05982
| 77>    C      -18.52225        -7.07310         5.41862
| 78>    C      -19.53211        -6.14266         5.87489
| 79>    C      -19.06496        -4.85910         6.16975
| 80>    C      -17.70640        -4.48930         6.05783
| 81>    C      -20.87559        -6.65960         5.98148
| 82>    C      -22.09072        -6.14115         6.33078
| 83>    S      -23.52345        -7.19041         6.35244
| 84>    C      -24.60431        -5.86384         6.76605
| 85>    S      -26.22929        -6.04753         6.94351
| 86>    N      -23.88140        -4.69931         6.89654
| 87>    C      -24.51978        -3.41940         7.22094
| 88>    C      -24.84516        -3.28194         8.70364
| 89>    C      -22.49118        -4.76302         6.68933
| 90>    O      -21.77678        -3.78165         6.78938
| 91>    H        0.45660         2.97665        -3.29388
| 92>    H       -0.13310         2.28769        -4.84024
| 93>    H        2.53848         1.54472        -3.47524
| 94>    H        2.37147         2.61155        -4.89468
| 95>    H        1.93674         0.88738        -5.02799
| 96>    H       -0.86387         0.70224         0.57486
| 97>    H       -4.09138        -0.78313         3.58798
| 98>    H       -2.37906         0.42125         2.33758
| 99>    H       -5.17026        -5.22204         2.28698
|100>    H       -7.43622        -6.93459         1.74736
|101>    H       -9.17516        -6.90822         1.99968
|102>    H       -7.56709        -4.45801         1.12324
|103>    H       -8.34183        -5.01492        -1.22329
|104>    H       -8.78380        -6.61736        -0.64699
|105>    H       -6.34821        -7.03574         0.00403
|106>    H       -6.49682        -6.61436        -1.70693
|107>    H       -5.94198        -5.39426        -0.52699
|108>    H      -10.12812        -4.39905         1.95901
|109>    H      -10.43552        -4.91821         0.31161
|110>    H       -8.89267        -2.39512         1.20689
|111>    H      -10.50113        -2.42166         0.44766
|112>    H       -9.06134        -2.87489        -0.49438
|113>    H       -7.45318        -6.52045         5.40800
|114>    H       -6.41703        -7.12278         4.12098
|115>    H       -9.27597        -8.12490         4.17654
|116>    H       -6.88250        -9.90973         3.81795
|117>    H       -7.10302        -8.70876         2.56779
|118>    H       -9.41445        -9.51920         2.09359
|119>    H       -8.22810       -10.83531         1.93529
|120>    H       -9.27391       -10.74276         3.37072
|121>    H       -8.64432        -8.18329         6.51134
|122>    H       -7.05584        -8.84814         6.13945
|123>    H       -9.72053       -10.36946         5.78467
|124>    H       -8.53475       -10.58973         7.09311
|125>    H       -8.10639       -11.02656         5.43212
|126>    H      -10.80652        -6.53074         3.99660
|127>    H       -9.45310        -1.91377         5.47340
|128>    H      -12.87005        -1.34255         7.52139
|129>    H      -11.14076        -1.64622         7.46178
|130>    H      -13.25220        -3.70168         8.27049
|131>    H      -10.43671        -4.00416         9.23576
|132>    H      -10.62010        -4.23503         7.51177
|133>    H      -12.32206        -5.76964         9.56828
|134>    H      -10.86136        -6.40294         8.77545
|135>    H      -12.30568        -6.00568         7.81221
|136>    H      -13.22549        -1.71720         9.72476
|137>    H      -11.48730        -1.86244         9.95300
|138>    H      -13.56047        -3.94271        10.91595
|139>    H      -12.74761        -2.72666        11.92915
|140>    H      -11.80842        -4.03927        11.19267
|141>    H      -13.61889        -0.98536         5.34656
|142>    H      -12.78890        -1.66464         3.95397
|143>    H      -10.93872        -0.31095         5.87892
|144>    H      -11.29442         0.49004         2.98204
|145>    H      -10.69409        -1.11883         3.33301
|146>    H       -9.30691         1.48371         4.22672
|147>    H       -8.76056         0.31468         2.99876
|148>    H       -8.80098        -0.13936         4.70745
|149>    H      -12.97998         0.98096         6.25414
|150>    H      -13.12987         1.32491         4.53598
|151>    H      -10.72621         2.24612         6.24710
|152>    H      -12.16655         3.23537         5.92024
|153>    H      -11.09789         2.76138         4.58791
|154>    H      -15.35815        -2.90795         6.35591
|155>    H      -19.78487        -4.11343         6.50340
|156>    H      -17.45205        -3.46107         6.31824
|157>    H      -20.90792        -7.72109         5.71376
|158>    H      -25.43553        -3.35440         6.61673
|159>    H      -23.81429        -2.64353         6.89586
|160>    H      -25.55495        -4.05902         9.01865
|161>    H      -25.30727        -2.30021         8.89372
|162>    H      -23.93269        -3.36033         9.31324
|163> *
|164> 
|165>                          ****END OF INPUT****
================================================================================

                     *******************************
                     * Energy+Gradient Calculation *
                     *******************************

---------------------------------
CARTESIAN COORDINATES (ANGSTROEM)
---------------------------------
  S     -1.341090   -1.218350   -2.616730
  C     -0.732980   -0.068010   -3.821280
  S     -0.873180   -0.331860   -5.437750
  N     -0.148820    1.012960   -3.207570
  C      0.488500    2.099110   -3.953760
  C      1.920500    1.761080   -4.359810
  C     -0.175120    1.039000   -1.805810
  O      0.299790    1.938570   -1.145550
  C     -0.905920   -0.154120   -1.282130
  C     -1.236290   -0.177130    0.037430
  C     -2.086800   -1.051350    0.813760
  C     -2.459390   -2.393020    0.453070
  N     -1.948480   -3.096890   -0.555650
  S     -2.676490   -4.565940   -0.559830
  N     -3.663740   -4.362180    0.735590
  C     -3.457800   -3.135650    1.217100
  C     -4.127310   -2.533840    2.349620
  C     -3.655610   -1.273610    2.714940
  C     -2.668620   -0.572230    1.987460
  C     -5.267300   -3.166700    2.982850
  C     -5.719670   -4.478120    2.859040
  C     -6.974680   -4.676320    3.467870
  C     -7.480930   -3.540010    4.077550
  S     -6.419040   -2.186720    3.913140
  C     -8.842030   -3.759960    4.523570
  C     -9.197740   -5.083160    4.126130
  C     -8.001380   -5.795910    3.468220
  C     -8.271470   -6.274580    2.014760
  C     -8.371560   -5.184690    0.930720
  C     -8.090630   -5.775870   -0.465100
  C     -6.644480   -6.228310   -0.685410
  C     -9.698840   -4.398460    0.949440
  C     -9.534160   -2.946090    0.499430
  C     -7.471050   -6.937310    4.388250
  C     -8.208280   -8.293160    4.402570
  C     -7.646070   -9.270400    3.340560
  C     -8.695270  -10.141280    2.652570
  C     -8.117520   -8.872980    5.830120
  C     -8.650890  -10.288640    6.039520
  C    -10.497500   -5.535940    4.320170
  C    -11.436490   -4.651780    4.880980
  C    -11.070460   -3.341380    5.304830
  C     -9.762740   -2.903530    5.145890
  C    -12.285250   -2.578140    5.862400
  C    -12.122610   -2.133350    7.344240
  C    -12.291240   -3.188500    8.448300
  C    -11.176330   -4.262230    8.457920
  C    -11.691740   -5.686840    8.669660
  C    -12.407730   -2.456260    9.798350
  C    -12.642450   -3.341110   11.020940
  C    -12.634760   -1.334280    4.993960
  C    -11.627460   -0.154270    5.032970
  C    -10.764880   -0.102450    3.749440
  C     -9.339090    0.425610    3.929570
  C    -12.388460    1.151700    5.337710
  C    -11.546850    2.412460    5.529960
  C    -13.375750   -3.624010    5.687010
  C    -12.854160   -4.788250    5.133870
  S    -14.041820   -6.015440    4.910150
  C    -15.301050   -4.946470    5.555620
  C    -14.758420   -3.709020    5.923780
  C    -16.688030   -5.353330    5.644070
  C    -17.125590   -6.685530    5.306560
  N    -16.342420   -7.672420    4.871640
  S    -17.294070   -8.983180    4.619530
  N    -18.737820   -8.339040    5.059820
  C    -18.522250   -7.073100    5.418620
  C    -19.532110   -6.142660    5.874890
  C    -19.064960   -4.859100    6.169750
  C    -17.706400   -4.489300    6.057830
  C    -20.875590   -6.659600    5.981480
  C    -22.090720   -6.141150    6.330780
  S    -23.523450   -7.190410    6.352440
  C    -24.604310   -5.863840    6.766050
  S    -26.229290   -6.047530    6.943510
  N    -23.881400   -4.699310    6.896540
  C    -24.519780   -3.419400    7.220940
  C    -24.845160   -3.281940    8.703640
  C    -22.491180   -4.763020    6.689330
  O    -21.776780   -3.781650    6.789380
  H      0.456600    2.976650   -3.293880
  H     -0.133100    2.287690   -4.840240
  H      2.538480    1.544720   -3.475240
  H      2.371470    2.611550   -4.894680
  H      1.936740    0.887380   -5.027990
  H     -0.863870    0.702240    0.574860
  H     -4.091380   -0.783130    3.587980
  H     -2.379060    0.421250    2.337580
  H     -5.170260   -5.222040    2.286980
  H     -7.436220   -6.934590    1.747360
  H     -9.175160   -6.908220    1.999680
  H     -7.567090   -4.458010    1.123240
  H     -8.341830   -5.014920   -1.223290
  H     -8.783800   -6.617360   -0.646990
  H     -6.348210   -7.035740    0.004030
  H     -6.496820   -6.614360   -1.706930
  H     -5.941980   -5.394260   -0.526990
  H    -10.128120   -4.399050    1.959010
  H    -10.435520   -4.918210    0.311610
  H     -8.892670   -2.395120    1.206890
  H    -10.501130   -2.421660    0.447660
  H     -9.061340   -2.874890   -0.494380
  H     -7.453180   -6.520450    5.408000
  H     -6.417030   -7.122780    4.120980
  H     -9.275970   -8.124900    4.176540
  H     -6.882500   -9.909730    3.817950
  H     -7.103020   -8.708760    2.567790
  H     -9.414450   -9.519200    2.093590
  H     -8.228100  -10.835310    1.935290
  H     -9.273910  -10.742760    3.370720
  H     -8.644320   -8.183290    6.511340
  H     -7.055840   -8.848140    6.139450
  H     -9.720530  -10.369460    5.784670
  H     -8.534750  -10.589730    7.093110
  H     -8.106390  -11.026560    5.432120
  H    -10.806520   -6.530740    3.996600
  H     -9.453100   -1.913770    5.473400
  H    -12.870050   -1.342550    7.521390
  H    -11.140760   -1.646220    7.461780
  H    -13.252200   -3.701680    8.270490
  H    -10.436710   -4.004160    9.235760
  H    -10.620100   -4.235030    7.511770
  H    -12.322060   -5.769640    9.568280
  H    -10.861360   -6.402940    8.775450
  H    -12.305680   -6.005680    7.812210
  H    -13.225490   -1.717200    9.724760
  H    -11.487300   -1.862440    9.953000
  H    -13.560470   -3.942710   10.915950
  H    -12.747610   -2.726660   11.929150
  H    -11.808420   -4.039270   11.192670
  H    -13.618890   -0.985360    5.346560
  H    -12.788900   -1.664640    3.953970
  H    -10.938720   -0.310950    5.878920
  H    -11.294420    0.490040    2.982040
  H    -10.694090   -1.118830    3.333010
  H     -9.306910    1.483710    4.226720
  H     -8.760560    0.314680    2.998760
  H     -8.800980   -0.139360    4.707450
  H    -12.979980    0.980960    6.254140
  H    -13.129870    1.324910    4.535980
  H    -10.726210    2.246120    6.247100
  H    -12.166550    3.235370    5.920240
  H    -11.097890    2.761380    4.587910
  H    -15.358150   -2.907950    6.355910
  H    -19.784870   -4.113430    6.503400
  H    -17.452050   -3.461070    6.318240
  H    -20.907920   -7.721090    5.713760
  H    -25.435530   -3.354400    6.616730
  H    -23.814290   -2.643530    6.895860
  H    -25.554950   -4.059020    9.018650
  H    -25.307270   -2.300210    8.893720
  H    -23.932690   -3.360330    9.313240

----------------------------
CARTESIAN COORDINATES (A.U.)
----------------------------
  NO LB      ZA    FRAG     MASS         X           Y           Z
   0 S    16.0000    0    32.060   -2.534293   -2.302348   -4.944903
   1 C     6.0000    0    12.011   -1.385131   -0.128520   -7.221173
   2 S    16.0000    0    32.060   -1.650071   -0.627125  -10.275858
   3 N     7.0000    0    14.007   -0.281229    1.914217   -6.061429
   4 C     6.0000    0    12.011    0.923131    3.966743   -7.471524
   5 C     6.0000    0    12.011    3.629219    3.327959   -8.238847
   6 C     6.0000    0    12.011   -0.330929    1.963425   -3.412486
   7 O     8.0000    0    15.999    0.566521    3.663366   -2.164776
   8 C     6.0000    0    12.011   -1.711941   -0.291245   -2.422875
   9 C     6.0000    0    12.011   -2.336250   -0.334727    0.070732
  10 C     6.0000    0    12.011   -3.943480   -1.986764    1.537784
  11 C     6.0000    0    12.011   -4.647574   -4.522152    0.856178
  12 N     7.0000    0    14.007   -3.682094   -5.852274   -1.050026
  13 S    16.0000    0    32.060   -5.057833   -8.628376   -1.057925
  14 N     7.0000    0    14.007   -6.923465   -8.243326    1.390064
  15 C     6.0000    0    12.011   -6.534295   -5.925520    2.299986
  16 C     6.0000    0    12.011   -7.799486   -4.788264    4.440138
  17 C     6.0000    0    12.011   -6.908102   -2.406774    5.130493
  18 C     6.0000    0    12.011   -5.042961   -1.081358    3.755755
  19 C     6.0000    0    12.011   -9.953754   -5.984196    5.636770
  20 C     6.0000    0    12.011  -10.808610   -8.462420    5.402803
  21 C     6.0000    0    12.011  -13.180235   -8.836964    6.553325
  22 C     6.0000    0    12.011  -14.136909   -6.689649    7.705453
  23 S    16.0000    0    32.060  -12.130228   -4.132302    7.394763
  24 C     6.0000    0    12.011  -16.709015   -7.105295    8.548308
  25 C     6.0000    0    12.011  -17.381210   -9.605780    7.797256
  26 C     6.0000    0    12.011  -15.120417  -10.952683    6.553986
  27 C     6.0000    0    12.011  -15.630813  -11.857238    3.807345
  28 C     6.0000    0    12.011  -15.819956   -9.797644    1.758806
  29 C     6.0000    0    12.011  -15.289075  -10.914812   -0.878912
  30 C     6.0000    0    12.011  -12.556248  -11.769800   -1.295237
  31 C     6.0000    0    12.011  -18.328151   -8.311885    1.794182
  32 C     6.0000    0    12.011  -18.016951   -5.567303    0.943786
  33 C     6.0000    0    12.011  -14.118238  -13.109616    8.292591
  34 C     6.0000    0    12.011  -15.511401  -15.671801    8.319652
  35 C     6.0000    0    12.011  -14.448978  -17.518517    6.312744
  36 C     6.0000    0    12.011  -16.431679  -19.164242    5.012631
  37 C     6.0000    0    12.011  -15.339890  -16.767502   11.017330
  38 C     6.0000    0    12.011  -16.347813  -19.442712   11.413039
  39 C     6.0000    0    12.011  -19.837400  -10.461410    8.163938
  40 C     6.0000    0    12.011  -21.611834   -8.790590    9.223715
  41 C     6.0000    0    12.011  -20.920138   -6.314293   10.024676
  42 C     6.0000    0    12.011  -18.448905   -5.486877    9.724323
  43 C     6.0000    0    12.011  -23.215758   -4.871979   11.078330
  44 C     6.0000    0    12.011  -22.908413   -4.031447   13.878602
  45 C     6.0000    0    12.011  -23.227077   -6.025392   15.964973
  46 C     6.0000    0    12.011  -21.120203   -8.054447   15.983152
  47 C     6.0000    0    12.011  -22.094187  -10.746570   16.383283
  48 C     6.0000    0    12.011  -23.447212   -4.641659   18.516198
  49 C     6.0000    0    12.011  -23.890768   -6.313783   20.826558
  50 C     6.0000    0    12.011  -23.876236   -2.521424    9.437217
  51 C     6.0000    0    12.011  -21.972715   -0.291528    9.510935
  52 C     6.0000    0    12.011  -20.342675   -0.193602    7.085415
  53 C     6.0000    0    12.011  -17.648322    0.804286    7.425811
  54 C     6.0000    0    12.011  -23.410797    2.176398   10.086810
  55 C     6.0000    0    12.011  -21.820384    4.558889   10.450110
  56 C     6.0000    0    12.011  -25.276504   -6.848386   10.746891
  57 C     6.0000    0    12.011  -24.290842   -9.048481    9.701608
  58 S    16.0000    0    32.060  -26.535194  -11.367534    9.278839
  59 C     6.0000    0    12.011  -28.914794   -9.347474   10.498600
  60 C     6.0000    0    12.011  -27.889372   -7.009032   11.194322
  61 C     6.0000    0    12.011  -31.535806  -10.116328   10.665747
  62 C     6.0000    0    12.011  -32.362675  -12.633821   10.027945
  63 N     7.0000    0    14.007  -30.882698  -14.498773    9.206065
  64 S    16.0000    0    32.060  -32.681056  -16.975750    8.729647
  65 N     7.0000    0    14.007  -35.409348  -15.758502    9.561674
  66 C     6.0000    0    12.011  -35.001980  -13.366222   10.239708
  67 C     6.0000    0    12.011  -36.910339  -11.607945   11.101933
  68 C     6.0000    0    12.011  -36.027553   -9.182368   11.659138
  69 C     6.0000    0    12.011  -33.460247   -8.483548   11.447640
  70 C     6.0000    0    12.011  -39.449148  -12.584820   11.303359
  71 C     6.0000    0    12.011  -41.745411  -11.605092   11.963440
  72 S    16.0000    0    32.060  -44.452878  -13.587906   12.004372
  73 C     6.0000    0    12.011  -46.495408  -11.081052   12.785982
  74 S    16.0000    0    32.060  -49.566175  -11.428175   13.121332
  75 N     7.0000    0    14.007  -45.129306   -8.880409   13.032572
  76 C     6.0000    0    12.011  -46.335669   -6.461730   13.645599
  77 C     6.0000    0    12.011  -46.950548   -6.201968   16.447496
  78 C     6.0000    0    12.011  -42.502171   -9.000803   12.641002
  79 O     8.0000    0    15.999  -41.152150   -7.146283   12.830069
  80 H     1.0000    0     1.008    0.862849    5.625053   -6.224531
  81 H     1.0000    0     1.008   -0.251523    4.323108   -9.146728
  82 H     1.0000    0     1.008    4.797032    2.919098   -6.567252
  83 H     1.0000    0     1.008    4.481429    4.935114   -9.249605
  84 H     1.0000    0     1.008    3.659908    1.676905   -9.501524
  85 H     1.0000    0     1.008   -1.632478    1.327041    1.086328
  86 H     1.0000    0     1.008   -7.731588   -1.479901    6.780300
  87 H     1.0000    0     1.008   -4.495772    0.796047    4.417386
  88 H     1.0000    0     1.008   -9.770375   -9.868225    4.321766
  89 H     1.0000    0     1.008  -14.052419  -13.104476    3.302032
  90 H     1.0000    0     1.008  -17.338540  -13.054644    3.778848
  91 H     1.0000    0     1.008  -14.299728   -8.424418    2.122616
  92 H     1.0000    0     1.008  -15.763774   -9.476825   -2.311683
  93 H     1.0000    0     1.008  -16.598976  -12.504998   -1.222634
  94 H     1.0000    0     1.008  -11.996378  -13.295622    0.007616
  95 H     1.0000    0     1.008  -12.277211  -12.499329   -3.225630
  96 H     1.0000    0     1.008  -11.228715  -10.193674   -0.995867
  97 H     1.0000    0     1.008  -19.139373   -8.313000    3.701992
  98 H     1.0000    0     1.008  -19.720275   -9.294070    0.588858
  99 H     1.0000    0     1.008  -16.804711   -4.526121    2.280692
 100 H     1.0000    0     1.008  -19.844260   -4.576274    0.845955
 101 H     1.0000    0     1.008  -17.123451   -5.432755   -0.934243
 102 H     1.0000    0     1.008  -14.084469  -12.321865   10.219639
 103 H     1.0000    0     1.008  -12.126429  -13.460104    7.787524
 104 H     1.0000    0     1.008  -17.529043  -15.353836    7.892517
 105 H     1.0000    0     1.008  -13.006040  -18.726676    7.214880
 106 H     1.0000    0     1.008  -13.422763  -16.457171    4.852420
 107 H     1.0000    0     1.008  -17.790732  -17.988681    3.956312
 108 H     1.0000    0     1.008  -15.548856  -20.475768    3.657168
 109 H     1.0000    0     1.008  -17.525150  -20.300874    6.369738
 110 H     1.0000    0     1.008  -16.335397  -15.464177   12.304649
 111 H     1.0000    0     1.008  -13.333605  -16.720561   11.601879
 112 H     1.0000    0     1.008  -18.369140  -19.595440   10.931442
 113 H     1.0000    0     1.008  -16.128340  -20.011690   13.404035
 114 H     1.0000    0     1.008  -15.318857  -20.837179   10.265219
 115 H     1.0000    0     1.008  -20.421363  -12.341310    7.552479
 116 H     1.0000    0     1.008  -17.863770   -3.616501   10.343227
 117 H     1.0000    0     1.008  -24.320870   -2.537052   14.213367
 118 H     1.0000    0     1.008  -21.052985   -3.110905   14.100721
 119 H     1.0000    0     1.008  -25.043029   -6.995161   15.628961
 120 H     1.0000    0     1.008  -19.722524   -7.566766   17.453057
 121 H     1.0000    0     1.008  -20.069081   -8.003047   14.195188
 122 H     1.0000    0     1.008  -23.285319  -10.903039   18.081429
 123 H     1.0000    0     1.008  -20.524996  -12.099803   16.583197
 124 H     1.0000    0     1.008  -23.254365  -11.349090   14.762937
 125 H     1.0000    0     1.008  -24.992554   -3.245038   18.377133
 126 H     1.0000    0     1.008  -21.707851   -3.519502   18.808444
 127 H     1.0000    0     1.008  -25.625575   -7.450642   20.628156
 128 H     1.0000    0     1.008  -24.089492   -5.152641   22.542827
 129 H     1.0000    0     1.008  -22.314680   -7.633114   21.151081
 130 H     1.0000    0     1.008  -25.735972   -1.862061   10.103534
 131 H     1.0000    0     1.008  -24.167519   -3.145714    7.471920
 132 H     1.0000    0     1.008  -20.671185   -0.587610   11.109549
 133 H     1.0000    0     1.008  -21.343361    0.926041    5.635239
 134 H     1.0000    0     1.008  -20.208901   -2.114282    6.298476
 135 H     1.0000    0     1.008  -17.587511    2.803806    7.987343
 136 H     1.0000    0     1.008  -16.555059    0.594659    5.666835
 137 H     1.0000    0     1.008  -16.631442   -0.263352    8.895791
 138 H     1.0000    0     1.008  -24.528607    1.853746   11.818612
 139 H     1.0000    0     1.008  -24.811858    2.503717    8.571760
 140 H     1.0000    0     1.008  -20.269599    4.244552   11.805308
 141 H     1.0000    0     1.008  -22.991447    6.113963   11.187632
 142 H     1.0000    0     1.008  -20.971973    5.218252    8.669893
 143 H     1.0000    0     1.008  -29.022697   -5.495229   12.010929
 144 H     1.0000    0     1.008  -37.387986   -7.773256   12.289645
 145 H     1.0000    0     1.008  -32.979595   -6.540474   11.939743
 146 H     1.0000    0     1.008  -39.510243  -14.590746   10.797442
 147 H     1.0000    0     1.008  -48.066186   -6.338897   12.503808
 148 H     1.0000    0     1.008  -45.002486   -4.995548   13.031287
 149 H     1.0000    0     1.008  -48.291857   -7.670436   17.042779
 150 H     1.0000    0     1.008  -47.823809   -4.346767   16.806695
 151 H     1.0000    0     1.008  -45.226230   -6.350103   17.599473

--------------------------------
INTERNAL COORDINATES (ANGSTROEM)
--------------------------------
 S      0   0   0     0.000000000000     0.00000000     0.00000000
 C      1   0   0     1.773138626899     0.00000000     0.00000000
 S      2   1   0     1.643851612342   122.31923160     0.00000000
 N      2   1   3     1.373455135998   110.66593951   180.47520213
 C      4   2   1     1.463795792110   122.77852855   177.52561278
 C      5   4   2     1.526356735301   112.31863145   277.36762479
 C      4   2   1     1.402248504795   116.95684779   357.96031175
 O      7   4   2     1.212727900479   123.41384260   180.33951002
 C      7   4   2     1.493935981493   110.16707792   358.17723729
 C      9   7   4     1.360482410985   118.18299396   191.42886950
 C     10   9   7     1.445792563752   132.36752996   169.64311754
 C     11  10   9     1.438401534030   125.57260176    22.16141384
 N     12  11  10     1.331907670749   125.69549782     9.12880170
 S     13  12  11     1.639549918423   107.76509858   179.56505340
 N     14  13  12     1.641430375161    98.84875270   359.55908390
 C     15  14  13     1.333656254287   107.83195596     0.00000000
 C     16  15  14     1.446727502538   126.42266978   179.38996924
 C     17  16  15     1.394323938438   115.12024491   175.21164361
 C     11  10   9     1.394862780635   119.30772360   205.45010545
 C     17  16  15     1.449506541068   121.62242407   350.89959342
 C     20  17  16     1.392763421906   128.88170083    15.06281945
 C     21  20  17     1.408902874225   112.54252955   188.99932115
 C     22  21  20     1.385351645251   113.59718192   358.93847206
 S     23  22  21     1.728014711830   112.08169609     0.12742497
 C     23  22  21     1.449104914387   110.74416046   172.29932827
 C     25  23  22     1.426655668933   106.81134246   358.04054738
 C     22  21  20     1.519076950190   134.89643827   169.30040719
 C     27  22  21     1.553904613739   110.13872078   312.46838425
 C     28  27  22     1.540461275657   116.84466845   319.10037549
 C     29  28  27     1.541664337559   110.73164774   157.95847584
 C     30  29  28     1.531204843318   114.56208454   291.83072739
 C     29  28  27     1.542783280211   114.07415016   284.43015487
 C     32  29  28     1.529381286468   112.81453265   148.00914206
 C     27  22  21     1.559005795307   108.04841073    75.93487059
 C     34  27  22     1.543386652074   119.08832508   189.41130461
 C     35  34  27     1.548852265970   111.99524368    89.90727606
 C     36  35  34     1.527279560035   114.78969176   217.49600039
 C     35  34  27     1.543479061244   108.08966982   213.84778148
 C     38  35  34     1.527227930762   117.03224243   186.49614551
 C     26  25  23     1.389977448594   119.76098318   185.51863072
 C     40  26  25     1.406395741532   118.37245792     1.44299232
 C     41  40  26     1.425052610748   121.68186184   357.07024435
 C     42  41  40     1.388202486851   119.86384164     1.12159717
 C     42  41  40     1.539199255002   111.16146380   179.26477537
 C     44  42  41     1.555679819018   113.84833533   120.05002015
 C     45  44  42     1.536465451287   118.46635235   283.39941282
 C     46  45  44     1.547905993722   113.68963313    67.45793522
 C     47  46  45     1.529704202714   113.84014306   222.89728283
 C     46  45  44     1.540253336370   108.15927633   192.85543574
 C     49  46  45     1.527343873854   115.96507647   177.48980693
 C     44  42  41     1.556770045093   111.79652211   244.18352482
 C     51  44  42     1.551966066059   116.60046969   290.62018629
 C     52  51  44     1.547313423227   111.49606348   103.92912081
 C     53  52  51     1.531068680563   115.66411123   212.03981254
 C     52  51  44     1.541929021875   109.18492333   231.11479828
 C     55  52  51     1.527999748757   116.86371717   175.14255879
 C     44  42  41     1.521116681586   100.55023249   359.62114395
 C     57  44  42     1.390494431956   110.64871960     0.51906395
 S     58  57  44     1.722376907097   112.92820787   179.96594285
 C     59  58  57     1.773411563823    90.73726811     0.70486578
 C     60  59  58     1.400454071007   110.68159407   359.43947068
 C     60  59  58     1.448127060206   122.20539139   178.59967310
 C     62  60  59     1.442265091341   122.39786568     4.65322051
 N     63  62  60     1.332840023184   125.59343240   359.21502783
 S     64  63  62     1.639295260836   107.52481050   180.24377758
 N     65  64  63     1.641092832901    98.95223312   359.86655746
 C     66  65  64     1.333346147293   107.61539376     0.04872925
 C     67  66  65     1.446968598865   125.62921336   179.94173934
 C     68  67  66     1.397389643478   115.07912865   181.19400131
 C     62  60  59     1.398149718521   122.82427237   184.84374906
 C     68  67  66     1.443442725604   116.26858328     1.92831586
 C     71  68  67     1.366507156732   135.28732903   181.59541078
 S     72  71  68     1.775987318677   119.75714295   181.26691256
 C     73  72  71     1.760431633606    93.03659085   183.13681029
 S     74  73  72     1.644929806436   123.21114490   178.54886723
 N     74  73  72     1.376864782431   109.70905945   359.04179067
 C     76  74  73     1.466606284079   122.04208171   179.17638585
 C     77  76  74     1.524193782299   112.75527347    79.02441610
 C     76  74  73     1.407020467726   117.80845328     0.05102226
 O     79  76  74     1.217975549590   122.07049096   180.25910092
 H      5   4   2     1.098424178539   105.89715647   155.63024358
 H      5   4   2     1.098997619106   106.99291791    39.07990312
 H      6   5   4     1.100533968081   110.88732176   301.10636310
 H      6   5   4     1.101253412571   110.02122408   181.45145415
 H      6   5   4     1.100036335764   110.56894393    61.99412989
 H     10   9   7     1.095818989706   112.30793727   357.19815394
 H     18  17  16     1.092092013019   118.71085911   182.50056619
 H     19  11  10     1.092442913108   118.13105782   353.81347479
 H     21  20  17     1.087437795049   121.79039455     4.97359664
 H     28  27  22     1.097614924552   106.31006256    79.26229397
 H     28  27  22     1.103803728975   109.38497035   193.22566167
 H     29  28  27     1.101044846362   107.24339592    42.55427874
 H     30  29  28     1.103176512894   108.43677227   170.28220929
 H     30  29  28     1.105293644739   109.06615996    55.73110581
 H     31  30  29     1.102291536482   112.35192304    62.03130500
 H     31  30  29     1.101971500766   111.31181699   181.61550673
 H     31  30  29     1.101926743890   110.96347812   302.23057094
 H     32  29  28     1.097047515562   110.33679062    26.77434498
 H     32  29  28     1.104384260029   109.08844133   271.10282767
 H     33  32  29     1.102532091415   110.39019087   295.59063815
 H     33  32  29     1.101243814375   111.80941798   175.78868711
 H     33  32  29     1.102853801961   111.87747352    54.94039571
 H     34  27  22     1.101808358563   105.94463503    65.80370314
 H     34  27  22     1.103082288046   107.76744904   312.91145064
 H     35  34  27     1.104247673577   109.03205206   330.61245728
 H     36  35  34     1.104392686457   108.65229858    94.08122764
 H     36  35  34     1.098870449598   109.82192218   339.79268485
 H     37  36  35     1.103024042893   110.76932668    62.36667053
 H     37  36  35     1.102005466502   111.16728500   181.89886777
 H     37  36  35     1.101063968396   112.25361333   302.55195072
 H     38  35  34     1.103291087837   107.94835941    62.96505336
 H     38  35  34     1.106104198030   107.85786791   309.11789533
 H     39  38  35     1.102547107610   112.02877854   300.07229379
 H     39  38  35     1.101905429608   110.33895021   180.14835984
 H     39  38  35     1.099973152581   111.91648743    61.11027965
 H     40  26  25     1.090787763637   121.37133623   177.97064802
 H     43  42  41     1.087549809112   121.38424634   180.88191765
 H     45  44  42     1.102457852301   106.69443448   161.92451347
 H     45  44  42     1.102334210210   108.72545488    48.40698086
 H     46  45  44     1.103818023997   107.40173375   308.30184545
 H     47  46  45     1.103935204122   108.95277561    99.41930374
 H     47  46  45     1.097875892531   110.02177898   344.58659456
 H     48  47  46     1.100762030050   112.08542679   306.75361578
 H     48  47  46     1.101599599900   111.38960392   185.97842178
 H     48  47  46     1.101726722786   110.45960481    66.13315318
 H     49  46  45     1.104697510317   108.39995435    54.43238869
 H     49  46  45     1.106223395070   108.34897511   300.49076984
 H     50  49  46     1.102590667700   111.58203496   301.83052910
 H     50  49  46     1.101568351125   110.57785400   182.02975665
 H     50  49  46     1.101146956314   112.07108271    62.36011278
 H     51  44  42     1.102081568351   105.96009964   168.74765189
 H     51  44  42     1.102032698834   108.56161480    55.51949896
 H     52  51  44     1.102062980278   108.47095761   346.30376420
 H     53  52  51     1.104698950710   109.08561684    87.35301898
 H     53  52  51     1.100660471444   108.58880608   333.13019360
 H     54  53  52     1.099504108633   113.01422438   294.57057354
 H     54  53  52     1.101548765103   110.78958043   173.14278705
 H     54  53  52     1.101748958429   111.16378102    54.59842470
 H     55  52  51     1.104034421067   107.30720313    53.03391189
 H     55  52  51     1.105649802198   108.68258337   299.42917086
 H     56  55  52     1.102455797209   111.55205561   309.93439871
 H     56  55  52     1.101602213369   110.55422127   190.34910472
 H     56  55  52     1.100349240241   112.25036595    70.68447537
 H     61  60  59     1.090011722276   122.71171256   180.78154540
 H     69  68  67     1.088860174448   118.20730723   179.10084123
 H     70  62  60     1.090763138129   118.90500030     0.53723761
 H     71  68  67     1.095207855797   110.88714906     1.53011577
 H     77  76  74     1.099041758351   107.01941153   317.21365685
 H     77  76  74     1.097892254914   105.75555701   200.73505461
 H     78  77  76     1.098583847779   110.67519335   298.31374727
 H     78  77  76     1.101576076084   109.74181321   179.14915034
 H     78  77  76     1.100163012012   110.82608861    59.44587780

---------------------------
INTERNAL COORDINATES (A.U.)
---------------------------
 S      0   0   0     0.000000000000     0.00000000     0.00000000
 C      1   0   0     3.350746402316     0.00000000     0.00000000
 S      2   1   0     3.106429352132   122.31923160     0.00000000
 N      2   1   3     2.595454064264   110.66593951   180.47520213
 C      4   2   1     2.766173163075   122.77852855   177.52561278
 C      5   4   2     2.884396212386   112.31863145   277.36762479
 C      4   2   1     2.649865645763   116.95684779   357.96031175
 O      7   4   2     2.291723606870   123.41384260   180.33951002
 C      7   4   2     2.823129866633   110.16707792   358.17723729
 C      9   7   4     2.570939166779   118.18299396   191.42886950
 C     10   9   7     2.732151991951   132.36752996   169.64311754
 C     11  10   9     2.718184969929   125.57260176    22.16141384
 N     12  11  10     2.516940733385   125.69549782     9.12880170
 S     13  12  11     3.098300328712   107.76509858   179.56505340
 N     14  13  12     3.101853876953    98.84875270   359.55908390
 C     15  14  13     2.520245077394   107.83195596     0.00000000
 C     16  15  14     2.733918770209   126.42266978   179.38996924
 C     17  16  15     2.634890385617   115.12024491   175.21164361
 C     11  10   9     2.635908649799   119.30772360   205.45010545
 C     17  16  15     2.739170391947   121.62242407   350.89959342
 C     20  17  16     2.631941436746   128.88170083    15.06281945
 C     21  20  17     2.662440581580   112.54252955   188.99932115
 C     22  21  20     2.617935208702   113.59718192   358.93847206
 S     23  22  21     3.265474560745   112.08169609     0.12742497
 C     23  22  21     2.738411427510   110.74416046   172.29932827
 C     25  23  22     2.695988501690   106.81134246   358.04054738
 C     22  21  20     2.870639412212   134.89643827   169.30040719
 C     27  22  21     2.936454158204   110.13872078   312.46838425
 C     28  27  22     2.911049930903   116.84466845   319.10037549
 C     29  28  27     2.913323388419   110.73164774   157.95847584
 C     30  29  28     2.893557808805   114.56208454   291.83072739
 C     29  28  27     2.915437883592   114.07415016   284.43015487
 C     32  29  28     2.890111785770   112.81453265   148.00914206
 C     27  22  21     2.946093994326   108.04841073    75.93487059
 C     34  27  22     2.916578091169   119.08832508   189.41130461
 C     35  34  27     2.926906604586   111.99524368    89.90727606
 C     36  35  34     2.886140098401   114.78969176   217.49600039
 C     35  34  27     2.916752719194   108.08966982   213.84778148
 C     38  35  34     2.886042533216   117.03224243   186.49614551
 C     26  25  23     2.626676710169   119.76098318   185.51863072
 C     40  26  25     2.657702787409   118.37245792     1.44299232
 C     41  40  26     2.692959160743   121.68186184   357.07024435
 C     42  41  40     2.623322518577   119.86384164     1.12159717
 C     42  41  40     2.908665057490   111.16146380   179.26477537
 C     44  42  41     2.939808810012   113.84833533   120.05002015
 C     45  44  42     2.903498917165   118.46635235   283.39941282
 C     46  45  44     2.925118409190   113.68963313    67.45793522
 C     47  46  45     2.890722009037   113.84014306   222.89728283
 C     46  45  44     2.910656982598   108.15927633   192.85543574
 C     49  46  45     2.886261633907   115.96507647   177.48980693
 C     44  42  41     2.941869038719   111.79652211   244.18352482
 C     51  44  42     2.932790833991   116.60046969   290.62018629
 C     52  51  44     2.923998613240   111.49606348   103.92912081
 C     53  52  51     2.893300498488   115.66411123   212.03981254
 C     52  51  44     2.913823569289   109.18492333   231.11479828
 C     55  52  51     2.887501057850   116.86371717   175.14255879
 C     44  42  41     2.874493945937   100.55023249   359.62114395
 C     57  44  42     2.627653667139   110.64871960     0.51906395
 S     58  57  44     3.254820653803   112.92820787   179.96594285
 C     59  58  57     3.351262178354    90.73726811     0.70486578
 C     60  59  58     2.646474657338   110.68159407   359.43947068
 C     60  59  58     2.736563550909   122.20539139   178.59967310
 C     62  60  59     2.725486035149   122.39786568     4.65322051
 N     63  62  60     2.518702624146   125.59343240   359.21502783
 S     64  63  62     3.097819095615   107.52481050   180.24377758
 N     65  64  63     3.101216014524    98.95223312   359.86655746
 C     66  65  64     2.519659060102   107.61539376     0.04872925
 C     67  66  65     2.734374376238   125.62921336   179.94173934
 C     68  67  66     2.640683728552   115.07912865   181.19400131
 C     62  60  59     2.642120062224   122.82427237   184.84374906
 C     68  67  66     2.727711441393   116.26858328     1.92831586
 C     71  68  67     2.582324286267   135.28732903   181.59541078
 S     72  71  68     3.356129649616   119.75714295   181.26691256
 C     73  72  71     3.326733665007    93.03659085   183.13681029
 S     74  73  72     3.108466843687   123.21114490   178.54886723
 N     74  73  72     2.601897362237   109.70905945   359.04179067
 C     76  74  73     2.771484223197   122.04208171   179.17638585
 C     77  76  74     2.880308823571   112.75527347    79.02441610
 C     76  74  73     2.658883348824   117.80845328     0.05102226
 O     79  76  74     2.301640226538   122.07049096   180.25910092
 H      5   4   2     2.075720876317   105.89715647   155.63024358
 H      5   4   2     2.076804521941   106.99291791    39.07990312
 H      6   5   4     2.079707800751   110.88732176   301.10636310
 H      6   5   4     2.081067353806   110.02122408   181.45145415
 H      6   5   4     2.078767411955   110.56894393    61.99412989
 H     10   9   7     2.070797782894   112.30793727   357.19815394
 H     18  17  16     2.063754817649   118.71085911   182.50056619
 H     19  11  10     2.064417922717   118.13105782   353.81347479
 H     21  20  17     2.054959620317   121.79039455     4.97359664
 H     28  27  22     2.074191607909   106.31006256    79.26229397
 H     28  27  22     2.085886753365   109.38497035   193.22566167
 H     29  28  27     2.080673220789   107.24339592    42.55427874
 H     30  29  28     2.084701486743   108.43677227   170.28220929
 H     30  29  28     2.088702286120   109.06615996    55.73110581
 H     31  30  29     2.083029123690   112.35192304    62.03130500
 H     31  30  29     2.082424343834   111.31181699   181.61550673
 H     31  30  29     2.082339765596   110.96347812   302.23057094
 H     32  29  28     2.073119360310   110.33679062    26.77434498
 H     32  29  28     2.086983798068   109.08844133   271.10282767
 H     33  32  29     2.083483706634   110.39019087   295.59063815
 H     33  32  29     2.081049215844   111.80941798   175.78868711
 H     33  32  29     2.084091651460   111.87747352    54.94039571
 H     34  27  22     2.082116049750   105.94463503    65.80370314
 H     34  27  22     2.084523427585   107.76744904   312.91145064
 H     35  34  27     2.086725687080   109.03205206   330.61245728
 H     36  35  34     2.086999721710   108.65229858    94.08122764
 H     36  35  34     2.076564206399   109.82192218   339.79268485
 H     37  36  35     2.084413360198   110.76932668    62.36667053
 H     37  36  35     2.082488529773   111.16728500   181.89886777
 H     37  36  35     2.080709356197   112.25361333   302.55195072
 H     38  35  34     2.084918002008   107.94835941    62.96505336
 H     38  35  34     2.090234009858   107.85786791   309.11789533
 H     39  38  35     2.083512083131   112.02877854   300.07229379
 H     39  38  35     2.082299487440   110.33895021   180.14835984
 H     39  38  35     2.078648013045   111.91648743    61.11027965
 H     40  26  25     2.061290143506   121.37133623   177.97064802
 H     43  42  41     2.055171296220   121.38424634   180.88191765
 H     45  44  42     2.083343415040   106.69443448   161.92451347
 H     45  44  42     2.083109765350   108.72545488    48.40698086
 H     46  45  44     2.085913767040   107.40173375   308.30184545
 H     47  46  45     2.086135205385   108.95277561    99.41930374
 H     47  46  45     2.074684765917   110.02177898   344.58659456
 H     48  47  46     2.080138775414   112.08542679   306.75361578
 H     48  47  46     2.081721553048   111.38960392   185.97842178
 H     48  47  46     2.081961780487   110.45960481    66.13315318
 H     49  46  45     2.087575755323   108.39995435    54.43238869
 H     49  46  45     2.090459259619   108.34897511   300.49076984
 H     50  49  46     2.083594399771   111.58203496   301.83052910
 H     50  49  46     2.081662501421   110.57785400   182.02975665
 H     50  49  46     2.080866180635   112.07108271    62.36011278
 H     51  44  42     2.082632341427   105.96009964   168.74765189
 H     51  44  42     2.082539991423   108.56161480    55.51949896
 H     52  51  44     2.082597215059   108.47095761   346.30376420
 H     53  52  51     2.087578477272   109.08561684    87.35301898
 H     53  52  51     2.079946857462   108.58880608   333.13019360
 H     54  53  52     2.077761648437   113.01422438   294.57057354
 H     54  53  52     2.081625489204   110.78958043   173.14278705
 H     54  53  52     2.082003799764   111.16378102    54.59842470
 H     55  52  51     2.086322698238   107.30720313    53.03391189
 H     55  52  51     2.089375326178   108.68258337   299.42917086
 H     56  55  52     2.083339531479   111.55205561   309.93439871
 H     56  55  52     2.081726491789   110.55422127   190.34910472
 H     56  55  52     2.079358715725   112.25036595    70.68447537
 H     61  60  59     2.059823637866   122.71171256   180.78154540
 H     69  68  67     2.057647527841   118.20730723   179.10084123
 H     70  62  60     2.061243608039   118.90500030     0.53723761
 H     71  68  67     2.069642907176   110.88714906     1.53011577
 H     77  76  74     2.076887933027   107.01941153   317.21365685
 H     77  76  74     2.074715686341   105.75555701   200.73505461
 H     78  77  76     2.076022607451   110.67519335   298.31374727
 H     78  77  76     2.081677099478   109.74181321   179.14915034
 H     78  77  76     2.079006795373   110.82608861    59.44587780

---------------------
BASIS SET INFORMATION
---------------------
There are 5 groups of distinct atoms

 Group   1 Type S   : 10s7p1d contracted to 4s3p1d pattern {5311/511/1}
 Group   2 Type C   : 7s4p1d contracted to 3s2p1d pattern {511/31/1}
 Group   3 Type N   : 7s4p1d contracted to 3s2p1d pattern {511/31/1}
 Group   4 Type O   : 7s4p1d contracted to 3s2p1d pattern {511/31/1}
 Group   5 Type H   : 4s1p contracted to 2s1p pattern {31/1}

Atom   0S    basis set group =>   1
Atom   1C    basis set group =>   2
Atom   2S    basis set group =>   1
Atom   3N    basis set group =>   3
Atom   4C    basis set group =>   2
Atom   5C    basis set group =>   2
Atom   6C    basis set group =>   2
Atom   7O    basis set group =>   4
Atom   8C    basis set group =>   2
Atom   9C    basis set group =>   2
Atom  10C    basis set group =>   2
Atom  11C    basis set group =>   2
Atom  12N    basis set group =>   3
Atom  13S    basis set group =>   1
Atom  14N    basis set group =>   3
Atom  15C    basis set group =>   2
Atom  16C    basis set group =>   2
Atom  17C    basis set group =>   2
Atom  18C    basis set group =>   2
Atom  19C    basis set group =>   2
Atom  20C    basis set group =>   2
Atom  21C    basis set group =>   2
Atom  22C    basis set group =>   2
Atom  23S    basis set group =>   1
Atom  24C    basis set group =>   2
Atom  25C    basis set group =>   2
Atom  26C    basis set group =>   2
Atom  27C    basis set group =>   2
Atom  28C    basis set group =>   2
Atom  29C    basis set group =>   2
Atom  30C    basis set group =>   2
Atom  31C    basis set group =>   2
Atom  32C    basis set group =>   2
Atom  33C    basis set group =>   2
Atom  34C    basis set group =>   2
Atom  35C    basis set group =>   2
Atom  36C    basis set group =>   2
Atom  37C    basis set group =>   2
Atom  38C    basis set group =>   2
Atom  39C    basis set group =>   2
Atom  40C    basis set group =>   2
Atom  41C    basis set group =>   2
Atom  42C    basis set group =>   2
Atom  43C    basis set group =>   2
Atom  44C    basis set group =>   2
Atom  45C    basis set group =>   2
Atom  46C    basis set group =>   2
Atom  47C    basis set group =>   2
Atom  48C    basis set group =>   2
Atom  49C    basis set group =>   2
Atom  50C    basis set group =>   2
Atom  51C    basis set group =>   2
Atom  52C    basis set group =>   2
Atom  53C    basis set group =>   2
Atom  54C    basis set group =>   2
Atom  55C    basis set group =>   2
Atom  56C    basis set group =>   2
Atom  57C    basis set group =>   2
Atom  58S    basis set group =>   1
Atom  59C    basis set group =>   2
Atom  60C    basis set group =>   2
Atom  61C    basis set group =>   2
Atom  62C    basis set group =>   2
Atom  63N    basis set group =>   3
Atom  64S    basis set group =>   1
Atom  65N    basis set group =>   3
Atom  66C    basis set group =>   2
Atom  67C    basis set group =>   2
Atom  68C    basis set group =>   2
Atom  69C    basis set group =>   2
Atom  70C    basis set group =>   2
Atom  71C    basis set group =>   2
Atom  72S    basis set group =>   1
Atom  73C    basis set group =>   2
Atom  74S    basis set group =>   1
Atom  75N    basis set group =>   3
Atom  76C    basis set group =>   2
Atom  77C    basis set group =>   2
Atom  78C    basis set group =>   2
Atom  79O    basis set group =>   4
Atom  80H    basis set group =>   5
Atom  81H    basis set group =>   5
Atom  82H    basis set group =>   5
Atom  83H    basis set group =>   5
Atom  84H    basis set group =>   5
Atom  85H    basis set group =>   5
Atom  86H    basis set group =>   5
Atom  87H    basis set group =>   5
Atom  88H    basis set group =>   5
Atom  89H    basis set group =>   5
Atom  90H    basis set group =>   5
Atom  91H    basis set group =>   5
Atom  92H    basis set group =>   5
Atom  93H    basis set group =>   5
Atom  94H    basis set group =>   5
Atom  95H    basis set group =>   5
Atom  96H    basis set group =>   5
Atom  97H    basis set group =>   5
Atom  98H    basis set group =>   5
Atom  99H    basis set group =>   5
Atom 100H    basis set group =>   5
Atom 101H    basis set group =>   5
Atom 102H    basis set group =>   5
Atom 103H    basis set group =>   5
Atom 104H    basis set group =>   5
Atom 105H    basis set group =>   5
Atom 106H    basis set group =>   5
Atom 107H    basis set group =>   5
Atom 108H    basis set group =>   5
Atom 109H    basis set group =>   5
Atom 110H    basis set group =>   5
Atom 111H    basis set group =>   5
Atom 112H    basis set group =>   5
Atom 113H    basis set group =>   5
Atom 114H    basis set group =>   5
Atom 115H    basis set group =>   5
Atom 116H    basis set group =>   5
Atom 117H    basis set group =>   5
Atom 118H    basis set group =>   5
Atom 119H    basis set group =>   5
Atom 120H    basis set group =>   5
Atom 121H    basis set group =>   5
Atom 122H    basis set group =>   5
Atom 123H    basis set group =>   5
Atom 124H    basis set group =>   5
Atom 125H    basis set group =>   5
Atom 126H    basis set group =>   5
Atom 127H    basis set group =>   5
Atom 128H    basis set group =>   5
Atom 129H    basis set group =>   5
Atom 130H    basis set group =>   5
Atom 131H    basis set group =>   5
Atom 132H    basis set group =>   5
Atom 133H    basis set group =>   5
Atom 134H    basis set group =>   5
Atom 135H    basis set group =>   5
Atom 136H    basis set group =>   5
Atom 137H    basis set group =>   5
Atom 138H    basis set group =>   5
Atom 139H    basis set group =>   5
Atom 140H    basis set group =>   5
Atom 141H    basis set group =>   5
Atom 142H    basis set group =>   5
Atom 143H    basis set group =>   5
Atom 144H    basis set group =>   5
Atom 145H    basis set group =>   5
Atom 146H    basis set group =>   5
Atom 147H    basis set group =>   5
Atom 148H    basis set group =>   5
Atom 149H    basis set group =>   5
Atom 150H    basis set group =>   5
Atom 151H    basis set group =>   5
------------------------------------------------------------------------------
                           ORCA GTO INTEGRAL CALCULATION
------------------------------------------------------------------------------

                         BASIS SET STATISTICS AND STARTUP INFO

 # of primitive gaussian shells          ... 1368
 # of primitive gaussian functions       ... 2520
 # of contracted shells                  ...  712
 # of contracted basis functions         ... 1512
 Highest angular momentum                ...    2
 Maximum contraction depth               ...    5
 Integral package used                   ... LIBINT
 Integral threshhold            Thresh   ...  2.500e-11
 Primitive cut-off              TCut     ...  2.500e-12


------------------------------ INTEGRAL EVALUATION ----------------------------


 * One electron integrals 
 Pre-screening matrix                    ... done
 Shell pair data                         ... done (   0.030 sec)

-------------------------------------------------------------------------------
                                 ORCA SCF
-------------------------------------------------------------------------------

------------
SCF SETTINGS
------------
Hamiltonian:
 Ab initio Hamiltonian  Method          .... Hartree-Fock(GTOs)


General Settings:
 Integral files         IntName         .... EH-IDTBR
 Hartree-Fock type      HFTyp           .... RHF
 Total Charge           Charge          ....    0
 Multiplicity           Mult            ....    1
 Number of Electrons    NEL             ....  642
 Basis Dimension        Dim             .... 1512
 Nuclear Repulsion      ENuc            ....  14995.8838180463 Eh

Convergence Acceleration:
 DIIS                   CNVDIIS         .... on
   Start iteration      DIISMaxIt       ....    12
   Startup error        DIISStart       ....  0.200000
   # of expansion vecs  DIISMaxEq       ....     5
   Bias factor          DIISBfac        ....   1.050
   Max. coefficient     DIISMaxC        ....  10.000
 Newton-Raphson         CNVNR           .... off
 SOSCF                  CNVSOSCF        .... on
   Start iteration      SOSCFMaxIt      ....   150
   Startup grad/error   SOSCFStart      ....  0.003300
 Level Shifting         CNVShift        .... on
   Level shift para.    LevelShift      ....    0.2500
   Turn off err/grad.   ShiftErr        ....    0.0010
 Zerner damping         CNVZerner       .... off
 Static damping         CNVDamp         .... on
   Fraction old density DampFac         ....    0.7000
   Max. Damping (<1)    DampMax         ....    0.9800
   Min. Damping (>=0)   DampMin         ....    0.0000
   Turn off err/grad.   DampErr         ....    0.1000
 Fernandez-Rico         CNVRico         .... off

SCF Procedure:
 Maximum # iterations   MaxIter         ....   125
 SCF integral mode      SCFMode         .... Direct
   Integral package                     .... LIBINT
 Reset frequency        DirectResetFreq ....    20
 Integral Threshold     Thresh          ....  2.500e-11 Eh
 Primitive CutOff       TCut            ....  2.500e-12 Eh

Convergence Tolerance:
 Convergence Check Mode ConvCheckMode   .... Total+1el-Energy
 Convergence forced     ConvForced      .... 1
 Energy Change          TolE            ....  1.000e-08 Eh
 1-El. energy change                    ....  1.000e-05 Eh
 Orbital Gradient       TolG            ....  1.000e-05
 Orbital Rotation angle TolX            ....  1.000e-05
 DIIS Error             TolErr          ....  5.000e-07


Diagonalization of the overlap matrix:
Smallest eigenvalue                        ... 1.863e-04
Time for diagonalization                   ...    0.661 sec
Threshold for overlap eigenvalues          ... 1.000e-08
Number of eigenvalues below threshold      ... 0
Time for construction of square roots      ...    0.269 sec
Total time needed                          ...    0.936 sec

-------------------
DFT GRID GENERATION
-------------------

General Integration Accuracy     IntAcc      ...  4.340
Radial Grid Type                 RadialGrid  ... Gauss-Chebyshev
Angular Grid (max. acc.)         AngularGrid ... Lebedev-110
Angular grid pruning method      GridPruning ... 3 (G Style)
Weight generation scheme         WeightScheme... Becke
Basis function cutoff            BFCut       ...    1.0000e-11
Integration weight cutoff        WCut        ...    1.0000e-14
Grids for H and He will be reduced by one unit

# of grid points (after initial pruning)     ... 191244 (   0.4 sec)
# of grid points (after weights+screening)   ... 164457 (  14.7 sec)
nearest neighbour list constructed           ...    0.0 sec
Grid point re-assignment to atoms done       ...    0.0 sec
Grid point division into batches done        ...    0.1 sec
Reduced shell lists constructed in    3.5 sec

Total number of grid points                  ...   164457
Total number of batches                      ...     2643
Average number of points per batch           ...       62
Average number of grid points per atom       ...     1082
Average number of shells per batch           ...   134.22 (18.85%)
Average number of basis functions per batch  ...   258.24 (17.08%)
Average number of large shells per batch     ...    75.88 (56.53%)
Average number of large basis fcns per batch ...   149.09 (57.73%)
Maximum spatial batch extension              ...  26.82, 24.74, 22.94 au
Average spatial batch extension              ...   3.07,  3.06,  3.27 au

Time for grid setup =   18.692 sec

------------------------------
INITIAL GUESS: MODEL POTENTIAL
------------------------------
Loading Hartree-Fock densities                     ... done
Calculating cut-offs                               ... done
Setting up the integral package                    ... done
Initializing the effective Hamiltonian             ... done
Starting the Coulomb interaction                   ... done (  18.4 sec)
Reading the grid                                   ... done
Mapping shells                                     ... done
Starting the XC term evaluation                    ... done (   3.4 sec)
Transforming the Hamiltonian                       ... done (   0.3 sec)
Diagonalizing the Hamiltonian                      ... done (   0.6 sec)
Back transforming the eigenvectors                 ... done (   0.1 sec)
Now organizing SCF variables                       ... done
                      ------------------
                      INITIAL GUESS DONE (  41.8 sec)
                      ------------------
--------------
SCF ITERATIONS
--------------
ITER       Energy         Delta-E        Max-DP      RMS-DP      [F,P]     Damp
               ***  Starting incremental Fock matrix formation  ***
  0  -6115.7831021851   0.000000000000 0.18708382  0.00107271  0.2446368 0.7000
  1  -6116.8500849639  -1.066982778833 0.13492717  0.00082352  0.1474701 0.7000
                               ***Turning on DIIS***
  2  -6117.4884938250  -0.638408861061 0.29318983  0.00187996  0.0824285 0.0000
  3  -6112.6956210897   4.792872735310 0.09078759  0.00049193  0.0504180 0.0000
  4  -6118.7545371807  -6.058916090973 0.01113810  0.00017528  0.0100530 0.0000
  5  -6118.8214110003  -0.066873819655 0.01116335  0.00008864  0.0074581 0.0000
  6  -6118.7784439979   0.042967002399 0.00708033  0.00005394  0.0034467 0.0000
  7  -6118.8753141319  -0.096870134024 0.00588791  0.00003692  0.0027665 0.0000
                      *** Initiating the SOSCF procedure ***
                           *** Shutting down DIIS ***
                      *** Re-Reading the Fockian *** 
                      *** Removing any level shift *** 
ITER      Energy       Delta-E        Grad      Rot      Max-DP    RMS-DP
  8  -6118.87133177   0.0039823620  0.002803  0.002803  0.004796  0.000029
               *** Restarting incremental Fock matrix formation ***
  9  -6118.83583820   0.0354935740  0.001130  0.004092  0.003153  0.000014
 10  -6118.83597097  -0.0001327729  0.000481  0.005362  0.004246  0.000025
 11  -6118.83604583  -0.0000748639  0.000263  0.000950  0.000722  0.000005
 12  -6118.83605488  -0.0000090461  0.000109  0.000580  0.000295  0.000002
 13  -6118.83605676  -0.0000018806  0.000040  0.000269  0.000184  0.000001
 14  -6118.83605733  -0.0000005693  0.000033  0.000199  0.000115  0.000001
 15  -6118.83605750  -0.0000001753  0.000023  0.000177  0.000096  0.000001
 16  -6118.83605757  -0.0000000622  0.000006  0.000057  0.000033  0.000000
 17  -6118.83605755   0.0000000135  0.000004  0.000022  0.000020  0.000000
                  ***Gradient check signals convergence***
              ***Rediagonalizing the Fockian in SOSCF/NRSCF***

               *****************************************************
               *                     SUCCESS                       *
               *           SCF CONVERGED AFTER  18 CYCLES          *
               *****************************************************


----------------
TOTAL SCF ENERGY
----------------

Total Energy       :        -6118.83605752 Eh         -166501.99392 eV

Components:
Nuclear Repulsion  :        14995.88381805 Eh          408058.74399 eV
Electronic Energy  :       -21114.71987557 Eh         -574560.73792 eV
One Electron Energy:       -38290.25080656 Eh        -1041930.69518 eV
Two Electron Energy:        17175.53093099 Eh          467369.95726 eV

Virial components:
Potential Energy   :       -12221.65923216 Eh         -332568.25515 eV
Kinetic Energy     :         6102.82317464 Eh          166066.26123 eV
Virial Ratio       :            2.00262385


---------------
SCF CONVERGENCE
---------------

  Last Energy change         ...    2.9206e-08  Tolerance :   1.0000e-08
  Last MAX-Density change    ...    6.0919e-06  Tolerance :   1.0000e-07
  Last RMS-Density change    ...    6.0714e-08  Tolerance :   5.0000e-09
  Last Orbital Gradient      ...    1.5664e-06  Tolerance :   1.0000e-05
  Last Orbital Rotation      ...    1.0551e-05  Tolerance :   1.0000e-05

             **** THE GBW FILE WAS UPDATED (EH-IDTBR.gbw) ****
             **** DENSITY FILE WAS UPDATED (EH-IDTBR.scfp) ****
             **** ENERGY FILE WAS UPDATED (EH-IDTBR.en.tmp) ****
             **** THE GBW FILE WAS UPDATED (EH-IDTBR.gbw) ****
             **** DENSITY FILE WAS UPDATED (EH-IDTBR.scfp) ****
----------------
ORBITAL ENERGIES
----------------

  NO   OCC          E(Eh)            E(eV) 
   0   2.0000     -92.041630     -2504.5801 
   1   2.0000     -92.037285     -2504.4619 
   2   2.0000     -91.968923     -2502.6016 
   3   2.0000     -91.967607     -2502.5658 
   4   2.0000     -91.966015     -2502.5225 
   5   2.0000     -91.964562     -2502.4830 
   6   2.0000     -91.884716     -2500.3102 
   7   2.0000     -91.881725     -2500.2289 
   8   2.0000     -20.562515      -559.5345 
   9   2.0000     -20.553937      -559.3011 
  10   2.0000     -15.643245      -425.6743 
  11   2.0000     -15.637864      -425.5279 
  12   2.0000     -15.634366      -425.4327 
  13   2.0000     -15.631227      -425.3473 
  14   2.0000     -15.630474      -425.3268 
  15   2.0000     -15.623950      -425.1493 
  16   2.0000     -11.402863      -310.2877 
  17   2.0000     -11.393201      -310.0248 
  18   2.0000     -11.385661      -309.8196 
  19   2.0000     -11.379066      -309.6401 
  20   2.0000     -11.325794      -308.1905 
  21   2.0000     -11.324876      -308.1655 
  22   2.0000     -11.319996      -308.0327 
  23   2.0000     -11.318944      -308.0041 
  24   2.0000     -11.305566      -307.6401 
  25   2.0000     -11.304307      -307.6058 
  26   2.0000     -11.303665      -307.5884 
  27   2.0000     -11.300752      -307.5091 
  28   2.0000     -11.298762      -307.4549 
  29   2.0000     -11.296222      -307.3858 
  30   2.0000     -11.294549      -307.3403 
  31   2.0000     -11.294102      -307.3281 
  32   2.0000     -11.293920      -307.3232 
  33   2.0000     -11.289278      -307.1969 
  34   2.0000     -11.282912      -307.0236 
  35   2.0000     -11.282638      -307.0162 
  36   2.0000     -11.281568      -306.9871 
  37   2.0000     -11.280821      -306.9667 
  38   2.0000     -11.279758      -306.9378 
  39   2.0000     -11.279738      -306.9373 
  40   2.0000     -11.278088      -306.8924 
  41   2.0000     -11.273656      -306.7718 
  42   2.0000     -11.271271      -306.7069 
  43   2.0000     -11.267660      -306.6086 
  44   2.0000     -11.267536      -306.6052 
  45   2.0000     -11.266398      -306.5743 
  46   2.0000     -11.265993      -306.5632 
  47   2.0000     -11.265482      -306.5494 
  48   2.0000     -11.260306      -306.4085 
  49   2.0000     -11.259636      -306.3903 
  50   2.0000     -11.258865      -306.3693 
  51   2.0000     -11.257871      -306.3422 
  52   2.0000     -11.250393      -306.1388 
  53   2.0000     -11.250128      -306.1315 
  54   2.0000     -11.240533      -305.8705 
  55   2.0000     -11.239844      -305.8517 
  56   2.0000     -11.238446      -305.8137 
  57   2.0000     -11.237072      -305.7763 
  58   2.0000     -11.236988      -305.7740 
  59   2.0000     -11.235571      -305.7354 
  60   2.0000     -11.233603      -305.6819 
  61   2.0000     -11.231883      -305.6351 
  62   2.0000     -11.229965      -305.5829 
  63   2.0000     -11.229964      -305.5829 
  64   2.0000     -11.229829      -305.5792 
  65   2.0000     -11.229448      -305.5688 
  66   2.0000     -11.229427      -305.5682 
  67   2.0000     -11.229296      -305.5647 
  68   2.0000     -11.228842      -305.5523 
  69   2.0000     -11.228037      -305.5304 
  70   2.0000     -11.227434      -305.5140 
  71   2.0000     -11.226170      -305.4796 
  72   2.0000     -11.226098      -305.4777 
  73   2.0000     -11.225572      -305.4633 
  74   2.0000     -11.225318      -305.4564 
  75   2.0000     -11.223709      -305.4126 
  76   2.0000     -11.220036      -305.3127 
  77   2.0000     -11.220026      -305.3124 
  78   2.0000     -11.218601      -305.2737 
  79   2.0000     -11.218321      -305.2660 
  80   2.0000      -9.072200      -246.8671 
  81   2.0000      -9.067966      -246.7519 
  82   2.0000      -9.004385      -245.0218 
  83   2.0000      -9.003443      -244.9961 
  84   2.0000      -9.000304      -244.9107 
  85   2.0000      -8.999738      -244.8953 
  86   2.0000      -8.921573      -242.7683 
  87   2.0000      -8.918608      -242.6877 
  88   2.0000      -6.759313      -183.9303 
  89   2.0000      -6.757564      -183.8827 
  90   2.0000      -6.756048      -183.8414 
  91   2.0000      -6.755093      -183.8154 
  92   2.0000      -6.753360      -183.7683 
  93   2.0000      -6.751831      -183.7267 
  94   2.0000      -6.691733      -182.0913 
  95   2.0000      -6.691010      -182.0716 
  96   2.0000      -6.690518      -182.0582 
  97   2.0000      -6.690050      -182.0455 
  98   2.0000      -6.688177      -181.9945 
  99   2.0000      -6.688149      -181.9938 
 100   2.0000      -6.687417      -181.9739 
 101   2.0000      -6.687084      -181.9648 
 102   2.0000      -6.686248      -181.9421 
 103   2.0000      -6.686055      -181.9368 
 104   2.0000      -6.684249      -181.8877 
 105   2.0000      -6.683859      -181.8771 
 106   2.0000      -6.609847      -179.8631 
 107   2.0000      -6.607113      -179.7887 
 108   2.0000      -6.606882      -179.7824 
 109   2.0000      -6.605694      -179.7501 
 110   2.0000      -6.604186      -179.7090 
 111   2.0000      -6.602745      -179.6698 
 112   2.0000      -1.414433       -38.4887 
 113   2.0000      -1.408110       -38.3166 
 114   2.0000      -1.357660       -36.9438 
 115   2.0000      -1.353953       -36.8429 
 116   2.0000      -1.307644       -35.5828 
 117   2.0000      -1.303755       -35.4770 
 118   2.0000      -1.221216       -33.2310 
 119   2.0000      -1.212741       -33.0004 
 120   2.0000      -1.207428       -32.8558 
 121   2.0000      -1.202660       -32.7261 
 122   2.0000      -1.182973       -32.1903 
 123   2.0000      -1.175808       -31.9954 
 124   2.0000      -1.153120       -31.3780 
 125   2.0000      -1.138715       -30.9860 
 126   2.0000      -1.132208       -30.8089 
 127   2.0000      -1.127077       -30.6693 
 128   2.0000      -1.112753       -30.2796 
 129   2.0000      -1.096444       -29.8357 
 130   2.0000      -1.092508       -29.7287 
 131   2.0000      -1.090718       -29.6799 
 132   2.0000      -1.084118       -29.5003 
 133   2.0000      -1.075351       -29.2618 
 134   2.0000      -1.060200       -28.8495 
 135   2.0000      -1.055949       -28.7338 
 136   2.0000      -1.048330       -28.5265 
 137   2.0000      -1.043248       -28.3882 
 138   2.0000      -1.041748       -28.3474 
 139   2.0000      -1.036339       -28.2002 
 140   2.0000      -1.023821       -27.8596 
 141   2.0000      -1.018674       -27.7195 
 142   2.0000      -1.010288       -27.4913 
 143   2.0000      -1.006437       -27.3865 
 144   2.0000      -1.005241       -27.3540 
 145   2.0000      -1.004019       -27.3207 
 146   2.0000      -1.002813       -27.2879 
 147   2.0000      -1.000447       -27.2235 
 148   2.0000      -0.990531       -26.9537 
 149   2.0000      -0.987789       -26.8791 
 150   2.0000      -0.979558       -26.6551 
 151   2.0000      -0.969621       -26.3847 
 152   2.0000      -0.967441       -26.3254 
 153   2.0000      -0.965473       -26.2719 
 154   2.0000      -0.937631       -25.5142 
 155   2.0000      -0.923300       -25.1243 
 156   2.0000      -0.912175       -24.8215 
 157   2.0000      -0.910382       -24.7728 
 158   2.0000      -0.899958       -24.4891 
 159   2.0000      -0.889814       -24.2131 
 160   2.0000      -0.885393       -24.0928 
 161   2.0000      -0.872077       -23.7304 
 162   2.0000      -0.869270       -23.6540 
 163   2.0000      -0.865154       -23.5420 
 164   2.0000      -0.863162       -23.4878 
 165   2.0000      -0.860535       -23.4163 
 166   2.0000      -0.856346       -23.3024 
 167   2.0000      -0.852625       -23.2011 
 168   2.0000      -0.848318       -23.0839 
 169   2.0000      -0.842947       -22.9378 
 170   2.0000      -0.835816       -22.7437 
 171   2.0000      -0.833890       -22.6913 
 172   2.0000      -0.828605       -22.5475 
 173   2.0000      -0.827090       -22.5063 
 174   2.0000      -0.820647       -22.3309 
 175   2.0000      -0.809971       -22.0404 
 176   2.0000      -0.801486       -21.8095 
 177   2.0000      -0.791194       -21.5295 
 178   2.0000      -0.778552       -21.1855 
 179   2.0000      -0.772483       -21.0203 
 180   2.0000      -0.769299       -20.9337 
 181   2.0000      -0.767288       -20.8790 
 182   2.0000      -0.762673       -20.7534 
 183   2.0000      -0.759998       -20.6806 
 184   2.0000      -0.751599       -20.4521 
 185   2.0000      -0.747303       -20.3352 
 186   2.0000      -0.741980       -20.1903 
 187   2.0000      -0.730065       -19.8661 
 188   2.0000      -0.722396       -19.6574 
 189   2.0000      -0.713457       -19.4142 
 190   2.0000      -0.705905       -19.2086 
 191   2.0000      -0.703100       -19.1323 
 192   2.0000      -0.698030       -18.9944 
 193   2.0000      -0.688791       -18.7430 
 194   2.0000      -0.686185       -18.6720 
 195   2.0000      -0.685233       -18.6461 
 196   2.0000      -0.681797       -18.5526 
 197   2.0000      -0.675975       -18.3942 
 198   2.0000      -0.664964       -18.0946 
 199   2.0000      -0.663901       -18.0657 
 200   2.0000      -0.657790       -17.8994 
 201   2.0000      -0.657131       -17.8814 
 202   2.0000      -0.652403       -17.7528 
 203   2.0000      -0.647795       -17.6274 
 204   2.0000      -0.646510       -17.5924 
 205   2.0000      -0.645483       -17.5645 
 206   2.0000      -0.641692       -17.4613 
 207   2.0000      -0.640542       -17.4300 
 208   2.0000      -0.639230       -17.3943 
 209   2.0000      -0.636770       -17.3274 
 210   2.0000      -0.633131       -17.2284 
 211   2.0000      -0.631848       -17.1935 
 212   2.0000      -0.628619       -17.1056 
 213   2.0000      -0.622245       -16.9321 
 214   2.0000      -0.619120       -16.8471 
 215   2.0000      -0.616371       -16.7723 
 216   2.0000      -0.612907       -16.6780 
 217   2.0000      -0.611806       -16.6481 
 218   2.0000      -0.608055       -16.5460 
 219   2.0000      -0.605783       -16.4842 
 220   2.0000      -0.602842       -16.4042 
 221   2.0000      -0.600437       -16.3387 
 222   2.0000      -0.598112       -16.2755 
 223   2.0000      -0.596437       -16.2299 
 224   2.0000      -0.594651       -16.1813 
 225   2.0000      -0.592651       -16.1269 
 226   2.0000      -0.589365       -16.0374 
 227   2.0000      -0.586429       -15.9576 
 228   2.0000      -0.583375       -15.8744 
 229   2.0000      -0.578079       -15.7303 
[...]
   Maximum Energy change  :     0.000000576024 (vector 2)
   Maximum residual norm  :     0.000000084144

      *** CONVERGENCE OF RESIDUAL NORM REACHED ***

Storing the converged CI vectors               ... EH-IDTBR.cis1

                 *** DAVIDSON DONE ***

Total time for solving the CIS problem: 64393.763sec

-----------------------------
CIS-EXCITED STATES (SINGLETS)
-----------------------------

the weight of the individual excitations are printed if larger than 1.0e-02

STATE  1:  E=   0.099200 au      2.699 eV    21771.9 cm**-1
   318a -> 325a  :     0.014332 (c=  0.11971643)
   319a -> 322a  :     0.198487 (c= -0.44551838)
   320a -> 321a  :     0.623039 (c=  0.78932833)
   320a -> 324a  :     0.026312 (c=  0.16220979)
   320a -> 325a  :     0.019229 (c=  0.13866929)

STATE  2:  E=   0.115653 au      3.147 eV    25382.9 cm**-1
   313a -> 322a  :     0.014587 (c= -0.12077528)
   318a -> 322a  :     0.047007 (c= -0.21681196)
   319a -> 321a  :     0.352323 (c= -0.59356834)
   319a -> 322a  :     0.022870 (c= -0.15122746)
   320a -> 322a  :     0.440764 (c=  0.66390064)
   320a -> 326a  :     0.010597 (c=  0.10294138)

STATE  3:  E=   0.147510 au      4.014 eV    32374.8 cm**-1
   316a -> 321a  :     0.039702 (c= -0.19925283)
   316a -> 322a  :     0.058656 (c= -0.24219031)
   316a -> 324a  :     0.067905 (c= -0.26058539)
   316a -> 325a  :     0.328757 (c=  0.57337341)
   316a -> 326a  :     0.082989 (c=  0.28807797)
   316a -> 327a  :     0.097564 (c=  0.31235275)
   316a -> 328a  :     0.030167 (c=  0.17368623)
   316a -> 329a  :     0.173317 (c= -0.41631359)
   316a -> 331a  :     0.015213 (c=  0.12334130)
   317a -> 325a  :     0.010889 (c=  0.10434980)


----------------------
CIS-EXCITATION SPECTRA
----------------------

Center of mass = (-20.2507, -7.3810,  6.6141)
Calculating the Dipole integrals                  ... done
Transforming integrals                            ... done
Calculating the Linear Momentum integrals         ... done
Transforming integrals                            ... done
Calculating angular momentum integrals            ... done
Transforming integrals                            ... done

-----------------------------------------------------------------------------
         ABSORPTION SPECTRUM VIA TRANSITION ELECTRIC DIPOLE MOMENTS
-----------------------------------------------------------------------------
State   Energy    Wavelength  fosc         T2        TX        TY        TZ  
        (cm-1)      (nm)                 (au**2)    (au)      (au)      (au) 
-----------------------------------------------------------------------------
   1   21771.9    459.3   2.953292361  44.65650   6.18210   1.47952  -2.06133
   2   25382.9    394.0   0.280133607   3.63329  -0.26021   0.82514  -1.69845
   3   32374.8    308.9   0.001296706   0.01319  -0.01226   0.04206  -0.10615

-----------------------------------------------------------------------------
         ABSORPTION SPECTRUM VIA TRANSITION VELOCITY DIPOLE MOMENTS
-----------------------------------------------------------------------------
State   Energy    Wavelength   fosc        P2         PX        PY        PZ  
        (cm-1)      (nm)                 (au**2)     (au)      (au)      (au) 
-----------------------------------------------------------------------------
   1   21771.9    459.3   1.735037303   0.25817  -0.46725  -0.09643   0.17478
   2   25382.9    394.0   0.091089464   0.01580   0.00807  -0.06127   0.10947
   3   32374.8    308.9   0.001796339   0.00040  -0.01940  -0.00369   0.00272

-------------------------------------------------------------------
                             CD SPECTRUM
-------------------------------------------------------------------
State  Energy     Wavelength     R         MX        MY        MZ   
       (cm-1)       (nm)     (1e40*cgs)   (au)      (au)      (au)  
-------------------------------------------------------------------
   1   21771.9    459.3    -356.61349  -0.27742   1.28667   0.45846
   2   25382.9    394.0    266.10107  -0.40035   0.80848   0.12179
   3   32374.8    308.9     14.91210  -0.08758  -0.17501  -0.35721

Total run time:    64503.856 sec

           *** ORCA-CIS/TD-DFT FINISHED WITHOUT ERROR ***

-----------------------
CIS/TD-DFT TOTAL ENERGY
-----------------------

    E(SCF)  =  -6118.836057523 Eh
    DE(CIS) =      0.099200302 Eh (Root  1)
    ----------------------------- ---------
    E(tot)  =  -6118.736857222 Eh


-------------------------   --------------------
FINAL SINGLE POINT ENERGY     -6118.736857221804
-------------------------   --------------------

------------------------------------------------------------------------------
                         ORCA SCF GRADIENT CALCULATION
------------------------------------------------------------------------------


------------
CIS GRADIENT
------------

Reference wavefunction             ... RHF
State of interest                  ... 1
Basis dimension                    ... 1512
DFT-XC contribution needed         ... NO
RI-approximation                   ... OFF
CIS-vectors being read from        ... EH-IDTBR.cis

 => Number of Vectors found: 3
 => Orbital Window: 112...320 -> 321...1511

Reading the CIS file                     ... done
Norm of the CI vector                    ... 1.000000000
Making the CIS (pseudo)densities         ... done
Making operators G(D) and Q(T)           ... done
Transforming the Fock operators          ... done
Making the frozen-core relaxed density   ... done
Constructing the G(H) operator           ... done
Transforming the G(H) operator           ... done
Calculating the CIS Lagrangian           ... done
Solving the Z-vector equations           ... done
Finalizing the relaxed density           ... done
Storing the relaxed density              ... done
Constructing the G(Z) operator           ... done
Transforming the G(Z) operator           ... done
Making the W-matrix                      ... done
Finalizing the W-matrix                  ... done
Transforming the W-matrix                ... done
Nuclear repulsion gradient               ... done
One-Electron gradient                    ... done
Prescreening matrices                    ... done
Two-Electron gradient (4-center)         ... done
                 ---------------------------
                 EXCITED STATE GRADIENT DONE
                 ---------------------------


------------------
CARTESIAN GRADIENT
------------------

   1   S   :   -0.003958793   -0.007570039    0.009312185
   2   C   :   -0.001805890   -0.004259336   -0.006942136
   3   S   :   -0.000445119   -0.000776484   -0.010015892
   4   N   :    0.004899790    0.009149852   -0.007036761
   5   C   :    0.001722620   -0.006805559    0.002538532
   6   C   :   -0.003635410    0.000850323    0.001239584
   7   C   :   -0.014258104   -0.026923872   -0.011326366
   8   O   :    0.018510199    0.036334922    0.026029030
   9   C   :    0.002961757   -0.003224380   -0.018946626
  10   C   :   -0.009516742   -0.012209999    0.018030004
  11   C   :    0.009720270   -0.001145177   -0.015440306
  12   C   :   -0.008334209    0.022505800    0.021863793
  13   N   :    0.028010607    0.001147480   -0.033136704
  14   S   :    0.001334381   -0.014793512   -0.011435489
  15   N   :   -0.022946254   -0.036434691    0.004265959
  16   C   :   -0.001739813    0.029593809    0.018985970
  17   C   :    0.000093475   -0.007322169   -0.005668701
  18   C   :    0.007183574    0.004359637   -0.003195345
  19   C   :   -0.007937944   -0.000795165    0.009866288
  20   C   :    0.004450268    0.002486300   -0.001142706
  21   C   :   -0.001904211   -0.003969680   -0.000908605
  22   C   :    0.002575984   -0.013402040   -0.004948016
  23   C   :    0.000932969    0.007891490    0.003431267
  24   S   :   -0.002215743    0.007580452    0.000250020
  25   C   :   -0.006493590    0.003957253    0.003111491
  26   C   :    0.010350087    0.000234202   -0.004323739
  27   C   :   -0.000666746    0.003614703    0.000412888
  28   C   :    0.000081610    0.006888746    0.001677866
  29   C   :   -0.004979710   -0.005308052    0.000433491
  30   C   :    0.005571905    0.000898929    0.004299631
  31   C   :   -0.005071618    0.001771400    0.000831679
  32   C   :    0.006086580    0.002440780   -0.000962476
  33   C   :   -0.001395164   -0.004944039    0.003351430
  34   C   :   -0.006321714   -0.002519110   -0.004637880
  35   C   :    0.006856316    0.000793114    0.000789547
  36   C   :   -0.007992135    0.000815433    0.001324010
  37   C   :    0.005354743    0.004116199    0.002716606
  38   C   :   -0.003703146   -0.003760724   -0.004967163
  39   C   :    0.002837557    0.005555089   -0.001329826
  40   C   :   -0.011568914    0.001879759    0.004381542
  41   C   :    0.010967555   -0.004408373   -0.003184081
  42   C   :   -0.009579748    0.000081950    0.003936992
  43   C   :    0.010170966   -0.000170683   -0.004280781
  44   C   :   -0.000365847   -0.004169802   -0.001695960
  45   C   :   -0.001851343   -0.006545726   -0.002351030
  46   C   :    0.005785720    0.004003860   -0.000808352
  47   C   :   -0.006851732   -0.001508307    0.000558579
  48   C   :    0.002442195    0.005334568   -0.001116606
  49   C   :   -0.001793095   -0.007972568   -0.000176855
  50   C   :    0.001273089    0.003790869   -0.005005423
  51   C   :    0.006615574    0.000114118    0.003763997
  52   C   :   -0.005056501   -0.000600132   -0.005437107
  53   C   :    0.002894759    0.002100610    0.007096817
  54   C   :   -0.005448172   -0.003780644   -0.000704795
  55   C   :    0.007839970    0.000214244    0.000317382
  56   C   :   -0.003638304   -0.004964590   -0.000194448
  57   C   :    0.007325678    0.007605075    0.002983834
  58   C   :   -0.005804669   -0.003241052    0.000713286
  59   S   :   -0.002434061   -0.004696438   -0.001449155
  60   C   :    0.009741828    0.007803462    0.001957017
  61   C   :   -0.008708231   -0.006438603    0.000481644
  62   C   :   -0.013538953   -0.007481481   -0.000437893
  63   C   :   -0.016499660    0.033055473    0.013306223
  64   N   :    0.040441328   -0.016269825   -0.011455398
  65   S   :    0.003190933   -0.010698775   -0.004101615
  66   N   :   -0.026889546   -0.031608979   -0.005706672
  67   C   :    0.002063171    0.032440554    0.009916937
  68   C   :   -0.002187538   -0.002451933   -0.000289407
  69   C   :   -0.003284623   -0.005872613   -0.001670855
  70   C   :    0.008865116   -0.007379707   -0.004720560
  71   C   :    0.008723020    0.002324319   -0.000565820
  72   C   :   -0.007243045    0.000965739    0.001948860
  73   S   :    0.003204903   -0.008798698   -0.001919233
  74   C   :   -0.007992254   -0.005752885    0.000750100
  75   S   :   -0.009622004    0.000205639    0.002099104
  76   N   :   -0.004973950    0.010957997    0.002763251
  77   C   :    0.001511588   -0.005425093    0.004456417
  78   C   :    0.001113300   -0.000893189   -0.004389764
  79   C   :   -0.012662506   -0.028979663   -0.003656981
  80   O   :    0.029251254    0.037310556    0.002928935
  81   H   :   -0.000901169    0.006691716    0.006591120
  82   H   :   -0.005359673    0.000256293   -0.007383720
  83   H   :    0.003722050   -0.001804969    0.005363920
  84   H   :    0.003202049    0.005135642   -0.003528487
  85   H   :   -0.000468080   -0.006307628   -0.004740686
  86   H   :    0.002985495    0.007613254    0.003743869
  87   H   :   -0.004301587    0.002902299    0.006641193
  88   H   :    0.003183881    0.006998363    0.001930538
  89   H   :    0.004755863   -0.005306019   -0.005525504
  90   H   :    0.007022373   -0.005777643   -0.002229860
  91   H   :   -0.006225020   -0.004537366    0.000458348
  92   H   :    0.006564070    0.005363289    0.002704716
  93   H   :   -0.002201303    0.005278485   -0.004621381
  94   H   :   -0.004577558   -0.004501030   -0.000758034
  95   H   :    0.002006402   -0.005226579    0.005700337
  96   H   :    0.001523527   -0.003471144   -0.006131856
  97   H   :    0.005261611    0.006127302    0.002440954
  98   H   :   -0.002542241   -0.000714282    0.008716406
  99   H   :   -0.003901219   -0.003678409   -0.003230316
 100   H   :    0.004252083    0.003250926    0.004823138
 101   H   :   -0.005440095    0.003694903   -0.000158219
 102   H   :    0.003908712    0.000102602   -0.006329084
 103   H   :   -0.000874464    0.003153642    0.006942594
 104   H   :    0.006450006   -0.000970963   -0.002223907
 105   H   :   -0.007471737    0.001795613   -0.002448115
 106   H   :    0.004633783   -0.003853662    0.003861646
 107   H   :    0.003802929    0.005582591   -0.005161496
 108   H   :   -0.004747536    0.004399941   -0.003193075
 109   H   :    0.002919003   -0.004528304   -0.004515040
 110   H   :   -0.004303542   -0.004065087    0.005723910
 111   H   :   -0.003177300    0.004682739    0.003622598
 112   H   :    0.006777107    0.000539272    0.001840188
 113   H   :   -0.006643250   -0.000962009   -0.002113110
 114   H   :    0.001326469   -0.002580711    0.006617745
 115   H   :    0.003577997   -0.004225140   -0.004438992
 116   H   :   -0.001689309   -0.007444374   -0.002419894
 117   H   :    0.002318680    0.008801115    0.002281100
 118   H   :   -0.004678871    0.005311081    0.000927001
 119   H   :    0.006880196    0.003771935   -0.000072969
 120   H   :   -0.006663740   -0.003753891   -0.002350961
 121   H   :    0.004286920    0.002517935    0.004572924
 122   H   :    0.003248783    0.001262500   -0.008419536
 123   H   :   -0.004890075   -0.000073908    0.005536246
 124   H   :    0.004857875   -0.004353686    0.001031345
 125   H   :   -0.004243446   -0.001319463   -0.006027696
 126   H   :   -0.004680142    0.005614341   -0.001587080
 127   H   :    0.005708960    0.004021776    0.000191607
 128   H   :   -0.005408657   -0.004376861   -0.000717283
 129   H   :   -0.000437197    0.003728361    0.005833679
 130   H   :    0.005538862   -0.005228424    0.000707507
 131   H   :   -0.006510710    0.002336371    0.003032182
 132   H   :   -0.000795696   -0.002387878   -0.006815822
 133   H   :    0.005226512   -0.001986452    0.005828291
 134   H   :   -0.003841233    0.003007070   -0.004294935
 135   H   :    0.000298479   -0.007951015   -0.002303347
 136   H   :    0.000041482    0.007421005    0.003222109
 137   H   :    0.004372113   -0.001845303   -0.005672582
 138   H   :    0.003273213   -0.005197099    0.005676572
 139   H   :   -0.004418103   -0.002158077    0.005646005
 140   H   :   -0.004675455    0.000626220   -0.004908320
 141   H   :    0.005538446   -0.001164651    0.003771008
 142   H   :   -0.003536798    0.005422901    0.002763675
 143   H   :    0.003346853    0.002091506   -0.005964157
 144   H   :   -0.004725047    0.005971014    0.003395366
 145   H   :   -0.007947993    0.005552649    0.002834962
 146   H   :    0.003038195    0.007842823    0.002157864
 147   H   :    0.000426604   -0.008645598   -0.002929355
 148   H   :   -0.007323668   -0.000577488   -0.004519194
 149   H   :    0.007069793    0.005798405   -0.002824254
 150   H   :   -0.005212968   -0.005602153    0.001279453
 151   H   :   -0.003556284    0.006032492    0.001383762
 152   H   :    0.005383901   -0.001024028    0.003323727

Difference to translation invariance:
           :    0.0000000004   -0.0000000000   -0.0000000001

Norm of the cartesian gradient     ...    0.1736792251
RMS gradient                       ...    0.0081332749
MAX gradient                       ...    0.0404413283

-------
TIMINGS
-------

Total CIS gradient time            ...    37789.642 sec

Fock matrix formation       ....    2918.438 sec  (  7.7%)
  Coulomb formation         ....    2918.438 sec  (100.0% of F)
Z-vector equation           ....   31712.194 sec  ( 83.9%)
One electron gradient       ....      28.420 sec  (  0.1%)
Prescreening matrices       ....       1.436 sec  (  0.0%)
Two electron gradient       ....    3124.303 sec  (  8.3%)

                            ***************************************
                            *     ORCA property calculations      *
                            ***************************************

                                    ---------------------
                                    Active property flags
                                    ---------------------
   (+) Dipole Moment


------------------------------------------------------------------------------
                       ORCA ELECTRIC PROPERTIES CALCULATION
------------------------------------------------------------------------------

Dipole Moment Calculation                       ... on
Quadrupole Moment Calculation                   ... off
Polarizability Calculation                      ... off
GBWName                                         ... EH-IDTBR.gbw
Electron density file                           ... EH-IDTBR.scfp
The origin for moment calculation is the CENTER OF MASS  = (-20.250719, -7.380959  6.614074)

-------------
DIPOLE MOMENT
-------------
                                X             Y             Z
Electronic contribution:    -27.60213     -17.61222     -49.10570
Nuclear contribution   :     28.58301      18.06070      50.74845
                        -----------------------------------------
Total Dipole Moment    :      0.98088       0.44848       1.64275
                        -----------------------------------------
Magnitude (a.u.)       :      1.96516
Magnitude (Debye)      :      4.99505



--------------------
Rotational spectrum 
--------------------
 
Rotational constants in cm-1:     0.001275     0.000194     0.000189 
Rotational constants in MHz :    38.220476     5.817167     5.655027 

 Dipole components along the rotational axes: 
x,y,z [a.u.] :    -0.367015    -0.251164     1.914180 
x,y,z [Debye]:    -0.932878    -0.638408     4.865459 

 

                        *** CIS RELAXED DENSITY ***

------------------------------------------------------------------------------
                       ORCA ELECTRIC PROPERTIES CALCULATION
------------------------------------------------------------------------------

Dipole Moment Calculation                       ... on
Quadrupole Moment Calculation                   ... off
Polarizability Calculation                      ... off
GBWName                                         ... EH-IDTBR.gbw
Electron density file                           ... EH-IDTBR.cisp
The origin for moment calculation is the CENTER OF MASS  = (-20.250719, -7.380959  6.614074)

-------------
DIPOLE MOMENT
-------------
                                X             Y             Z
Electronic contribution:    -26.82551     -17.33009     -48.89745
Nuclear contribution   :     28.58301      18.06070      50.74845
                        -----------------------------------------
Total Dipole Moment    :      1.75750       0.73061       1.85100
                        -----------------------------------------
Magnitude (a.u.)       :      2.65495
Magnitude (Debye)      :      6.74835



--------------------
Rotational spectrum 
--------------------
 
Rotational constants in cm-1:     0.001275     0.000194     0.000189 
Rotational constants in MHz :    38.220476     5.817167     5.655027 

 Dipole components along the rotational axes: 
x,y,z [a.u.] :    -1.050167    -0.360477     2.411633 
x,y,z [Debye]:    -2.669312    -0.916259     6.129884 

 

Timings for individual modules:

Sum of individual times         ...   115331.433 sec (=1922.191 min)
GTO integral calculation        ...        5.271 sec (=   0.088 min)   0.0 %
SCF iterations                  ...    13032.544 sec (= 217.209 min)  11.3 %
CIS module                      ...    64503.935 sec (=1075.066 min)  55.9 %
SCF Gradient evaluation         ...    37789.683 sec (= 629.828 min)  32.8 %
                             ****ORCA TERMINATED NORMALLY****
TOTAL RUN TIME: 1 days 8 hours 2 minutes 12 seconds 575 msec
