
                                 *****************
                                 * O   R   C   A *
                                 *****************

           --- An Ab Initio, DFT and Semiempirical electronic structure package ---

                  #######################################################
                  #                        -***-                        #
                  #          Department of theory and spectroscopy      #
                  #               Directorship: Frank Neese             #
                  #        Max Planck Institute fuer Kohlenforschung    #
                  #                Kaiser Wilhelm Platz 1               #
                  #                 D-45470 Muelheim/Ruhr               #
                  #                      Germany                        #
                  #                                                     #
                  #                  All rights reserved                #
                  #                        -***-                        #
                  #######################################################


                         Program Version 4.2.0 -  RELEASE  -


 With contributions from (in alphabetic order):
   Daniel Aravena         : Magnetic Suceptibility
   Michael Atanasov       : Ab Initio Ligand Field Theory (pilot matlab implementation)
   Alexander A. Auer      : GIAO ZORA, VPT2
   Ute Becker             : Parallelization
   Giovanni Bistoni       : ED, misc. LED, open-shell LED, HFLED
   Martin Brehm           : Molecular dynamics
   Dmytro Bykov           : SCF Hessian
   Vijay G. Chilkuri      : MRCI spin determinant printing, contributions to CSF-ICE
   Dipayan Datta          : RHF DLPNO-CCSD density
   Achintya Kumar Dutta   : EOM-CC, STEOM-CC
   Dmitry Ganyushin       : Spin-Orbit,Spin-Spin,Magnetic field MRCI
   Miquel Garcia          : C-PCM Hessian, Gaussian charge scheme
   Yang Guo               : DLPNO-NEVPT2, CIM, IAO-localization
   Andreas Hansen         : Spin unrestricted coupled pair/coupled cluster methods
   Benjamin Helmich-Paris : CASSCF linear response (MC-RPA)
   Lee Huntington         : MR-EOM, pCC
   Robert Izsak           : Overlap fitted RIJCOSX, COSX-SCS-MP3, EOM
   Christian Kollmar      : KDIIS, OOCD, Brueckner-CCSD(T), CCSD density
   Simone Kossmann        : Meta GGA functionals, TD-DFT gradient, OOMP2, MP2 Hessian
   Martin Krupicka        : AUTO-CI
   Lucas Lang             : DCDCAS
   Dagmar Lenk            : GEPOL surface, SMD
   Dimitrios Liakos       : Extrapolation schemes; Compound Job, initial MDCI parallelization
   Dimitrios Manganas     : Further ROCIS development; embedding schemes
   Dimitrios Pantazis     : SARC Basis sets
   Taras Petrenko         : DFT Hessian,TD-DFT gradient, ASA, ECA, R-Raman, ABS, FL, XAS/XES, NRVS
   Peter Pinski           : DLPNO-MP2, DLPNO-MP2 Gradient
   Christoph Reimann      : Effective Core Potentials
   Marius Retegan         : Local ZFS, SOC
   Christoph Riplinger    : Optimizer, TS searches, QM/MM, DLPNO-CCSD(T), (RO)-DLPNO pert. Triples
   Tobias Risthaus        : Range-separated hybrids, TD-DFT gradient, RPA, STAB
   Michael Roemelt        : Original ROCIS implementation
   Masaaki Saitow         : Open-shell DLPNO-CCSD energy and density
   Barbara Sandhoefer     : DKH picture change effects
   Avijit Sen             : IP-ROCIS
   Kantharuban Sivalingam : CASSCF convergence, NEVPT2, FIC-MRCI
   Bernardo de Souza      : ESD, SOC TD-DFT
   Georgi Stoychev        : AutoAux, RI-MP2 NMR
   Willem Van den Heuvel  : Paramagnetic NMR
   Boris Wezisla          : Elementary symmetry handling
   Frank Wennmohs         : Technical directorship


 We gratefully acknowledge several colleagues who have allowed us to
 interface, adapt or use parts of their codes:
   Stefan Grimme, W. Hujo, H. Kruse,             : VdW corrections, initial TS optimization,
                  C. Bannwarth                     DFT functionals, gCP, sTDA/sTD-DF
   Ed Valeev, F. Pavosevic, A. Kumar             : LibInt (2-el integral package), F12 methods
   Garnet Chan, S. Sharma, J. Yang, R. Olivares  : DMRG
   Ulf Ekstrom                                   : XCFun DFT Library
   Mihaly Kallay                                 : mrcc  (arbitrary order and MRCC methods)
   Andreas Klamt, Michael Diedenhofen            : otool_cosmo (COSMO solvation model)
   Jiri Pittner, Ondrej Demel                    : Mk-CCSD
   Frank Weinhold                                : gennbo (NPA and NBO analysis)
   Christopher J. Cramer and Donald G. Truhlar   : smd solvation model
   Lars Goerigk                                  : TD-DFT with DH, B97 family of functionals
   V. Asgeirsson, H. Jonsson                     : NEB implementation
   FAccTs GmbH                                   : IRC, NEB, NEB-TS, Multilevel, MM, QM/MM, CI optimization
   S Lehtola, MJT Oliveira, MAL Marques          : LibXC Library


 Your calculation uses the libint2 library for the computation of 2-el integrals
 For citations please refer to: http://libint.valeyev.net

 Your ORCA version has been built with support for libXC version: 4.2.3
 For citations please refer to: https://tddft.org/programs/libxc/

 This ORCA versions uses:
   CBLAS   interface :  Fast vector & matrix operations
   LAPACKE interface :  Fast linear algebra routines
   SCALAPACK package :  Parallel linear algebra routines


----- Orbital basis set information -----
Your calculation utilizes the basis: def2-SVP
   F. Weigend and R. Ahlrichs, Phys. Chem. Chem. Phys. 7, 3297 (2005).

================================================================================
                                        WARNINGS
                       Please study these warnings very carefully!
================================================================================

INFO   : Checking CIS options ...

WARNING: CIS/ROCIS methods need fully converged wavefunctions
  ===> : Setting SCFConvForced true
         You can overwrite this default with %scf ConvForced false 


INFO   : the flag for use of LIBINT has been found!

================================================================================
                                       INPUT FILE
================================================================================
NAME = EH-IDTBR.inp
|  1> # ORCA input file
|  2> # EH-IDTBR.out
|  3> ! Engrad Keepdens
|  4> %maxcore 1000
|  5> %tddft
|  6>   nroots 3 
|  7>   # nroots is the number of states to be computed
|  8>   Iroot 1
|  9>   end
| 10> * xyz 0 1
| 11>    S        0.61229        -2.15591        -0.85768
| 12>    C        2.18308        -1.55453        -1.38374
| 13>    S        3.26216        -2.45483        -2.21489
| 14>    N        2.35756        -0.25985        -1.01998
| 15>    C        3.57409         0.47514        -1.30661
| 16>    C        4.64784         0.18879        -0.26454
| 17>    C        1.32423         0.33008        -0.32050
| 18>    O        1.34517         1.47858         0.06521
| 19>    C        0.21959        -0.62312        -0.12739
| 20>    C       -0.87856        -0.21639         0.55570
| 21>    C       -2.08286        -0.88519         0.91479
| 22>    C       -2.41274        -2.22073         0.56450
| 23>    N       -1.68388        -3.05867        -0.16310
| 24>    S       -2.45967        -4.45907        -0.31136
| 25>    N       -3.76421        -4.07483         0.54452
| 26>    C       -3.65165        -2.82346         0.98646
| 27>    C       -4.59108        -2.09355         1.76713
| 28>    C       -4.23482        -0.78338         2.07624
| 29>    C       -3.04055        -0.20875         1.67158
| 30>    C       -5.82445        -2.66971         2.19286
| 31>    C       -6.26507        -3.96941         2.01240
| 32>    C       -7.53653        -4.17497         2.53389
| 33>    C       -8.07096        -3.04202         3.12565
| 34>    S       -7.01341        -1.69537         3.04596
| 35>    C       -9.38603        -3.30030         3.61414
| 36>    C       -9.68907        -4.64917         3.30230
| 37>    C       -8.50776        -5.32311         2.62291
| 38>    C       -8.81357        -5.88871         1.22696
| 39>    C       -9.23794        -4.82913         0.19482
| 40>    C       -8.71840        -5.20368        -1.20047
| 41>    C       -7.22496        -4.95033        -1.37379
| 42>    C      -10.76359        -4.65415         0.17254
| 43>    C      -11.19518        -3.30817        -0.39748
| 44>    C       -7.88048        -6.38581         3.55855
| 45>    C       -8.65887        -7.70746         3.70811
| 46>    C       -8.03665        -8.83523         2.86207
| 47>    C       -9.07102        -9.68653         2.13192
| 48>    C       -8.73578        -8.07440         5.19750
| 49>    C       -9.60151        -9.29246         5.49489
| 50>    C      -10.91311        -5.16833         3.65730
| 51>    C      -11.81174        -4.32897         4.31260
| 52>    C      -11.51238        -2.97735         4.60487
| 53>    C      -10.28195        -2.46224         4.27065
| 54>    C      -12.67992        -2.29848         5.29169
| 55>    C      -12.32284        -1.63139         6.63171
| 56>    C      -12.01477        -2.60560         7.78152
| 57>    C      -10.61724        -3.24339         7.66201
| 58>    C      -10.65237        -4.76639         7.72263
| 59>    C      -12.17761        -1.86880         9.11911
| 60>    C      -12.12236        -2.79937        10.32474
| 61>    C      -13.39875        -1.29690         4.35045
| 62>    C      -12.58718        -0.10015         3.81481
| 63>    C      -12.02511        -0.41802         2.41711
| 64>    C      -10.69661         0.25527         2.08387
| 65>    C      -13.51793         1.12417         3.81134
| 66>    C      -12.88364         2.42798         3.34340
| 67>    C      -13.62686        -3.46055         5.45328
| 68>    C      -13.11083        -4.59537         4.84247
| 69>    S      -14.16236        -5.94605         4.95130
| 70>    C      -15.32782        -4.97316         5.82332
| 71>    C      -14.88429        -3.66911         6.00139
| 72>    C      -16.56213        -5.54419         6.25004
| 73>    C      -16.86503        -6.90661         5.98353
| 74>    N      -16.08781        -7.78212         5.35278
| 75>    S      -16.84587        -9.19971         5.28398
| 76>    N      -18.19430        -8.77066         6.04950
| 77>    C      -18.11005        -7.48860         6.39618
| 78>    C      -19.09211        -6.72092         7.08820
| 79>    C      -18.75232        -5.39165         7.33480
| 80>    C      -17.54574        -4.83307         6.93541
| 81>    C      -20.29719        -7.39166         7.44488
| 82>    C      -21.43676        -6.99664         8.07599
| 83>    S      -22.70749        -8.19943         8.30393
| 84>    C      -23.75888        -7.04689         9.09922
| 85>    S      -25.25295        -7.39105         9.66057
| 86>    N      -23.14953        -5.83712         9.16632
| 87>    C      -23.78259        -4.69657         9.80030
| 88>    C      -23.57452        -4.71916        11.30928
| 89>    C      -21.87372        -5.71964         8.63668
| 90>    O      -21.27131        -4.66533         8.66564
| 91>    H        3.30573         1.53410        -1.29796
| 92>    H        3.91958         0.18174        -2.30065
| 93>    H        4.29505         0.46709         0.72586
| 94>    H        5.53968         0.76460        -0.49342
| 95>    H        4.90384        -0.86801        -0.26804
| 96>    H       -0.81130         0.81404         0.89341
| 97>    H       -4.92262        -0.19100         2.66222
| 98>    H       -2.83657         0.81244         1.95799
| 99>    H       -5.66202        -4.70197         1.51060
|100>    H       -7.90568        -6.38202         0.87919
|101>    H       -9.59403        -6.64582         1.29961
|102>    H       -8.79222        -3.86796         0.47009
|103>    H       -9.25339        -4.61502        -1.94732
|104>    H       -8.93839        -6.25630        -1.39479
|105>    H       -6.63341        -5.56193        -0.69757
|106>    H       -6.91895        -5.18282        -2.39138
|107>    H       -6.99079        -3.90644        -1.17518
|108>    H      -11.14998        -4.73044         1.18958
|109>    H      -11.20819        -5.46196        -0.41409
|110>    H      -10.78208        -2.49813         0.20013
|111>    H      -12.27949        -3.22257        -0.38589
|112>    H      -10.85699        -3.18306        -1.42311
|113>    H       -7.77259        -5.91509         4.53917
|114>    H       -6.87163        -6.59643         3.19804
|115>    H       -9.68218        -7.55760         3.36170
|116>    H       -7.42697        -9.47521         3.50313
|117>    H       -7.36890        -8.40768         2.11216
|118>    H       -9.63218        -9.08021         1.42354
|119>    H       -8.57817       -10.48228         1.57725
|120>    H       -9.77447       -10.13923         2.82442
|121>    H       -9.15210        -7.21993         5.73782
|122>    H       -7.72518        -8.24701         5.57630
|123>    H      -10.60357        -9.15570         5.09339
|124>    H       -9.68421        -9.43438         6.57037
|125>    H       -9.17331       -10.19575         5.06929
|126>    H      -11.20230        -6.18605         3.44764
|127>    H       -9.99681        -1.45046         4.51095
|128>    H      -13.17826        -1.01811         6.92463
|129>    H      -11.47340        -0.96142         6.49204
|130>    H      -12.76355        -3.40377         7.75597
|131>    H       -9.97563        -2.86951         8.46239
|132>    H      -10.15351        -2.94965         6.72078
|133>    H      -11.09910        -5.10956         8.65254
|134>    H       -9.64368        -5.17024         7.65819
|135>    H      -11.23262        -5.16773         6.89465
|136>    H      -13.14267        -1.35586         9.12676
|137>    H      -11.40002        -1.10619         9.20834
|138>    H      -12.89736        -3.55966        10.25179
|139>    H      -12.28149        -2.23611        11.24160
|140>    H      -11.15883        -3.29638        10.39661
|141>    H      -14.26165        -0.92525         4.90754
|142>    H      -13.79193        -1.85765         3.49867
|143>    H      -11.75643         0.11332         4.49183
|144>    H      -12.76861        -0.13854         1.66695
|145>    H      -11.87567        -1.49693         2.33678
|146>    H      -10.76503         1.33669         2.12956
|147>    H      -10.38828        -0.02093         1.07707
|148>    H       -9.91544        -0.06379         2.76933
|149>    H      -13.88197         1.27272         4.83158
|150>    H      -14.38400         0.90393         3.18184
|151>    H      -11.96494         2.62746         3.89065
|152>    H      -13.57019         3.25352         3.52046
|153>    H      -12.66422         2.40100         2.28009
|154>    H      -15.45615        -2.91938         6.51658
|155>    H      -19.45828        -4.76727         7.85639
|156>    H      -17.37038        -3.79480         7.16835
|157>    H      -20.28982        -8.43290         7.13845
|158>    H      -24.84806        -4.72683         9.56155
|159>    H      -23.32443        -3.80530         9.36521
|160>    H      -24.01817        -5.61472        11.73769
|161>    H      -24.04764        -3.84883        11.75418
|162>    H      -22.51273        -4.69984        11.54386
|163> *
|164> 
|165>                          ****END OF INPUT****
================================================================================

                     *******************************
                     * Energy+Gradient Calculation *
                     *******************************

---------------------------------
CARTESIAN COORDINATES (ANGSTROEM)
---------------------------------
  S      0.612290   -2.155910   -0.857680
  C      2.183080   -1.554530   -1.383740
  S      3.262160   -2.454830   -2.214890
  N      2.357560   -0.259850   -1.019980
  C      3.574090    0.475140   -1.306610
  C      4.647840    0.188790   -0.264540
  C      1.324230    0.330080   -0.320500
  O      1.345170    1.478580    0.065210
  C      0.219590   -0.623120   -0.127390
  C     -0.878560   -0.216390    0.555700
  C     -2.082860   -0.885190    0.914790
  C     -2.412740   -2.220730    0.564500
  N     -1.683880   -3.058670   -0.163100
  S     -2.459670   -4.459070   -0.311360
  N     -3.764210   -4.074830    0.544520
  C     -3.651650   -2.823460    0.986460
  C     -4.591080   -2.093550    1.767130
  C     -4.234820   -0.783380    2.076240
  C     -3.040550   -0.208750    1.671580
  C     -5.824450   -2.669710    2.192860
  C     -6.265070   -3.969410    2.012400
  C     -7.536530   -4.174970    2.533890
  C     -8.070960   -3.042020    3.125650
  S     -7.013410   -1.695370    3.045960
  C     -9.386030   -3.300300    3.614140
  C     -9.689070   -4.649170    3.302300
  C     -8.507760   -5.323110    2.622910
  C     -8.813570   -5.888710    1.226960
  C     -9.237940   -4.829130    0.194820
  C     -8.718400   -5.203680   -1.200470
  C     -7.224960   -4.950330   -1.373790
  C    -10.763590   -4.654150    0.172540
  C    -11.195180   -3.308170   -0.397480
  C     -7.880480   -6.385810    3.558550
  C     -8.658870   -7.707460    3.708110
  C     -8.036650   -8.835230    2.862070
  C     -9.071020   -9.686530    2.131920
  C     -8.735780   -8.074400    5.197500
  C     -9.601510   -9.292460    5.494890
  C    -10.913110   -5.168330    3.657300
  C    -11.811740   -4.328970    4.312600
  C    -11.512380   -2.977350    4.604870
  C    -10.281950   -2.462240    4.270650
  C    -12.679920   -2.298480    5.291690
  C    -12.322840   -1.631390    6.631710
  C    -12.014770   -2.605600    7.781520
  C    -10.617240   -3.243390    7.662010
  C    -10.652370   -4.766390    7.722630
  C    -12.177610   -1.868800    9.119110
  C    -12.122360   -2.799370   10.324740
  C    -13.398750   -1.296900    4.350450
  C    -12.587180   -0.100150    3.814810
  C    -12.025110   -0.418020    2.417110
  C    -10.696610    0.255270    2.083870
  C    -13.517930    1.124170    3.811340
  C    -12.883640    2.427980    3.343400
  C    -13.626860   -3.460550    5.453280
  C    -13.110830   -4.595370    4.842470
  S    -14.162360   -5.946050    4.951300
  C    -15.327820   -4.973160    5.823320
  C    -14.884290   -3.669110    6.001390
  C    -16.562130   -5.544190    6.250040
  C    -16.865030   -6.906610    5.983530
  N    -16.087810   -7.782120    5.352780
  S    -16.845870   -9.199710    5.283980
  N    -18.194300   -8.770660    6.049500
  C    -18.110050   -7.488600    6.396180
  C    -19.092110   -6.720920    7.088200
  C    -18.752320   -5.391650    7.334800
  C    -17.545740   -4.833070    6.935410
  C    -20.297190   -7.391660    7.444880
  C    -21.436760   -6.996640    8.075990
  S    -22.707490   -8.199430    8.303930
  C    -23.758880   -7.046890    9.099220
  S    -25.252950   -7.391050    9.660570
  N    -23.149530   -5.837120    9.166320
  C    -23.782590   -4.696570    9.800300
  C    -23.574520   -4.719160   11.309280
  C    -21.873720   -5.719640    8.636680
  O    -21.271310   -4.665330    8.665640
  H      3.305730    1.534100   -1.297960
  H      3.919580    0.181740   -2.300650
  H      4.295050    0.467090    0.725860
  H      5.539680    0.764600   -0.493420
  H      4.903840   -0.868010   -0.268040
  H     -0.811300    0.814040    0.893410
  H     -4.922620   -0.191000    2.662220
  H     -2.836570    0.812440    1.957990
  H     -5.662020   -4.701970    1.510600
  H     -7.905680   -6.382020    0.879190
  H     -9.594030   -6.645820    1.299610
  H     -8.792220   -3.867960    0.470090
  H     -9.253390   -4.615020   -1.947320
  H     -8.938390   -6.256300   -1.394790
  H     -6.633410   -5.561930   -0.697570
  H     -6.918950   -5.182820   -2.391380
  H     -6.990790   -3.906440   -1.175180
  H    -11.149980   -4.730440    1.189580
  H    -11.208190   -5.461960   -0.414090
  H    -10.782080   -2.498130    0.200130
  H    -12.279490   -3.222570   -0.385890
  H    -10.856990   -3.183060   -1.423110
  H     -7.772590   -5.915090    4.539170
  H     -6.871630   -6.596430    3.198040
  H     -9.682180   -7.557600    3.361700
  H     -7.426970   -9.475210    3.503130
  H     -7.368900   -8.407680    2.112160
  H     -9.632180   -9.080210    1.423540
  H     -8.578170  -10.482280    1.577250
  H     -9.774470  -10.139230    2.824420
  H     -9.152100   -7.219930    5.737820
  H     -7.725180   -8.247010    5.576300
  H    -10.603570   -9.155700    5.093390
  H     -9.684210   -9.434380    6.570370
  H     -9.173310  -10.195750    5.069290
  H    -11.202300   -6.186050    3.447640
  H     -9.996810   -1.450460    4.510950
  H    -13.178260   -1.018110    6.924630
  H    -11.473400   -0.961420    6.492040
  H    -12.763550   -3.403770    7.755970
  H     -9.975630   -2.869510    8.462390
  H    -10.153510   -2.949650    6.720780
  H    -11.099100   -5.109560    8.652540
  H     -9.643680   -5.170240    7.658190
  H    -11.232620   -5.167730    6.894650
  H    -13.142670   -1.355860    9.126760
  H    -11.400020   -1.106190    9.208340
  H    -12.897360   -3.559660   10.251790
  H    -12.281490   -2.236110   11.241600
  H    -11.158830   -3.296380   10.396610
  H    -14.261650   -0.925250    4.907540
  H    -13.791930   -1.857650    3.498670
  H    -11.756430    0.113320    4.491830
  H    -12.768610   -0.138540    1.666950
  H    -11.875670   -1.496930    2.336780
  H    -10.765030    1.336690    2.129560
  H    -10.388280   -0.020930    1.077070
  H     -9.915440   -0.063790    2.769330
  H    -13.881970    1.272720    4.831580
  H    -14.384000    0.903930    3.181840
  H    -11.964940    2.627460    3.890650
  H    -13.570190    3.253520    3.520460
  H    -12.664220    2.401000    2.280090
  H    -15.456150   -2.919380    6.516580
  H    -19.458280   -4.767270    7.856390
  H    -17.370380   -3.794800    7.168350
  H    -20.289820   -8.432900    7.138450
  H    -24.848060   -4.726830    9.561550
  H    -23.324430   -3.805300    9.365210
  H    -24.018170   -5.614720   11.737690
  H    -24.047640   -3.848830   11.754180
  H    -22.512730   -4.699840   11.543860

----------------------------
CARTESIAN COORDINATES (A.U.)
----------------------------
  NO LB      ZA    FRAG     MASS         X           Y           Z
   0 S    16.0000    0    32.060    1.157060   -4.074079   -1.620780
   1 C     6.0000    0    12.011    4.125423   -2.937636   -2.614890
   2 S    16.0000    0    32.060    6.164589   -4.638956   -4.185536
   3 N     7.0000    0    14.007    4.455143   -0.491045   -1.927483
   4 C     6.0000    0    12.011    6.754051    0.897884   -2.469135
   5 C     6.0000    0    12.011    8.783145    0.356761   -0.499908
   6 C     6.0000    0    12.011    2.502432    0.623761   -0.605657
   7 O     8.0000    0    15.999    2.542003    2.794111    0.123229
   8 C     6.0000    0    12.011    0.414965   -1.177526   -0.240732
   9 C     6.0000    0    12.011   -1.660238   -0.408918    1.050121
  10 C     6.0000    0    12.011   -3.936035   -1.672767    1.728703
  11 C     6.0000    0    12.011   -4.559418   -4.196572    1.066750
  12 N     7.0000    0    14.007   -3.182072   -5.780049   -0.308214
  13 S    16.0000    0    32.060   -4.648103   -8.426421   -0.588385
  14 N     7.0000    0    14.007   -7.113326   -7.700313    1.028994
  15 C     6.0000    0    12.011   -6.900618   -5.335566    1.864139
  16 C     6.0000    0    12.011   -8.675884   -3.956236    3.339392
  17 C     6.0000    0    12.011   -8.002650   -1.480374    3.923525
  18 C     6.0000    0    12.011   -5.745807   -0.394480    3.158828
  19 C     6.0000    0    12.011  -11.006615   -5.045021    4.143905
  20 C     6.0000    0    12.011  -11.839267   -7.501098    3.802885
  21 C     6.0000    0    12.011  -14.241978   -7.889550    4.788358
  22 C     6.0000    0    12.011  -15.251904   -5.748585    5.906622
  23 S    16.0000    0    32.060  -13.253424   -3.203785    5.756030
  24 C     6.0000    0    12.011  -17.737026   -6.236663    6.829735
  25 C     6.0000    0    12.011  -18.309689   -8.785658    6.240443
  26 C     6.0000    0    12.011  -16.077336  -10.059220    4.956582
  27 C     6.0000    0    12.011  -16.655234  -11.128049    2.318618
  28 C     6.0000    0    12.011  -17.457177   -9.125733    0.368156
  29 C     6.0000    0    12.011  -16.475388   -9.833530   -2.268560
  30 C     6.0000    0    12.011  -13.653196   -9.354768   -2.596087
  31 C     6.0000    0    12.011  -20.340237   -8.795069    0.326053
  32 C     6.0000    0    12.011  -21.155824   -6.251535   -0.751128
  33 C     6.0000    0    12.011  -14.891949  -12.067432    6.724685
  34 C     6.0000    0    12.011  -16.362893  -14.564989    7.007312
  35 C     6.0000    0    12.011  -15.187068  -16.696165    5.408528
  36 C     6.0000    0    12.011  -17.141744  -18.304889    4.028745
  37 C     6.0000    0    12.011  -16.508232  -15.258405    9.821852
  38 C     6.0000    0    12.011  -18.144224  -17.560205   10.383837
  39 C     6.0000    0    12.011  -20.622789   -9.766728    6.911295
  40 C     6.0000    0    12.011  -22.320954   -8.180568    8.149633
  41 C     6.0000    0    12.011  -21.755245   -5.626376    8.701943
  42 C     6.0000    0    12.011  -19.430070   -4.652959    8.070359
  43 C     6.0000    0    12.011  -23.961576   -4.343498    9.999845
  44 C     6.0000    0    12.011  -23.286793   -3.082880   12.532116
  45 C     6.0000    0    12.011  -22.704625   -4.923870   14.704942
  46 C     6.0000    0    12.011  -20.063676   -6.129119   14.479101
  47 C     6.0000    0    12.011  -20.130062   -9.007172   14.593656
  48 C     6.0000    0    12.011  -23.012348   -3.531520   17.232620
  49 C     6.0000    0    12.011  -22.907940   -5.290043   19.510931
  50 C     6.0000    0    12.011  -25.319968   -2.450786    8.221159
  51 C     6.0000    0    12.011  -23.786323   -0.189256    7.208946
  52 C     6.0000    0    12.011  -22.724165   -0.789943    4.567676
  53 C     6.0000    0    12.011  -20.213663    0.482390    3.937944
  54 C     6.0000    0    12.011  -25.545186    2.124373    7.202389
  55 C     6.0000    0    12.011  -24.346551    4.588217    6.318110
  56 C     6.0000    0    12.011  -25.751033   -6.539492   10.305206
  57 C     6.0000    0    12.011  -24.775878   -8.683991    9.150942
  58 S    16.0000    0    32.060  -26.762982  -11.236406    9.356601
  59 C     6.0000    0    12.011  -28.965382   -9.397910   11.004480
  60 C     6.0000    0    12.011  -28.127232   -6.933613   11.340984
  61 C     6.0000    0    12.011  -31.297890  -10.477001   11.810864
  62 C     6.0000    0    12.011  -31.870288  -13.051601   11.307233
  63 N     7.0000    0    14.007  -30.401555  -14.706076   10.115288
  64 S    16.0000    0    32.060  -31.834081  -17.384932    9.985275
  65 N     7.0000    0    14.007  -34.382244  -16.574145   11.431898
  66 C     6.0000    0    12.011  -34.223035  -14.151403   12.087029
  67 C     6.0000    0    12.011  -36.078859  -12.700698   13.394757
  68 C     6.0000    0    12.011  -35.436749  -10.188742   13.860763
  69 C     6.0000    0    12.011  -33.156643   -9.133179   13.106026
  70 C     6.0000    0    12.011  -38.356130  -13.968213   14.068784
  71 C     6.0000    0    12.011  -40.509606  -13.221733   15.261409
  72 S    16.0000    0    32.060  -42.910937  -15.494677   15.692154
  73 C     6.0000    0    12.011  -44.897776  -13.316692   17.195034
  74 S    16.0000    0    32.060  -47.721160  -13.967060   18.255832
  75 N     7.0000    0    14.007  -43.746272  -11.030558   17.321834
  76 C     6.0000    0    12.011  -44.942582   -8.875231   18.519883
  77 C     6.0000    0    12.011  -44.549387   -8.917920   21.371442
  78 C     6.0000    0    12.011  -41.335340  -10.808553   16.320960
  79 O     8.0000    0    15.999  -40.196950   -8.816196   16.375686
  80 H     1.0000    0     1.008    6.246924    2.899029   -2.452789
  81 H     1.0000    0     1.008    7.406933    0.343439   -4.347598
  82 H     1.0000    0     1.008    8.116468    0.882672    1.371677
  83 H     1.0000    0     1.008   10.468478    1.444885   -0.932429
  84 H     1.0000    0     1.008    9.266915   -1.640301   -0.506522
  85 H     1.0000    0     1.008   -1.533135    1.538313    1.688300
  86 H     1.0000    0     1.008   -9.302404   -0.360938    5.030867
  87 H     1.0000    0     1.008   -5.360340    1.535289    3.700065
  88 H     1.0000    0     1.008  -10.699667   -8.885436    2.854620
  89 H     1.0000    0     1.008  -14.939570  -12.060270    1.661428
  90 H     1.0000    0     1.008  -18.130089  -12.558780    2.455907
  91 H     1.0000    0     1.008  -16.614888   -7.309385    0.888341
  92 H     1.0000    0     1.008  -17.486373   -8.721124   -3.679901
  93 H     1.0000    0     1.008  -16.891109  -11.822694   -2.635771
  94 H     1.0000    0     1.008  -12.535328  -10.510524   -1.318216
  95 H     1.0000    0     1.008  -13.074921   -9.794110   -4.519053
  96 H     1.0000    0     1.008  -13.210679   -7.382102   -2.220768
  97 H     1.0000    0     1.008  -21.070409   -8.939236    2.247980
  98 H     1.0000    0     1.008  -21.180410  -10.321609   -0.782517
  99 H     1.0000    0     1.008  -20.375178   -4.720782    0.378191
 100 H     1.0000    0     1.008  -23.204873   -6.089775   -0.729226
 101 H     1.0000    0     1.008  -20.516738   -6.015112   -2.689288
 102 H     1.0000    0     1.008  -14.688066  -11.177900    8.577788
 103 H     1.0000    0     1.008  -12.985499  -12.465446    6.043420
 104 H     1.0000    0     1.008  -18.296669  -14.281794    6.352692
 105 H     1.0000    0     1.008  -14.034939  -17.905552    6.619956
 106 H     1.0000    0     1.008  -13.925203  -15.888213    3.991404
 107 H     1.0000    0     1.008  -18.202182  -17.159110    2.690101
 108 H     1.0000    0     1.008  -16.210392  -19.808638    2.980571
 109 H     1.0000    0     1.008  -18.471071  -19.160368    5.337380
 110 H     1.0000    0     1.008  -17.294963  -13.643690   10.842908
 111 H     1.0000    0     1.008  -14.598475  -15.584590   10.537680
 112 H     1.0000    0     1.008  -20.037843  -17.301766    9.625112
 113 H     1.0000    0     1.008  -18.300505  -17.828394   12.416200
 114 H     1.0000    0     1.008  -17.335044  -19.267175    9.579570
 115 H     1.0000    0     1.008  -21.169279  -11.689940    6.515095
 116 H     1.0000    0     1.008  -18.891233   -2.740972    8.524460
 117 H     1.0000    0     1.008  -24.903302   -1.923949   13.085654
 118 H     1.0000    0     1.008  -21.681584   -1.816820   12.268178
 119 H     1.0000    0     1.008  -24.119614   -6.432193   14.656659
 120 H     1.0000    0     1.008  -18.851209   -5.422588   15.991600
 121 H     1.0000    0     1.008  -19.187353   -5.574031   12.700434
 122 H     1.0000    0     1.008  -20.974259   -9.655669   16.350931
 123 H     1.0000    0     1.008  -18.223914   -9.770338   14.471882
 124 H     1.0000    0     1.008  -21.226576   -9.765594   13.029000
 125 H     1.0000    0     1.008  -24.836047   -2.562204   17.247077
 126 H     1.0000    0     1.008  -21.542916   -2.090396   17.401241
 127 H     1.0000    0     1.008  -24.372478   -6.726783   19.373075
 128 H     1.0000    0     1.008  -23.208653   -4.225636   21.243545
 129 H     1.0000    0     1.008  -21.087133   -6.229255   19.646746
 130 H     1.0000    0     1.008  -26.950613   -1.748469    9.273907
 131 H     1.0000    0     1.008  -26.062971   -3.510450    6.611528
 132 H     1.0000    0     1.008  -22.216433    0.214144    8.488329
 133 H     1.0000    0     1.008  -24.129176   -0.261803    3.150079
 134 H     1.0000    0     1.008  -22.441764   -2.828788    4.415874
 135 H     1.0000    0     1.008  -20.342959    2.525978    4.024285
 136 H     1.0000    0     1.008  -19.631004   -0.039552    2.035367
 137 H     1.0000    0     1.008  -18.737466   -0.120546    5.233275
 138 H     1.0000    0     1.008  -26.233121    2.405092    9.130363
 139 H     1.0000    0     1.008  -27.181821    1.708180    6.012806
 140 H     1.0000    0     1.008  -22.610460    4.965180    7.352263
 141 H     1.0000    0     1.008  -25.643943    6.148262    6.652705
 142 H     1.0000    0     1.008  -23.931907    4.537232    4.308746
 143 H     1.0000    0     1.008  -29.207891   -5.516829   12.314552
 144 H     1.0000    0     1.008  -36.770820   -9.008835   14.846426
 145 H     1.0000    0     1.008  -32.825261   -7.171133   13.546218
 146 H     1.0000    0     1.008  -38.342203  -15.935872   13.489716
 147 H     1.0000    0     1.008  -46.956028   -8.932414   18.068711
 148 H     1.0000    0     1.008  -44.076785   -7.190975   17.697682
 149 H     1.0000    0     1.008  -45.387764  -10.610283   22.181020
 150 H     1.0000    0     1.008  -45.443454   -7.273235   22.212181
 151 H     1.0000    0     1.008  -42.542894   -8.881410   21.814734

--------------------------------
INTERNAL COORDINATES (ANGSTROEM)
--------------------------------
 S      0   0   0     0.000000000000     0.00000000     0.00000000
 C      1   0   0     1.762321835562     0.00000000     0.00000000
 S      2   1   0     1.632716772407   123.56431078     0.00000000
 N      2   1   3     1.356082929028   111.12483872   179.33843091
 C      4   2   1     1.449935273693   122.60774371   178.85486797
 C      5   4   2     1.523432069342   111.15303486   277.29402261
 C      4   2   1     1.380239314105   116.59448212     0.58432557
 O      7   4   2     1.211719001130   123.60685489   180.05717805
 C      7   4   2     1.471771463815   110.58442108   359.73998032
 C      9   7   4     1.355719242137   118.66997371   179.30167453
 C     10   9   7     1.423579136578   132.17470951   180.66098309
 C     11  10   9     1.419574228457   125.19304784   358.07601084
 N     12  11  10     1.327698046696   126.97170845   358.79982545
 S     13  12  11     1.607778377669   109.59467500   180.44693126
 N     14  13  12     1.606858912164    97.72052097   359.92144438
 C     15  14  13     1.331881223721   109.43866106     0.09462341
 C     16  15  14     1.422934637255   127.45969724   179.25651315
 C     17  16  15     1.392485406961   115.81811653   181.12986618
 C     18  17  16     1.385723704567   123.08195319   359.38889733
 C     17  16  15     1.426326728138   121.83258966     0.57381712
 C     20  17  16     1.384171913456   127.99876289     4.15805723
 C     21  20  17     1.389538508031   112.41138612   181.37186094
 C     22  21  20     1.385413665661   113.09778485   359.44462849
 S     23  22  21     1.714126226711   112.61904790     0.16336057
 C     23  22  21     1.426443179170   110.72236305   178.61120025
 C     25  23  22     1.417225354028   107.10429467   359.44780776
 C     22  21  20     1.506465310885   136.45606933   179.13033588
 C     27  22  21     1.536912332763   110.79871334   304.17394336
 C     28  27  22     1.538867327907   114.24737230   308.65737579
 C     29  28  27     1.535266653777   110.38099111   145.56072257
 C     30  29  28     1.524660315775   113.21911486   284.57333525
 C     29  28  27     1.535813244278   111.23051280   268.63855329
 C     32  29  28     1.524091496236   112.78963062   157.99426385
 C     27  22  21     1.548623162038   107.31095976    66.89845355
 C     34  27  22     1.541109310919   116.26654847   184.66224725
 C     35  34  27     1.541040746671   111.73992890   101.78533932
 C     36  35  34     1.525697220749   113.41174071   222.61187632
 C     35  34  27     1.535852429044   108.92302729   226.30144027
 C     38  35  34     1.523679562310   114.12453459   174.22612334
 C     26  25  23     1.376163517610   119.50401347   180.33247744
 C     40  26  25     1.393369719959   117.88549188     0.20901054
 C     41  40  26     1.414890379817   122.42211553     0.71578224
 C     42  41  40     1.375136104318   119.79817650   358.21959329
 C     42  41  40     1.515168584977   111.01511846   178.72509949
 C     44  42  41     1.538885569138   114.21371506   125.63256169
 C     45  44  42     1.538198714438   115.01345066   289.26431760
 C     46  45  44     1.540827318391   112.69552698    76.18357697
 C     47  46  45     1.524610737631   112.92380714   233.32598683
 C     46  45  44     1.535753272404   109.02367085   200.21223785
 C     49  46  45     1.523993695623   113.09311336   170.41523917
 C     44  42  41     1.551067955603   111.79948674   252.52440539
 C     51  44  42     1.542000855058   117.90692709   298.30786550
 C     52  51  44     1.539652334717   110.31895590    95.94681889
 C     53  52  51     1.526198077479   115.14499916   210.84791223
 C     52  51  44     1.537942478053   107.46373907   218.96531190
 C     55  52  51     1.523552481472   115.46730229   178.51149150
 C     44  42  41     1.507717936684   100.79020711     4.49199649
 C     57  44  42     1.388233499596   110.45276200   355.50120805
 S     58  57  44     1.715195549260   112.82539913   181.63368482
 C     59  58  57     1.750780067313    90.12125370     0.40736568
 C     57  44  42     1.387462450159   136.66853404   178.63843728
 C     60  59  58     1.425372370786   120.19481583   179.61234064
 C     62  60  59     1.420902616825   120.83563498     0.32405548
 N     63  62  60     1.329824894864   126.55830822     0.60763964
 S     64  63  62     1.609021383233   108.96338072   180.02932764
 N     65  64  63     1.608840650220    98.02311995     0.00000000
 C     66  65  64     1.330775311050   109.13619139   359.97419908
 C     67  66  65     1.425715997806   126.98315681   179.88096759
 C     68  67  66     1.393996964487   115.55735810   179.77744571
 C     69  68  67     1.388293659461   122.99895520     0.29313758
 C     68  67  66     1.424545743878   116.78880102   359.73766587
 C     71  68  67     1.361234886932   133.44319480   181.03830092
 S     72  71  68     1.764487223133   117.70860445   179.78270444
 C     73  72  71     1.751072690610    92.43085699   180.43763906
 S     74  73  72     1.632729338562   124.53057163   179.66416576
 N     74  73  72     1.356227593511   109.86552816     0.09564045
 C     76  74  73     1.450361991539   121.80188602   181.21386133
 C     77  76  74     1.523425112501   111.20448831    83.22558412
 C     76  74  73     1.386366198412   118.04439706   359.62351074
 O     79  76  74     1.214621778909   121.38999626   180.09467665
 H      5   4   2     1.092468852508   106.48094129   156.91285317
 H      5   4   2     1.092502824573   108.00279949    38.57473469
 H      6   5   4     1.087567852642   110.25396426   300.75301823
 H      6   5   4     1.085965835604   109.57248794   181.00423017
 H      6   5   4     1.087370447456   110.26815452    61.34738130
 H     10   9   7     1.086442790302   113.01771687     0.15402466
 H     18  17  16     1.080442254264   118.25456893   179.61283925
 H     19  18  17     1.080031270195   118.51687026   180.36169213
 H     21  20  17     1.073366990409   121.52977825     0.79896095
 H     28  27  22     1.090212355966   106.89123079    69.44603883
 H     28  27  22     1.089775842180   109.73200256   185.91190492
 H     29  28  27     1.094663263383   108.88262906    27.46765056
 H     30  29  28     1.091109443731   108.93734000   164.10539227
 H     30  29  28     1.092778443647   109.17672449    47.08593517
 H     31  30  29     1.086857603783   111.64753734    62.87745189
 H     31  30  29     1.087742215923   110.26699388   182.91389760
 H     31  30  29     1.088112059073   110.45468447   302.67667621
 H     32  29  28     1.090636400364   109.29531928    37.75518133
 H     32  29  28     1.092868204771   109.12917076   280.16364886
 H     33  32  29     1.088096559916   110.15324883   300.07657061
 H     33  32  29     1.087745312194   110.35265506   180.54435934
 H     33  32  29     1.087171506755   111.49226847    60.36807988
 H     34  27  22     1.093084239617   106.64747857    62.37876861
 H     34  27  22     1.091836327936   107.88781949   308.01855402
 H     35  34  27     1.090697604197   108.97910428   342.81373461
 H     36  35  34     1.091898359006   109.39381710   100.16394054
 H     36  35  34     1.091354238137   109.73000776   343.13429194
 H     37  36  35     1.088267757677   110.50138886    62.43751682
 H     37  36  35     1.088015622085   110.17926169   181.72124902
 H     37  36  35     1.085972118657   111.50517698   301.98271360
 H     38  35  34     1.093337562558   108.15520745    53.79028093
 H     38  35  34     1.092975760070   109.11838800   296.88437331
 H     39  38  35     1.088131329941   110.53314907   304.58099927
 H     39  38  35     1.087951196883   109.90207709   185.30904057
 H     39  38  35     1.086472928379   111.36120580    65.69397549
 H     40  26  25     1.078583408968   122.97693159   179.98055554
 H     43  42  41     1.078307784447   122.27081250   182.57770888
 H     45  44  42     1.092546502992   107.16444040   168.97542112
 H     45  44  42     1.090832628500   109.59914445    52.71458718
 H     46  45  44     1.094714410155   107.89916628   316.45448645
 H     47  46  45     1.091813990980   109.53601398   111.57857227
 H     47  46  45     1.089606632414   109.96377455   354.37095726
 H     48  47  46     1.087228563780   111.02524715   301.41539828
 H     48  47  46     1.088440559792   110.30000689   181.33544555
 H     48  47  46     1.087802711203   110.52295861    61.72450728
 H     49  46  45     1.092934933882   108.95877647    49.99647748
 H     49  46  45     1.092786444416   109.29766867   292.82718437
 H     50  49  46     1.088111936613   110.35227074   301.80293551
 H     50  49  46     1.087757530013   110.20132609   182.23235764
 H     50  49  46     1.086542358999   111.33285103    62.28010826
 H     51  44  42     1.092277162903   106.04139517   175.65688837
 H     51  44  42     1.092959396913   107.95951422    61.57397502
 H     52  51  44     1.092735596473   109.66525013   335.90537791
 H     53  52  51     1.092538944844   108.78807059    87.87228972
 H     53  52  51     1.092168490023   108.70346047   331.48083476
 H     54  53  52     1.084545106900   112.07196913   300.58200243
 H     54  53  52     1.088577084501   109.66758451   180.58408253
 H     54  53  52     1.087143626252   110.99773981    61.61757570
 H     55  52  51     1.093380940798   107.91163968    57.61034920
 H     55  52  51     1.093093386907   108.68731890   301.30257733
 H     56  55  52     1.087788822750   110.73367317   307.88451827
 H     56  55  52     1.088217550722   109.66816983   188.58270553
 H     56  55  52     1.086048439481   111.31895948    69.38182228
 H     61  57  44     1.074495076117   124.53173520   356.87382583
 H     69  68  67     1.077165741239   118.59688126   180.10712596
 H     70  69  68     1.078432550557   117.81053788   179.88212882
 H     71  68  67     1.085418997162   112.03976475     0.74484928
 H     77  76  74     1.092311105409   107.96469820   321.91491954
 H     77  76  74     1.092509087651   106.52357162   203.61610715
 H     78  77  76     1.087376735175   110.28786070   298.91258901
 H     78  77  76     1.085934092521   109.53720731   179.29482198
 H     78  77  76     1.087565649926   110.28728474    59.53998383

---------------------------
INTERNAL COORDINATES (A.U.)
---------------------------
 S      0   0   0     0.000000000000     0.00000000     0.00000000
 C      1   0   0     3.330305629042     0.00000000     0.00000000
 S      2   1   0     3.085387554110   123.56431078     0.00000000
 N      2   1   3     2.562625350748   111.12483872   179.33843091
 C      4   2   1     2.739980579192   122.60774371   178.85486797
 C      5   4   2     2.878869394690   111.15303486   277.29402261
 C      4   2   1     2.608274302929   116.59448212     0.58432557
 O      7   4   2     2.289817063405   123.60685489   180.05717805
 C      7   4   2     2.781244998331   110.58442108   359.73998032
 C      9   7   4     2.561938082126   118.66997371   179.30167453
 C     10   9   7     2.690174698096   132.17470951   180.66098309
 C     11  10   9     2.682606518557   125.19304784   358.07601084
 N     12  11  10     2.508985696797   126.97170845   358.79982545
 S     13  12  11     3.038260817835   109.59467500   180.44693126
 N     14  13  12     3.036523279840    97.72052097   359.92144438
 C     15  14  13     2.516890755744   109.43866106     0.09462341
 C     16  15  14     2.688956770883   127.45969724   179.25651315
 C     17  16  15     2.631416064639   115.81811653   181.12986618
 C     18  17  16     2.618638298915   123.08195319   359.38889733
 C     17  16  15     2.695366893672   121.83258966     0.57381712
 C     20  17  16     2.615705838697   127.99876289     4.15805723
 C     21  20  17     2.625847232715   112.41138612   181.37186094
 C     22  21  20     2.618052410291   113.09778485   359.44462849
 S     23  22  21     3.239229127456   112.61904790     0.16336057
 C     23  22  21     2.695586954231   110.72236305   178.61120025
 C     25  23  22     2.678167789163   107.10429467   359.44780776
 C     22  21  20     2.846806867825   136.45606933   179.13033588
 C     27  22  21     2.904343400769   110.79871334   304.17394336
 C     28  27  22     2.908037806184   114.24737230   308.65737579
 C     29  28  27     2.901233518180   110.38099111   145.56072257
 C     30  29  28     2.881190444073   113.21911486   284.57333525
 C     29  28  27     2.902266424535   111.23051280   268.63855329
 C     32  29  28     2.880115530925   112.78963062   157.99426385
 C     27  22  21     2.926473660899   107.31095976    66.89845355
 C     34  27  22     2.912274540072   116.26654847   184.66224725
 C     35  34  27     2.912144972422   111.73992890   101.78533932
 C     36  35  34     2.883149910500   113.41174071   222.61187632
 C     35  34  27     2.902340473011   108.92302729   226.30144027
 C     38  35  34     2.879337088618   114.12453459   174.22612334
 C     26  25  23     2.600572163776   119.50401347   180.33247744
 C     40  26  25     2.633087174022   117.88549188     0.20901054
 C     41  40  26     2.673755327375   122.42211553     0.71578224
 C     42  41  40     2.598630634029   119.79817650   358.21959329
 C     42  41  40     2.863253672327   111.01511846   178.72509949
 C     44  42  41     2.908072277114   114.21371506   125.63256169
 C     45  44  42     2.906774309838   115.01345066   289.26431760
 C     46  45  44     2.911741651423   112.69552698    76.18357697
 C     47  46  45     2.881096754958   112.92380714   233.32598683
 C     46  45  44     2.902153094117   109.02367085   200.21223785
 C     49  46  45     2.879930714551   113.09311336   170.41523917
 C     44  42  41     2.931093651192   111.79948674   252.52440539
 C     51  44  42     2.913959314332   117.90692709   298.30786550
 C     52  51  44     2.909521254068   110.31895590    95.94681889
 C     53  52  51     2.884096392552   115.14499916   210.84791223
 C     52  51  44     2.906290093244   107.46373907   218.96531190
 C     55  52  51     2.879096940639   115.46730229   178.51149150
 C     44  42  41     2.849173987534   100.79020711     4.49199649
 C     57  44  42     2.623381124171   110.45276200   355.50120805
 S     58  57  44     3.241249854221   112.82539913   181.63368482
 C     59  58  57     3.308494847950    90.12125370     0.40736568
 C     57  44  42     2.621924051899   136.66853404   178.63843728
 C     60  59  58     2.693563419644   120.19481583   179.61234064
 C     62  60  59     2.685116808771   120.83563498     0.32405548
 N     63  62  60     2.513004857364   126.55830822     0.60763964
 S     64  63  62     3.040609757933   108.96338072   180.02932764
 N     65  64  63     3.040268222035    98.02311995     0.00000000
 C     66  65  64     2.514800883668   109.13619139   359.97419908
 C     67  66  65     2.694212780604   126.98315681   179.88096759
 C     68  67  66     2.634272494399   115.55735810   179.77744571
 C     69  68  67     2.623494809841   122.99895520     0.29313758
 C     68  67  66     2.692001321172   116.78880102   359.73766587
 C     71  68  67     2.572361140240   133.44319480   181.03830092
 S     72  71  68     3.334397618525   117.70860445   179.78270444
 C     73  72  71     3.309047825841    92.43085699   180.43763906
 S     74  73  72     3.085411300700   124.53057163   179.66416576
 N     74  73  72     2.562898727002   109.86552816     0.09564045
 C     76  74  73     2.740786959057   121.80188602   181.21386133
 C     77  76  74     2.878856248166   111.20448831    83.22558412
 C     76  74  73     2.619852436325   118.04439706   359.62351074
 O     79  76  74     2.295302518434   121.38999626   180.09467665
 H      5   4   2     2.064466941079   106.48094129   156.91285317
 H      5   4   2     2.064531138978   108.00279949    38.57473469
 H      6   5   4     2.055205393550   110.25396426   300.75301823
 H      6   5   4     2.052178020087   109.57248794   181.00423017
 H      6   5   4     2.054832351811   110.26815452    61.34738130
 H     10   9   7     2.053079333845   113.01771687     0.15402466
 H     18  17  16     2.041739964076   118.25456893   179.61283925
 H     19  18  17     2.040963316741   118.51687026   180.36169213
 H     21  20  17     2.028369653065   121.52977825     0.79896095
 H     28  27  22     2.060202780592   106.89123079    69.44603883
 H     28  27  22     2.059377889084   109.73200256   185.91190492
 H     29  28  27     2.068613776658   108.88262906    27.46765056
 H     30  29  28     2.061898030788   108.93734000   164.10539227
 H     30  29  28     2.065051983546   109.17672449    47.08593517
 H     31  30  29     2.053863217719   111.64753734    62.87745189
 H     31  30  29     2.055534892398   110.26699388   182.91389760
 H     31  30  29     2.056233794665   110.45468447   302.67667621
 H     32  29  28     2.061004108375   109.29531928    37.75518133
 H     32  29  28     2.065221607488   109.12917076   280.16364886
 H     33  32  29     2.056204505502   110.15324883   300.07657061
 H     33  32  29     2.055540743503   110.35265506   180.54435934
 H     33  32  29     2.054456408370   111.49226847    60.36807988
 H     34  27  22     2.065629854182   106.64747857    62.37876861
 H     34  27  22     2.063271642865   107.88781949   308.01855402
 H     35  34  27     2.061119766855   108.97910428   342.81373461
 H     36  35  34     2.063388864599   109.39381710   100.16394054
 H     36  35  34     2.062360625174   109.73000776   343.13429194
 H     37  36  35     2.056528022387   110.50138886    62.43751682
 H     37  36  35     2.056051555168   110.17926169   181.72124902
 H     37  36  35     2.052189893336   111.50517698   301.98271360
 H     38  35  34     2.066108565163   108.15520745    53.79028093
 H     38  35  34     2.065424857546   109.11838800   296.88437331
 H     39  38  35     2.056270211329   110.53314907   304.58099927
 H     39  38  35     2.055929809181   109.90207709   185.30904057
 H     39  38  35     2.053136286555   111.36120580    65.69397549
 H     40  26  25     2.038227255540   122.97693159   179.98055554
 H     43  42  41     2.037706400681   122.27081250   182.57770888
 H     45  44  42     2.064613679228   107.16444040   168.97542112
 H     45  44  42     2.061374925810   109.59914445    52.71458718
 H     46  45  44     2.068710430049   107.89916628   316.45448645
 H     47  46  45     2.063229432136   109.53601398   111.57857227
 H     47  46  45     2.059058128966   109.96377455   354.37095726
 H     48  47  46     2.054564230521   111.02524715   301.41539828
 H     48  47  46     2.056854571059   110.30000689   181.33544555
 H     48  47  46     2.055649211910   110.52295861    61.72450728
 H     49  46  45     2.065347707233   108.95877647    49.99647748
 H     49  46  45     2.065067102808   109.29766867   292.82718437
 H     50  49  46     2.056233563250   110.35227074   301.80293551
 H     50  49  46     2.055563831835   110.20132609   182.23235764
 H     50  49  46     2.053267491414   111.33285103    62.28010826
 H     51  44  42     2.064104700224   106.04139517   175.65688837
 H     51  44  42     2.065393935661   107.95951422    61.57397502
 H     52  51  44     2.064971014122   109.66525013   335.90537791
 H     53  52  51     2.064599396398   108.78807059    87.87228972
 H     53  52  51     2.063899338243   108.70346047   331.48083476
 H     54  53  52     2.049493231925   112.07196913   300.58200243
 H     54  53  52     2.057112565369   109.66758451   180.58408253
 H     54  53  52     2.054403721854   110.99773981    61.61757570
 H     55  52  51     2.066190538157   107.91163968    57.61034920
 H     55  52  51     2.065647140055   108.68731890   301.30257733
 H     56  55  52     2.055622966538   110.73367317   307.88451827
 H     56  55  52     2.056433144992   109.66816983   188.58270553
 H     56  55  52     2.052334118792   111.31895948    69.38182228
 H     61  57  44     2.030501426108   124.53173520   356.87382583
 H     69  68  67     2.035548251785   118.59688126   180.10712596
 H     70  69  68     2.037942174458   117.81053788   179.88212882
 H     71  68  67     2.051144645191   112.03976475     0.74484928
 H     77  76  74     2.064168842264   107.96469820   321.91491954
 H     77  76  74     2.064542974481   106.52357162   203.61610715
 H     78  77  76     2.054844233878   110.28786070   298.91258901
 H     78  77  76     2.052118034354   109.53720731   179.29482198
 H     78  77  76     2.055201231021   110.28728474    59.53998383

---------------------
BASIS SET INFORMATION
---------------------
There are 5 groups of distinct atoms

 Group   1 Type S   : 10s7p1d contracted to 4s3p1d pattern {5311/511/1}
 Group   2 Type C   : 7s4p1d contracted to 3s2p1d pattern {511/31/1}
 Group   3 Type N   : 7s4p1d contracted to 3s2p1d pattern {511/31/1}
 Group   4 Type O   : 7s4p1d contracted to 3s2p1d pattern {511/31/1}
 Group   5 Type H   : 4s1p contracted to 2s1p pattern {31/1}

Atom   0S    basis set group =>   1
Atom   1C    basis set group =>   2
Atom   2S    basis set group =>   1
Atom   3N    basis set group =>   3
Atom   4C    basis set group =>   2
Atom   5C    basis set group =>   2
Atom   6C    basis set group =>   2
Atom   7O    basis set group =>   4
Atom   8C    basis set group =>   2
Atom   9C    basis set group =>   2
Atom  10C    basis set group =>   2
Atom  11C    basis set group =>   2
Atom  12N    basis set group =>   3
Atom  13S    basis set group =>   1
Atom  14N    basis set group =>   3
Atom  15C    basis set group =>   2
Atom  16C    basis set group =>   2
Atom  17C    basis set group =>   2
Atom  18C    basis set group =>   2
Atom  19C    basis set group =>   2
Atom  20C    basis set group =>   2
Atom  21C    basis set group =>   2
Atom  22C    basis set group =>   2
Atom  23S    basis set group =>   1
Atom  24C    basis set group =>   2
Atom  25C    basis set group =>   2
Atom  26C    basis set group =>   2
Atom  27C    basis set group =>   2
Atom  28C    basis set group =>   2
Atom  29C    basis set group =>   2
Atom  30C    basis set group =>   2
Atom  31C    basis set group =>   2
Atom  32C    basis set group =>   2
Atom  33C    basis set group =>   2
Atom  34C    basis set group =>   2
Atom  35C    basis set group =>   2
Atom  36C    basis set group =>   2
Atom  37C    basis set group =>   2
Atom  38C    basis set group =>   2
Atom  39C    basis set group =>   2
Atom  40C    basis set group =>   2
Atom  41C    basis set group =>   2
Atom  42C    basis set group =>   2
Atom  43C    basis set group =>   2
Atom  44C    basis set group =>   2
Atom  45C    basis set group =>   2
Atom  46C    basis set group =>   2
Atom  47C    basis set group =>   2
Atom  48C    basis set group =>   2
Atom  49C    basis set group =>   2
Atom  50C    basis set group =>   2
Atom  51C    basis set group =>   2
Atom  52C    basis set group =>   2
Atom  53C    basis set group =>   2
Atom  54C    basis set group =>   2
Atom  55C    basis set group =>   2
Atom  56C    basis set group =>   2
Atom  57C    basis set group =>   2
Atom  58S    basis set group =>   1
Atom  59C    basis set group =>   2
Atom  60C    basis set group =>   2
Atom  61C    basis set group =>   2
Atom  62C    basis set group =>   2
Atom  63N    basis set group =>   3
Atom  64S    basis set group =>   1
Atom  65N    basis set group =>   3
Atom  66C    basis set group =>   2
Atom  67C    basis set group =>   2
Atom  68C    basis set group =>   2
Atom  69C    basis set group =>   2
Atom  70C    basis set group =>   2
Atom  71C    basis set group =>   2
Atom  72S    basis set group =>   1
Atom  73C    basis set group =>   2
Atom  74S    basis set group =>   1
Atom  75N    basis set group =>   3
Atom  76C    basis set group =>   2
Atom  77C    basis set group =>   2
Atom  78C    basis set group =>   2
Atom  79O    basis set group =>   4
Atom  80H    basis set group =>   5
Atom  81H    basis set group =>   5
Atom  82H    basis set group =>   5
Atom  83H    basis set group =>   5
Atom  84H    basis set group =>   5
Atom  85H    basis set group =>   5
Atom  86H    basis set group =>   5
Atom  87H    basis set group =>   5
Atom  88H    basis set group =>   5
Atom  89H    basis set group =>   5
Atom  90H    basis set group =>   5
Atom  91H    basis set group =>   5
Atom  92H    basis set group =>   5
Atom  93H    basis set group =>   5
Atom  94H    basis set group =>   5
Atom  95H    basis set group =>   5
Atom  96H    basis set group =>   5
Atom  97H    basis set group =>   5
Atom  98H    basis set group =>   5
Atom  99H    basis set group =>   5
Atom 100H    basis set group =>   5
Atom 101H    basis set group =>   5
Atom 102H    basis set group =>   5
Atom 103H    basis set group =>   5
Atom 104H    basis set group =>   5
Atom 105H    basis set group =>   5
Atom 106H    basis set group =>   5
Atom 107H    basis set group =>   5
Atom 108H    basis set group =>   5
Atom 109H    basis set group =>   5
Atom 110H    basis set group =>   5
Atom 111H    basis set group =>   5
Atom 112H    basis set group =>   5
Atom 113H    basis set group =>   5
Atom 114H    basis set group =>   5
Atom 115H    basis set group =>   5
Atom 116H    basis set group =>   5
Atom 117H    basis set group =>   5
Atom 118H    basis set group =>   5
Atom 119H    basis set group =>   5
Atom 120H    basis set group =>   5
Atom 121H    basis set group =>   5
Atom 122H    basis set group =>   5
Atom 123H    basis set group =>   5
Atom 124H    basis set group =>   5
Atom 125H    basis set group =>   5
Atom 126H    basis set group =>   5
Atom 127H    basis set group =>   5
Atom 128H    basis set group =>   5
Atom 129H    basis set group =>   5
Atom 130H    basis set group =>   5
Atom 131H    basis set group =>   5
Atom 132H    basis set group =>   5
Atom 133H    basis set group =>   5
Atom 134H    basis set group =>   5
Atom 135H    basis set group =>   5
Atom 136H    basis set group =>   5
Atom 137H    basis set group =>   5
Atom 138H    basis set group =>   5
Atom 139H    basis set group =>   5
Atom 140H    basis set group =>   5
Atom 141H    basis set group =>   5
Atom 142H    basis set group =>   5
Atom 143H    basis set group =>   5
Atom 144H    basis set group =>   5
Atom 145H    basis set group =>   5
Atom 146H    basis set group =>   5
Atom 147H    basis set group =>   5
Atom 148H    basis set group =>   5
Atom 149H    basis set group =>   5
Atom 150H    basis set group =>   5
Atom 151H    basis set group =>   5
------------------------------------------------------------------------------
                           ORCA GTO INTEGRAL CALCULATION
------------------------------------------------------------------------------

                         BASIS SET STATISTICS AND STARTUP INFO

 # of primitive gaussian shells          ... 1368
 # of primitive gaussian functions       ... 2520
 # of contracted shells                  ...  712
 # of contracted basis functions         ... 1512
 Highest angular momentum                ...    2
 Maximum contraction depth               ...    5
 Integral package used                   ... LIBINT
 Integral threshhold            Thresh   ...  2.500e-11
 Primitive cut-off              TCut     ...  2.500e-12


------------------------------ INTEGRAL EVALUATION ----------------------------


 * One electron integrals 
 Pre-screening matrix                    ... done
 Shell pair data                         ... done (   0.035 sec)

-------------------------------------------------------------------------------
                                 ORCA SCF
-------------------------------------------------------------------------------

------------
SCF SETTINGS
------------
Hamiltonian:
 Ab initio Hamiltonian  Method          .... Hartree-Fock(GTOs)


General Settings:
 Integral files         IntName         .... EH-IDTBR
 Hartree-Fock type      HFTyp           .... RHF
 Total Charge           Charge          ....    0
 Multiplicity           Mult            ....    1
 Number of Electrons    NEL             ....  642
 Basis Dimension        Dim             .... 1512
 Nuclear Repulsion      ENuc            ....  15121.5304370999 Eh

Convergence Acceleration:
 DIIS                   CNVDIIS         .... on
   Start iteration      DIISMaxIt       ....    12
   Startup error        DIISStart       ....  0.200000
   # of expansion vecs  DIISMaxEq       ....     5
   Bias factor          DIISBfac        ....   1.050
   Max. coefficient     DIISMaxC        ....  10.000
 Newton-Raphson         CNVNR           .... off
 SOSCF                  CNVSOSCF        .... on
   Start iteration      SOSCFMaxIt      ....   150
   Startup grad/error   SOSCFStart      ....  0.003300
 Level Shifting         CNVShift        .... on
   Level shift para.    LevelShift      ....    0.2500
   Turn off err/grad.   ShiftErr        ....    0.0010
 Zerner damping         CNVZerner       .... off
 Static damping         CNVDamp         .... on
   Fraction old density DampFac         ....    0.7000
   Max. Damping (<1)    DampMax         ....    0.9800
   Min. Damping (>=0)   DampMin         ....    0.0000
   Turn off err/grad.   DampErr         ....    0.1000
 Fernandez-Rico         CNVRico         .... off

SCF Procedure:
 Maximum # iterations   MaxIter         ....   125
 SCF integral mode      SCFMode         .... Direct
   Integral package                     .... LIBINT
 Reset frequency        DirectResetFreq ....    20
 Integral Threshold     Thresh          ....  2.500e-11 Eh
 Primitive CutOff       TCut            ....  2.500e-12 Eh

Convergence Tolerance:
 Convergence Check Mode ConvCheckMode   .... Total+1el-Energy
 Convergence forced     ConvForced      .... 1
 Energy Change          TolE            ....  1.000e-08 Eh
 1-El. energy change                    ....  1.000e-05 Eh
 Orbital Gradient       TolG            ....  1.000e-05
 Orbital Rotation angle TolX            ....  1.000e-05
 DIIS Error             TolErr          ....  5.000e-07


Diagonalization of the overlap matrix:
Smallest eigenvalue                        ... 1.546e-04
Time for diagonalization                   ...    0.774 sec
Threshold for overlap eigenvalues          ... 1.000e-08
Number of eigenvalues below threshold      ... 0
Time for construction of square roots      ...    0.328 sec
Total time needed                          ...    1.117 sec

-------------------
DFT GRID GENERATION
-------------------

General Integration Accuracy     IntAcc      ...  4.340
Radial Grid Type                 RadialGrid  ... Gauss-Chebyshev
Angular Grid (max. acc.)         AngularGrid ... Lebedev-110
Angular grid pruning method      GridPruning ... 3 (G Style)
Weight generation scheme         WeightScheme... Becke
Basis function cutoff            BFCut       ...    1.0000e-11
Integration weight cutoff        WCut        ...    1.0000e-14
Grids for H and He will be reduced by one unit

# of grid points (after initial pruning)     ... 191244 (   0.5 sec)
# of grid points (after weights+screening)   ... 164013 (  16.4 sec)
nearest neighbour list constructed           ...    0.0 sec
Grid point re-assignment to atoms done       ...    0.0 sec
Grid point division into batches done        ...    0.1 sec
Reduced shell lists constructed in    4.4 sec

Total number of grid points                  ...   164013
Total number of batches                      ...     2636
Average number of points per batch           ...       62
Average number of grid points per atom       ...     1079
Average number of shells per batch           ...   137.56 (19.32%)
Average number of basis functions per batch  ...   264.23 (17.48%)
Average number of large shells per batch     ...    77.61 (56.42%)
Average number of large basis fcns per batch ...   152.46 (57.70%)
Maximum spatial batch extension              ...  27.40, 20.22, 25.60 au
Average spatial batch extension              ...   3.01,  3.05,  3.32 au

Time for grid setup =   21.333 sec

------------------------------
INITIAL GUESS: MODEL POTENTIAL
------------------------------
Loading Hartree-Fock densities                     ... done
Calculating cut-offs                               ... done
Setting up the integral package                    ... done
Initializing the effective Hamiltonian             ... done
Starting the Coulomb interaction                   ... done (  21.0 sec)
Reading the grid                                   ... done
Mapping shells                                     ... done
Starting the XC term evaluation                    ... done (   3.6 sec)
Transforming the Hamiltonian                       ... done (   0.3 sec)
Diagonalizing the Hamiltonian                      ... done (   0.8 sec)
Back transforming the eigenvectors                 ... done (   0.1 sec)
Now organizing SCF variables                       ... done
                      ------------------
                      INITIAL GUESS DONE (  47.6 sec)
                      ------------------
--------------
SCF ITERATIONS
--------------
ITER       Energy         Delta-E        Max-DP      RMS-DP      [F,P]     Damp
               ***  Starting incremental Fock matrix formation  ***
  0  -6115.6779911469   0.000000000000 0.24007595  0.00119961  0.2466460 0.7000
  1  -6116.7827571110  -1.104765964079 0.17247197  0.00091395  0.1471257 0.7000
                               ***Turning on DIIS***
  2  -6117.4437040827  -0.660946971755 0.37414630  0.00208648  0.0802432 0.0000
  3  -6112.3773261765   5.066377906231 0.08961723  0.00050949  0.0497310 0.0000
  4  -6118.6963542734  -6.319028096910 0.01282974  0.00018054  0.0082545 0.0000
  5  -6118.8099530988  -0.113598825359 0.01080691  0.00009029  0.0071220 0.0000
  6  -6118.7833618366   0.026591262187 0.00535070  0.00005322  0.0032699 0.0000
  7  -6118.8725231660  -0.089161329386 0.00440971  0.00003590  0.0021216 0.0000
                      *** Initiating the SOSCF procedure ***
                           *** Shutting down DIIS ***
                      *** Re-Reading the Fockian *** 
                      *** Removing any level shift *** 
ITER      Energy       Delta-E        Grad      Rot      Max-DP    RMS-DP
  8  -6118.87377727  -0.0012541076  0.003113  0.003113  0.003808  0.000028
               *** Restarting incremental Fock matrix formation ***
  9  -6118.83389315   0.0398841208  0.001294  0.005169  0.002412  0.000015
 10  -6118.83402671  -0.0001335583  0.000567  0.006712  0.003273  0.000025
 11  -6118.83410080  -0.0000740936  0.000271  0.001054  0.000717  0.000005
 12  -6118.83411017  -0.0000093636  0.000124  0.000648  0.000290  0.000002
 13  -6118.83411236  -0.0000021879  0.000043  0.000330  0.000203  0.000002
 14  -6118.83411302  -0.0000006638  0.000041  0.000250  0.000107  0.000001
 15  -6118.83411323  -0.0000002084  0.000026  0.000204  0.000080  0.000001
 16  -6118.83411331  -0.0000000819  0.000006  0.000053  0.000031  0.000000
 17  -6118.83411330   0.0000000085  0.000003  0.000023  0.000021  0.000000
                  ***Gradient check signals convergence***
              ***Rediagonalizing the Fockian in SOSCF/NRSCF***

               *****************************************************
               *                     SUCCESS                       *
               *           SCF CONVERGED AFTER  18 CYCLES          *
               *****************************************************


----------------
TOTAL SCF ENERGY
----------------

Total Energy       :        -6118.83411327 Eh         -166501.94102 eV

Components:
Nuclear Repulsion  :        15121.53043710 Eh          411477.76232 eV
Electronic Energy  :       -21240.36455037 Eh         -577979.70334 eV
One Electron Energy:       -38540.91822215 Eh        -1048751.70233 eV
Two Electron Energy:        17300.55367177 Eh          470771.99899 eV

Virial components:
Potential Energy   :       -12225.46483473 Eh         -332671.81086 eV
Kinetic Energy     :         6106.63072146 Eh          166169.86984 eV
Virial Ratio       :            2.00199838


---------------
SCF CONVERGENCE
---------------

  Last Energy change         ...    2.7205e-08  Tolerance :   1.0000e-08
  Last MAX-Density change    ...    7.4466e-06  Tolerance :   1.0000e-07
  Last RMS-Density change    ...    6.4780e-08  Tolerance :   5.0000e-09
  Last Orbital Gradient      ...    1.7146e-06  Tolerance :   1.0000e-05
  Last Orbital Rotation      ...    1.4584e-05  Tolerance :   1.0000e-05

             **** THE GBW FILE WAS UPDATED (EH-IDTBR.gbw) ****
             **** DENSITY FILE WAS UPDATED (EH-IDTBR.scfp) ****
             **** ENERGY FILE WAS UPDATED (EH-IDTBR.en.tmp) ****
             **** THE GBW FILE WAS UPDATED (EH-IDTBR.gbw) ****
             **** DENSITY FILE WAS UPDATED (EH-IDTBR.scfp) ****
----------------
ORBITAL ENERGIES
----------------

  NO   OCC          E(Eh)            E(eV) 
   0   2.0000     -92.048586     -2504.7694 
   1   2.0000     -92.043802     -2504.6392 
   2   2.0000     -91.969093     -2502.6062 
   3   2.0000     -91.964966     -2502.4939 
   4   2.0000     -91.964364     -2502.4776 
   5   2.0000     -91.956195     -2502.2553 
   6   2.0000     -91.880352     -2500.1915 
   7   2.0000     -91.872376     -2499.9744 
   8   2.0000     -20.558421      -559.4231 
   9   2.0000     -20.544487      -559.0439 
  10   2.0000     -15.640323      -425.5948 
  11   2.0000     -15.630250      -425.3207 
  12   2.0000     -15.628470      -425.2723 
  13   2.0000     -15.625275      -425.1854 
  14   2.0000     -15.622794      -425.1178 
  15   2.0000     -15.618099      -424.9901 
  16   2.0000     -11.397795      -310.1498 
  17   2.0000     -11.382750      -309.7404 
  18   2.0000     -11.379626      -309.6554 
  19   2.0000     -11.363780      -309.2242 
  20   2.0000     -11.319957      -308.0317 
  21   2.0000     -11.318316      -307.9870 
  22   2.0000     -11.314097      -307.8722 
  23   2.0000     -11.312264      -307.8223 
  24   2.0000     -11.300271      -307.4960 
  25   2.0000     -11.299100      -307.4642 
  26   2.0000     -11.298229      -307.4404 
  27   2.0000     -11.295225      -307.3587 
  28   2.0000     -11.289174      -307.1941 
  29   2.0000     -11.288148      -307.1661 
  30   2.0000     -11.287454      -307.1472 
  31   2.0000     -11.287092      -307.1374 
  32   2.0000     -11.286809      -307.1297 
  33   2.0000     -11.280369      -306.9544 
  34   2.0000     -11.279244      -306.9238 
  35   2.0000     -11.277431      -306.8745 
  36   2.0000     -11.274470      -306.7939 
  37   2.0000     -11.272970      -306.7531 
  38   2.0000     -11.272553      -306.7418 
  39   2.0000     -11.272114      -306.7298 
  40   2.0000     -11.271094      -306.7021 
  41   2.0000     -11.267620      -306.6075 
  42   2.0000     -11.265773      -306.5573 
  43   2.0000     -11.262781      -306.4758 
  44   2.0000     -11.261552      -306.4424 
  45   2.0000     -11.260883      -306.4242 
  46   2.0000     -11.260437      -306.4121 
  47   2.0000     -11.259305      -306.3813 
  48   2.0000     -11.257234      -306.3249 
  49   2.0000     -11.255948      -306.2899 
  50   2.0000     -11.254970      -306.2633 
  51   2.0000     -11.254641      -306.2543 
  52   2.0000     -11.246058      -306.0208 
  53   2.0000     -11.245975      -306.0185 
  54   2.0000     -11.236807      -305.7691 
  55   2.0000     -11.236321      -305.7558 
  56   2.0000     -11.234640      -305.7101 
  57   2.0000     -11.234168      -305.6973 
  58   2.0000     -11.232399      -305.6491 
  59   2.0000     -11.230217      -305.5897 
  60   2.0000     -11.228455      -305.5418 
  61   2.0000     -11.226508      -305.4888 
  62   2.0000     -11.226438      -305.4869 
  63   2.0000     -11.225911      -305.4726 
  64   2.0000     -11.225208      -305.4534 
  65   2.0000     -11.224811      -305.4426 
  66   2.0000     -11.224148      -305.4246 
  67   2.0000     -11.223407      -305.4044 
  68   2.0000     -11.222828      -305.3887 
  69   2.0000     -11.222646      -305.3837 
  70   2.0000     -11.222220      -305.3721 
  71   2.0000     -11.220983      -305.3385 
  72   2.0000     -11.220566      -305.3271 
  73   2.0000     -11.220231      -305.3180 
  74   2.0000     -11.220096      -305.3143 
  75   2.0000     -11.219040      -305.2856 
  76   2.0000     -11.217394      -305.2408 
  77   2.0000     -11.217207      -305.2357 
  78   2.0000     -11.216370      -305.2129 
  79   2.0000     -11.214389      -305.1590 
  80   2.0000      -9.079555      -247.0673 
  81   2.0000      -9.074883      -246.9401 
  82   2.0000      -9.004262      -245.0184 
  83   2.0000      -9.002372      -244.9670 
  84   2.0000      -8.998719      -244.8676 
  85   2.0000      -8.992119      -244.6880 
  86   2.0000      -8.917927      -242.6691 
  87   2.0000      -8.909950      -242.4521 
  88   2.0000      -6.766790      -184.1337 
  89   2.0000      -6.764924      -184.0829 
  90   2.0000      -6.763571      -184.0461 
  91   2.0000      -6.762112      -184.0064 
  92   2.0000      -6.760281      -183.9566 
  93   2.0000      -6.758910      -183.9193 
  94   2.0000      -6.691884      -182.0954 
  95   2.0000      -6.690942      -182.0698 
  96   2.0000      -6.689748      -182.0373 
  97   2.0000      -6.689026      -182.0177 
  98   2.0000      -6.688532      -182.0042 
  99   2.0000      -6.686162      -181.9397 
 100   2.0000      -6.686049      -181.9366 
 101   2.0000      -6.684947      -181.9067 
 102   2.0000      -6.683136      -181.8574 
 103   2.0000      -6.679097      -181.7475 
 104   2.0000      -6.677832      -181.7130 
 105   2.0000      -6.675347      -181.6454 
 106   2.0000      -6.606273      -179.7658 
 107   2.0000      -6.603467      -179.6895 
 108   2.0000      -6.602067      -179.6514 
 109   2.0000      -6.598311      -179.5492 
 110   2.0000      -6.595561      -179.4743 
 111   2.0000      -6.594133      -179.4355 
 112   2.0000      -1.419124       -38.6163 
 113   2.0000      -1.405963       -38.2582 
 114   2.0000      -1.372928       -37.3593 
 115   2.0000      -1.368465       -37.2378 
 116   2.0000      -1.318320       -35.8733 
 117   2.0000      -1.308352       -35.6021 
 118   2.0000      -1.231481       -33.5103 
 119   2.0000      -1.220985       -33.2247 
 120   2.0000      -1.211783       -32.9743 
 121   2.0000      -1.207128       -32.8476 
 122   2.0000      -1.192265       -32.4432 
 123   2.0000      -1.185955       -32.2715 
 124   2.0000      -1.161228       -31.5986 
 125   2.0000      -1.145953       -31.1830 
 126   2.0000      -1.138216       -30.9724 
 127   2.0000      -1.132772       -30.8243 
 128   2.0000      -1.119321       -30.4583 
 129   2.0000      -1.102331       -29.9959 
 130   2.0000      -1.098461       -29.8906 
 131   2.0000      -1.097372       -29.8610 
 132   2.0000      -1.089075       -29.6352 
 133   2.0000      -1.079716       -29.3806 
 134   2.0000      -1.066379       -29.0176 
 135   2.0000      -1.062567       -28.9139 
 136   2.0000      -1.054115       -28.6839 
 137   2.0000      -1.051771       -28.6201 
 138   2.0000      -1.047089       -28.4928 
 139   2.0000      -1.046239       -28.4696 
 140   2.0000      -1.028602       -27.9897 
 141   2.0000      -1.021323       -27.7916 
 142   2.0000      -1.016629       -27.6639 
 143   2.0000      -1.011093       -27.5132 
 144   2.0000      -1.010818       -27.5058 
 145   2.0000      -1.008650       -27.4468 
 146   2.0000      -1.008188       -27.4342 
 147   2.0000      -1.006683       -27.3932 
 148   2.0000      -0.996042       -27.1037 
 149   2.0000      -0.994207       -27.0537 
 150   2.0000      -0.983118       -26.7520 
 151   2.0000      -0.974643       -26.5214 
 152   2.0000      -0.971365       -26.4322 
 153   2.0000      -0.969260       -26.3749 
 154   2.0000      -0.939082       -25.5537 
 155   2.0000      -0.927026       -25.2257 
 156   2.0000      -0.915828       -24.9209 
 157   2.0000      -0.915188       -24.9035 
 158   2.0000      -0.903993       -24.5989 
 159   2.0000      -0.895709       -24.3735 
 160   2.0000      -0.889124       -24.1943 
 161   2.0000      -0.876587       -23.8531 
 162   2.0000      -0.872237       -23.7348 
 163   2.0000      -0.868393       -23.6302 
 164   2.0000      -0.866406       -23.5761 
 165   2.0000      -0.864977       -23.5372 
 166   2.0000      -0.860444       -23.4139 
 167   2.0000      -0.858927       -23.3726 
 168   2.0000      -0.854612       -23.2552 
 169   2.0000      -0.846104       -23.0237 
 170   2.0000      -0.836730       -22.7686 
 171   2.0000      -0.835970       -22.7479 
 172   2.0000      -0.832172       -22.6445 
 173   2.0000      -0.830282       -22.5931 
 174   2.0000      -0.827089       -22.5062 
 175   2.0000      -0.815005       -22.1774 
 176   2.0000      -0.806462       -21.9450 
 177   2.0000      -0.794766       -21.6267 
 178   2.0000      -0.784688       -21.3524 
 179   2.0000      -0.777120       -21.1465 
 180   2.0000      -0.774305       -21.0699 
 181   2.0000      -0.772345       -21.0166 
 182   2.0000      -0.767938       -20.8967 
 183   2.0000      -0.766460       -20.8564 
 184   2.0000      -0.757668       -20.6172 
 185   2.0000      -0.751185       -20.4408 
 186   2.0000      -0.746149       -20.3037 
 187   2.0000      -0.733410       -19.9571 
 188   2.0000      -0.727330       -19.7917 
 189   2.0000      -0.720802       -19.6140 
 190   2.0000      -0.711442       -19.3593 
 191   2.0000      -0.709083       -19.2951 
 192   2.0000      -0.702186       -19.1075 
 193   2.0000      -0.692535       -18.8448 
 194   2.0000      -0.688165       -18.7259 
 195   2.0000      -0.687734       -18.7142 
 196   2.0000      -0.685587       -18.6558 
 197   2.0000      -0.677001       -18.4221 
 198   2.0000      -0.670172       -18.2363 
 199   2.0000      -0.666616       -18.1396 
 200   2.0000      -0.661293       -17.9947 
 201   2.0000      -0.658043       -17.9063 
 202   2.0000      -0.656885       -17.8747 
 203   2.0000      -0.651086       -17.7170 
 204   2.0000      -0.649742       -17.6804 
 205   2.0000      -0.648682       -17.6515 
 206   2.0000      -0.647089       -17.6082 
 207   2.0000      -0.646529       -17.5929 
 208   2.0000      -0.643953       -17.5228 
 209   2.0000      -0.642731       -17.4896 
 210   2.0000      -0.641197       -17.4479 
 211   2.0000      -0.639160       -17.3924 
 212   2.0000      -0.634868       -17.2756 
 213   2.0000      -0.630192       -17.1484 
 214   2.0000      -0.626421       -17.0458 
 215   2.0000      -0.622373       -16.9356 
 216   2.0000      -0.618029       -16.8174 
 217   2.0000      -0.614541       -16.7225 
 218   2.0000      -0.614418       -16.7192 
 219   2.0000      -0.610862       -16.6224 
 220   2.0000      -0.607719       -16.5369 
 221   2.0000      -0.607103       -16.5201 
 222   2.0000      -0.605617       -16.4797 
 223   2.0000      -0.600946       -16.3526 
 224   2.0000      -0.598708       -16.2917 
 225   2.0000      -0.596001       -16.2180 
 226   2.0000      -0.593292       -16.1443 
 227   2.0000      -0.588823       -16.0227 
 228   2.0000      -0.586653       -15.9636 
 229   2.0000      -0.581929       -15.8351 
[...]
   Time for densities:     0.797
   Using LibInt in JK Direct
   Time for J+K (Direct):  1650.478
   Time for Sigma-Completion:    11.307
   Size of expansion space: 11
   Lowest Energy          :     0.094051524599
   Maximum Energy change  :     0.000001853923 (vector 2)
   Maximum residual norm  :     0.000000243221

      *** CONVERGENCE OF RESIDUAL NORM REACHED ***

Storing the converged CI vectors               ... EH-IDTBR.cis1

                 *** DAVIDSON DONE ***

Total time for solving the CIS problem: 88100.184sec

-----------------------------
CIS-EXCITED STATES (SINGLETS)
-----------------------------

the weight of the individual excitations are printed if larger than 1.0e-02

STATE  1:  E=   0.094052 au      2.559 eV    20641.9 cm**-1
   318a -> 324a  :     0.013536 (c= -0.11634546)
   319a -> 322a  :     0.203650 (c=  0.45127562)
   320a -> 321a  :     0.650994 (c= -0.80684186)
   320a -> 324a  :     0.029676 (c= -0.17226733)

STATE  2:  E=   0.111461 au      3.033 eV    24462.9 cm**-1
   313a -> 322a  :     0.012233 (c=  0.11060192)
   317a -> 321a  :     0.011075 (c= -0.10523635)
   318a -> 322a  :     0.031830 (c=  0.17840910)
   319a -> 321a  :     0.362186 (c=  0.60181887)
   320a -> 322a  :     0.475916 (c= -0.68986692)

STATE  3:  E=   0.148407 au      4.038 eV    32571.6 cm**-1
   316a -> 321a  :     0.073998 (c=  0.27202517)
   316a -> 322a  :     0.092868 (c=  0.30474317)
   316a -> 325a  :     0.316837 (c=  0.56288254)
   316a -> 326a  :     0.114134 (c=  0.33783734)
   316a -> 327a  :     0.046545 (c=  0.21574232)
   316a -> 328a  :     0.022953 (c= -0.15150163)
   316a -> 329a  :     0.260552 (c= -0.51044262)
   316a -> 331a  :     0.013420 (c= -0.11584491)


----------------------
CIS-EXCITATION SPECTRA
----------------------

Center of mass = (-19.8016, -7.6646,  7.2423)
Calculating the Dipole integrals                  ... done
Transforming integrals                            ... done
Calculating the Linear Momentum integrals         ... done
Transforming integrals                            ... done
Calculating angular momentum integrals            ... done
Transforming integrals                            ... done

-----------------------------------------------------------------------------
         ABSORPTION SPECTRUM VIA TRANSITION ELECTRIC DIPOLE MOMENTS
-----------------------------------------------------------------------------
State   Energy    Wavelength  fosc         T2        TX        TY        TZ  
        (cm-1)      (nm)                 (au**2)    (au)      (au)      (au) 
-----------------------------------------------------------------------------
   1   20641.9    484.5   3.438218666  54.83513  -6.70223  -1.78003   2.59744
   2   24462.9    408.8   0.005098778   0.06862  -0.23005   0.05452   0.11280
   3   32571.6    307.0   0.000187483   0.00189  -0.00776   0.00231   0.04277

-----------------------------------------------------------------------------
         ABSORPTION SPECTRUM VIA TRANSITION VELOCITY DIPOLE MOMENTS
-----------------------------------------------------------------------------
State   Energy    Wavelength   fosc        P2         PX        PY        PZ  
        (cm-1)      (nm)                 (au**2)     (au)      (au)      (au) 
-----------------------------------------------------------------------------
   1   20641.9    484.5   2.094511808   0.29549   0.49776   0.10523  -0.19145
   2   24462.9    408.8   0.004926352   0.00082   0.02599   0.00551   0.01084
   3   32571.6    307.0   0.000487229   0.00011   0.00702   0.00053   0.00767

-------------------------------------------------------------------
                             CD SPECTRUM
-------------------------------------------------------------------
State  Energy     Wavelength     R         MX        MY        MZ   
       (cm-1)       (nm)     (1e40*cgs)   (au)      (au)      (au)  
-------------------------------------------------------------------
   1   20641.9    484.5    -41.39215   0.15902  -0.03969   0.34931
   2   24462.9    408.8     -2.98297   0.21531  -0.07936   0.42140
   3   32571.6    307.0      5.50356  -0.28902   0.36367   0.20082

Total run time:    88412.258 sec

           *** ORCA-CIS/TD-DFT FINISHED WITHOUT ERROR ***

-----------------------
CIS/TD-DFT TOTAL ENERGY
-----------------------

    E(SCF)  =  -6118.834113274 Eh
    DE(CIS) =      0.094051525 Eh (Root  1)
    ----------------------------- ---------
    E(tot)  =  -6118.740061750 Eh


-------------------------   --------------------
FINAL SINGLE POINT ENERGY     -6118.740061749872
-------------------------   --------------------

------------------------------------------------------------------------------
                         ORCA SCF GRADIENT CALCULATION
------------------------------------------------------------------------------


------------
CIS GRADIENT
------------

Reference wavefunction             ... RHF
State of interest                  ... 1
Basis dimension                    ... 1512
DFT-XC contribution needed         ... NO
RI-approximation                   ... OFF
CIS-vectors being read from        ... EH-IDTBR.cis

 => Number of Vectors found: 3
 => Orbital Window: 112...320 -> 321...1511

Reading the CIS file                     ... done
Norm of the CI vector                    ... 1.000000000
Making the CIS (pseudo)densities         ... done
Making operators G(D) and Q(T)           ... done
Transforming the Fock operators          ... done
Making the frozen-core relaxed density   ... done
Constructing the G(H) operator           ... done
Transforming the G(H) operator           ... done
Calculating the CIS Lagrangian           ... done
Solving the Z-vector equations           ... done
Finalizing the relaxed density           ... done
Storing the relaxed density              ... done
Constructing the G(Z) operator           ... done
Transforming the G(Z) operator           ... done
Making the W-matrix                      ... done
Finalizing the W-matrix                  ... done
Transforming the W-matrix                ... done
Nuclear repulsion gradient               ... done
One-Electron gradient                    ... done
Prescreening matrices                    ... done
Two-Electron gradient (4-center)         ... done
                 ---------------------------
                 EXCITED STATE GRADIENT DONE
                 ---------------------------


------------------
CARTESIAN GRADIENT
------------------

   1   S   :   -0.026329075    0.005508575    0.014249534
   2   C   :    0.003735450   -0.001865743   -0.001719710
   3   S   :    0.001661858    0.006793975    0.002116493
   4   N   :    0.005311438    0.000126754    0.000104213
   5   C   :   -0.008952262   -0.007644116   -0.000751550
   6   C   :    0.002905567   -0.000490185    0.003315852
   7   C   :   -0.003938403   -0.040989477   -0.010599002
   8   O   :    0.000027893    0.036648274    0.011589658
   9   C   :    0.019990015   -0.003166451   -0.010737104
  10   C   :   -0.021735549   -0.007463529    0.008018174
  11   C   :    0.011502933   -0.008762115   -0.009297548
  12   C   :   -0.007744256    0.031863411    0.016936660
  13   N   :    0.023330948   -0.014302398   -0.017065882
  14   S   :    0.001766443   -0.007584017   -0.004195252
  15   N   :   -0.000777206   -0.022031135   -0.008698626
  16   C   :   -0.012425853    0.035015281    0.020346955
  17   C   :    0.009934113   -0.006522884   -0.008242539
  18   C   :    0.010129827    0.003597283   -0.003535357
  19   C   :   -0.013294163   -0.000258768    0.006908556
  20   C   :   -0.001255674   -0.005505428   -0.001315180
  21   C   :    0.000755243    0.004565133   -0.000292694
  22   C   :    0.004775832   -0.013941554   -0.008786169
  23   C   :   -0.002004831    0.005909679    0.002033707
  24   S   :    0.001898885    0.001263259   -0.001020829
  25   C   :   -0.008328492   -0.000474504    0.003622626
  26   C   :    0.008827602    0.002522672   -0.004806387
  27   C   :   -0.007598007    0.009328514    0.000632204
  28   C   :   -0.001010062   -0.005968220    0.002272673
  29   C   :    0.005293996    0.005698641    0.003921052
  30   C   :   -0.003989401   -0.005545964   -0.002096193
  31   C   :    0.004591007    0.001903191    0.002477106
  32   C   :   -0.001060359   -0.006063014   -0.001144008
  33   C   :    0.001014374    0.004788823   -0.000945288
  34   C   :    0.001650893   -0.000542488   -0.002713992
  35   C   :   -0.005674738   -0.001715068   -0.005139124
  36   C   :    0.005805495    0.001101672    0.004643736
  37   C   :   -0.005194247    0.000537599   -0.001153770
  38   C   :    0.007083653    0.002402071    0.002701315
  39   C   :   -0.004262697   -0.003594824   -0.002634260
  40   C   :   -0.009517094    0.002196495    0.002900136
  41   C   :    0.010283616   -0.001128036   -0.003472213
  42   C   :   -0.010100895   -0.000930780    0.004145185
  43   C   :    0.010598596    0.000161877   -0.004642004
  44   C   :    0.007446933   -0.009248980   -0.000000666
  45   C   :    0.001690382    0.005495735   -0.003583579
  46   C   :   -0.000908852   -0.009432301   -0.002510215
  47   C   :   -0.000116274    0.005148507    0.001008342
  48   C   :   -0.003976829   -0.002929664    0.000338762
  49   C   :    0.002549647    0.006635214   -0.000574467
  50   C   :   -0.000165832   -0.005338946    0.001632165
  51   C   :   -0.001416130   -0.001793768    0.000921159
  52   C   :    0.008627553    0.000712473    0.001149119
  53   C   :   -0.006277203    0.000101037   -0.001405530
  54   C   :    0.004000142    0.001464263    0.002497292
  55   C   :   -0.007119475   -0.003506398   -0.001478616
  56   C   :    0.005438430    0.002281532   -0.001196914
  57   C   :   -0.000705679    0.009874397    0.005092974
  58   C   :    0.002592576   -0.004466170   -0.002418276
  59   S   :   -0.014647345   -0.005259907    0.005852287
  60   C   :    0.006069301    0.009778907    0.000182693
  61   C   :   -0.004458057   -0.004469948    0.001300531
  62   C   :   -0.006087553   -0.014475633   -0.001239428
  63   C   :   -0.010013685    0.038397598    0.016139709
  64   N   :    0.017441473   -0.015360968   -0.013006663
  65   S   :    0.002026759   -0.005895954   -0.002741822
  66   N   :    0.002373801   -0.021488294   -0.007628198
  67   C   :   -0.007553272    0.033988939    0.013916515
  68   C   :   -0.001226252   -0.009033236   -0.002381642
  69   C   :    0.006654940    0.000365750   -0.003086753
  70   C   :   -0.005688472   -0.004352818    0.001259468
  71   C   :    0.013687180   -0.002795721   -0.006956365
  72   C   :   -0.007947419    0.014080057    0.007397184
  73   S   :    0.008432645   -0.001974052   -0.004503779
  74   C   :   -0.001337539    0.003588174    0.002625955
  75   S   :    0.002614059    0.006600012    0.001176053
  76   N   :   -0.003770121    0.003152470    0.005231013
  77   C   :    0.002163084   -0.011237500   -0.006055488
  78   C   :    0.000952551    0.000306185    0.004310008
  79   C   :   -0.015343285   -0.036266705   -0.001907903
  80   O   :    0.017885862    0.031648869   -0.000109834
  81   H   :   -0.001690839    0.004867893    0.002091442
  82   H   :    0.002914753   -0.003133822   -0.003819839
  83   H   :   -0.000555245   -0.001163162   -0.002365814
  84   H   :   -0.003548206   -0.001658619   -0.000372353
  85   H   :   -0.001493428    0.000279884   -0.000773391
  86   H   :   -0.000602176    0.002631504    0.001202455
  87   H   :   -0.002278890   -0.001948016    0.000066758
  88   H   :    0.000223549   -0.001042850   -0.000521258
  89   H   :    0.000738422    0.000960086   -0.000151586
  90   H   :    0.001437469    0.002407075   -0.001218279
  91   H   :   -0.001838478    0.001887441    0.001247239
  92   H   :    0.001641682    0.002445765    0.001878428
  93   H   :    0.000401427    0.002160208    0.001418657
  94   H   :    0.002115282    0.000564525    0.001706874
  95   H   :   -0.003061158    0.000619814   -0.000038413
  96   H   :   -0.002690022    0.000376167    0.002133410
  97   H   :   -0.002027530   -0.001825417    0.000488367
  98   H   :    0.001505932    0.001311018    0.005658113
  99   H   :    0.001284453    0.001953862   -0.001209757
 100   H   :    0.000048078   -0.002513171    0.000114583
 101   H   :    0.002719273   -0.002050840    0.001020238
 102   H   :    0.000276135   -0.002246037    0.002526267
 103   H   :   -0.002352062    0.000476185    0.002287366
 104   H   :    0.000052397   -0.000337987   -0.001684578
 105   H   :   -0.001560998    0.000902615   -0.000870940
 106   H   :   -0.002761675   -0.000277537    0.000881153
 107   H   :   -0.001247959    0.001910301   -0.001390523
 108   H   :    0.002051046    0.000120149    0.001834970
 109   H   :    0.000681842    0.002820900    0.002128652
 110   H   :    0.002452185    0.001907855    0.000232015
 111   H   :   -0.002440246    0.000395841   -0.000799686
 112   H   :   -0.000974240   -0.002165220   -0.001277085
 113   H   :    0.003155206    0.001568709    0.000307766
 114   H   :    0.001170944    0.001987451   -0.002192392
 115   H   :    0.000983884    0.003426965    0.000023023
 116   H   :   -0.000961373    0.000086724    0.001065893
 117   H   :    0.000812133   -0.000113715   -0.000467501
 118   H   :   -0.001402511   -0.001241136    0.000913041
 119   H   :    0.001369968   -0.002660877   -0.000833534
 120   H   :   -0.002000066   -0.003232662   -0.001549916
 121   H   :   -0.001599992   -0.000982482    0.001150767
 122   H   :   -0.001557890    0.000380787   -0.006323225
 123   H   :    0.000884546    0.002598587   -0.001801896
 124   H   :   -0.001745000    0.002878248   -0.000330355
 125   H   :    0.000181459    0.002203334   -0.001103355
 126   H   :   -0.000630167   -0.001891897   -0.000290707
 127   H   :    0.000616278   -0.002428563    0.000179661
 128   H   :    0.001515816    0.002577641   -0.001459269
 129   H   :    0.000102010    0.000297929   -0.003364336
 130   H   :   -0.001623291    0.002040065   -0.002300435
 131   H   :    0.000070236    0.001748942    0.001266082
 132   H   :    0.001572053   -0.001538393   -0.001453071
 133   H   :    0.000514605   -0.000976486   -0.000230034
 134   H   :    0.001280914    0.002155965    0.001170991
 135   H   :    0.002476855   -0.003770094    0.003063495
 136   H   :   -0.002163195   -0.002011715    0.000521825
 137   H   :   -0.002510976   -0.000707582    0.001706850
 138   H   :   -0.002116062   -0.001074733    0.000041287
 139   H   :    0.002056843    0.000633363    0.000811778
 140   H   :    0.002049476    0.000675582   -0.001617157
 141   H   :   -0.002705809   -0.002401971   -0.000270467
 142   H   :    0.000409435   -0.002924811    0.000417549
 143   H   :   -0.001545779   -0.002301386    0.002004104
 144   H   :    0.002362063   -0.002116118   -0.001655071
 145   H   :   -0.001683158    0.000674433    0.001037988
 146   H   :    0.001003190   -0.000729688   -0.000609387
 147   H   :    0.000604430   -0.002123491   -0.000884512
 148   H   :   -0.005580939   -0.001349213    0.000701612
 149   H   :    0.004329556    0.004135033   -0.001360534
 150   H   :    0.000225332   -0.000191337   -0.001727890
 151   H   :    0.001020771   -0.002711512   -0.002621414
 152   H   :   -0.001933026   -0.000961945   -0.001536982

Difference to translation invariance:
           :   -0.0000000001   -0.0000000000   -0.0000000001

Norm of the cartesian gradient     ...    0.1544893021
RMS gradient                       ...    0.0072346244
MAX gradient                       ...    0.0409894770

-------
TIMINGS
-------

Total CIS gradient time            ...    49656.621 sec

Fock matrix formation       ....    3698.723 sec  (  7.4%)
  Coulomb formation         ....    3698.723 sec  (100.0% of F)
Z-vector equation           ....   42512.704 sec  ( 85.6%)
One electron gradient       ....      28.007 sec  (  0.1%)
Prescreening matrices       ....       1.403 sec  (  0.0%)
Two electron gradient       ....    3409.934 sec  (  6.9%)

                            ***************************************
                            *     ORCA property calculations      *
                            ***************************************

                                    ---------------------
                                    Active property flags
                                    ---------------------
   (+) Dipole Moment


------------------------------------------------------------------------------
                       ORCA ELECTRIC PROPERTIES CALCULATION
------------------------------------------------------------------------------

Dipole Moment Calculation                       ... on
Quadrupole Moment Calculation                   ... off
Polarizability Calculation                      ... off
GBWName                                         ... EH-IDTBR.gbw
Electron density file                           ... EH-IDTBR.scfp
The origin for moment calculation is the CENTER OF MASS  = (-19.801553, -7.664580  7.242258)

-------------
DIPOLE MOMENT
-------------
                                X             Y             Z
Electronic contribution:     -2.83913     -33.75630     -11.92843
Nuclear contribution   :      2.41685      34.42957      12.48242
                        -----------------------------------------
Total Dipole Moment    :     -0.42229       0.67327       0.55399
                        -----------------------------------------
Magnitude (a.u.)       :      0.96878
Magnitude (Debye)      :      2.46243



--------------------
Rotational spectrum 
--------------------
 
Rotational constants in cm-1:     0.001770     0.000187     0.000178 
Rotational constants in MHz :    53.067978     5.593187     5.350061 

 Dipole components along the rotational axes: 
x,y,z [a.u.] :     0.448931    -0.839278     0.180551 
x,y,z [Debye]:     1.141093    -2.133275     0.458924 

 

                        *** CIS RELAXED DENSITY ***

------------------------------------------------------------------------------
                       ORCA ELECTRIC PROPERTIES CALCULATION
------------------------------------------------------------------------------

Dipole Moment Calculation                       ... on
Quadrupole Moment Calculation                   ... off
Polarizability Calculation                      ... off
GBWName                                         ... EH-IDTBR.gbw
Electron density file                           ... EH-IDTBR.cisp
The origin for moment calculation is the CENTER OF MASS  = (-19.801553, -7.664580  7.242258)

-------------
DIPOLE MOMENT
-------------
                                X             Y             Z
Electronic contribution:     -2.62238     -33.43422     -11.93277
Nuclear contribution   :      2.41685      34.42957      12.48242
                        -----------------------------------------
Total Dipole Moment    :     -0.20554       0.99535       0.54965
                        -----------------------------------------
Magnitude (a.u.)       :      1.15546
Magnitude (Debye)      :      2.93695



--------------------
Rotational spectrum 
--------------------
 
Rotational constants in cm-1:     0.001770     0.000187     0.000178 
Rotational constants in MHz :    53.067978     5.593187     5.350061 

 Dipole components along the rotational axes: 
x,y,z [a.u.] :     0.184477    -1.122799     0.200953 
x,y,z [Debye]:     0.468902    -2.853928     0.510781 

 

Timings for individual modules:

Sum of individual times         ...   156326.532 sec (=2605.442 min)
GTO integral calculation        ...        2.818 sec (=   0.047 min)   0.0 %
SCF iterations                  ...    18254.603 sec (= 304.243 min)  11.7 %
CIS module                      ...    88412.359 sec (=1473.539 min)  56.6 %
SCF Gradient evaluation         ...    49656.752 sec (= 827.613 min)  31.8 %
                             ****ORCA TERMINATED NORMALLY****
TOTAL RUN TIME: 1 days 19 hours 25 minutes 29 seconds 311 msec
