
                                 *****************
                                 * O   R   C   A *
                                 *****************

           --- An Ab Initio, DFT and Semiempirical electronic structure package ---

                  #######################################################
                  #                        -***-                        #
                  #          Department of theory and spectroscopy      #
                  #               Directorship: Frank Neese             #
                  #        Max Planck Institute fuer Kohlenforschung    #
                  #                Kaiser Wilhelm Platz 1               #
                  #                 D-45470 Muelheim/Ruhr               #
                  #                      Germany                        #
                  #                                                     #
                  #                  All rights reserved                #
                  #                        -***-                        #
                  #######################################################


                         Program Version 4.2.0 -  RELEASE  -


 With contributions from (in alphabetic order):
   Daniel Aravena         : Magnetic Suceptibility
   Michael Atanasov       : Ab Initio Ligand Field Theory (pilot matlab implementation)
   Alexander A. Auer      : GIAO ZORA, VPT2
   Ute Becker             : Parallelization
   Giovanni Bistoni       : ED, misc. LED, open-shell LED, HFLED
   Martin Brehm           : Molecular dynamics
   Dmytro Bykov           : SCF Hessian
   Vijay G. Chilkuri      : MRCI spin determinant printing, contributions to CSF-ICE
   Dipayan Datta          : RHF DLPNO-CCSD density
   Achintya Kumar Dutta   : EOM-CC, STEOM-CC
   Dmitry Ganyushin       : Spin-Orbit,Spin-Spin,Magnetic field MRCI
   Miquel Garcia          : C-PCM Hessian, Gaussian charge scheme
   Yang Guo               : DLPNO-NEVPT2, CIM, IAO-localization
   Andreas Hansen         : Spin unrestricted coupled pair/coupled cluster methods
   Benjamin Helmich-Paris : CASSCF linear response (MC-RPA)
   Lee Huntington         : MR-EOM, pCC
   Robert Izsak           : Overlap fitted RIJCOSX, COSX-SCS-MP3, EOM
   Christian Kollmar      : KDIIS, OOCD, Brueckner-CCSD(T), CCSD density
   Simone Kossmann        : Meta GGA functionals, TD-DFT gradient, OOMP2, MP2 Hessian
   Martin Krupicka        : AUTO-CI
   Lucas Lang             : DCDCAS
   Dagmar Lenk            : GEPOL surface, SMD
   Dimitrios Liakos       : Extrapolation schemes; Compound Job, initial MDCI parallelization
   Dimitrios Manganas     : Further ROCIS development; embedding schemes
   Dimitrios Pantazis     : SARC Basis sets
   Taras Petrenko         : DFT Hessian,TD-DFT gradient, ASA, ECA, R-Raman, ABS, FL, XAS/XES, NRVS
   Peter Pinski           : DLPNO-MP2, DLPNO-MP2 Gradient
   Christoph Reimann      : Effective Core Potentials
   Marius Retegan         : Local ZFS, SOC
   Christoph Riplinger    : Optimizer, TS searches, QM/MM, DLPNO-CCSD(T), (RO)-DLPNO pert. Triples
   Tobias Risthaus        : Range-separated hybrids, TD-DFT gradient, RPA, STAB
   Michael Roemelt        : Original ROCIS implementation
   Masaaki Saitow         : Open-shell DLPNO-CCSD energy and density
   Barbara Sandhoefer     : DKH picture change effects
   Avijit Sen             : IP-ROCIS
   Kantharuban Sivalingam : CASSCF convergence, NEVPT2, FIC-MRCI
   Bernardo de Souza      : ESD, SOC TD-DFT
   Georgi Stoychev        : AutoAux, RI-MP2 NMR
   Willem Van den Heuvel  : Paramagnetic NMR
   Boris Wezisla          : Elementary symmetry handling
   Frank Wennmohs         : Technical directorship


 We gratefully acknowledge several colleagues who have allowed us to
 interface, adapt or use parts of their codes:
   Stefan Grimme, W. Hujo, H. Kruse,             : VdW corrections, initial TS optimization,
                  C. Bannwarth                     DFT functionals, gCP, sTDA/sTD-DF
   Ed Valeev, F. Pavosevic, A. Kumar             : LibInt (2-el integral package), F12 methods
   Garnet Chan, S. Sharma, J. Yang, R. Olivares  : DMRG
   Ulf Ekstrom                                   : XCFun DFT Library
   Mihaly Kallay                                 : mrcc  (arbitrary order and MRCC methods)
   Andreas Klamt, Michael Diedenhofen            : otool_cosmo (COSMO solvation model)
   Jiri Pittner, Ondrej Demel                    : Mk-CCSD
   Frank Weinhold                                : gennbo (NPA and NBO analysis)
   Christopher J. Cramer and Donald G. Truhlar   : smd solvation model
   Lars Goerigk                                  : TD-DFT with DH, B97 family of functionals
   V. Asgeirsson, H. Jonsson                     : NEB implementation
   FAccTs GmbH                                   : IRC, NEB, NEB-TS, Multilevel, MM, QM/MM, CI optimization
   S Lehtola, MJT Oliveira, MAL Marques          : LibXC Library


 Your calculation uses the libint2 library for the computation of 2-el integrals
 For citations please refer to: http://libint.valeyev.net

 Your ORCA version has been built with support for libXC version: 4.2.3
 For citations please refer to: https://tddft.org/programs/libxc/

 This ORCA versions uses:
   CBLAS   interface :  Fast vector & matrix operations
   LAPACKE interface :  Fast linear algebra routines
   SCALAPACK package :  Parallel linear algebra routines


----- Orbital basis set information -----
Your calculation utilizes the basis: def2-SVP
   F. Weigend and R. Ahlrichs, Phys. Chem. Chem. Phys. 7, 3297 (2005).

================================================================================
                                        WARNINGS
                       Please study these warnings very carefully!
================================================================================

INFO   : Checking CIS options ...

WARNING: CIS/ROCIS methods need fully converged wavefunctions
  ===> : Setting SCFConvForced true
         You can overwrite this default with %scf ConvForced false 


INFO   : the flag for use of LIBINT has been found!

================================================================================
                                       INPUT FILE
================================================================================
NAME = F-2F.inp
|  1> # ORCA input file
|  2> # F-2F.out
|  3> ! Engrad Keepdens
|  4> %maxcore 1000
|  5> %tddft
|  6>   nroots 3 
|  7>   # nroots is the number of states to be computed
|  8>   Iroot 1
|  9>   end
| 10> * xyz 0 1
| 11>    C        3.26108        -0.86534         1.50009
| 12>    O        3.48750         0.29369         1.20413
| 13>    C        1.98805        -1.39197         2.03768
| 14>    C        0.82389        -0.70374         2.31350
| 15>    C       -0.24448        -1.42661         2.81966
| 16>    F       -1.39358        -0.80080         3.10334
| 17>    C       -0.13334        -2.79976         3.03675
| 18>    F       -1.18059        -3.47341         3.52631
| 19>    C        1.03751        -3.49026         2.75896
| 20>    C        2.11105        -2.77447         2.25328
| 21>    C        3.46128        -3.19273         1.86908
| 22>    C        3.94193        -4.47353         1.96340
| 23>    C        5.24160        -4.89800         1.61594
| 24>    N        6.27619        -5.32865         1.36171
| 25>    C        3.18809        -5.56866         2.43680
| 26>    N        2.63392        -6.50099         2.81244
| 27>    C        4.16233        -2.01457         1.40295
| 28>    C       16.07039        14.33566        -1.38539
| 29>    O       15.38483        15.12025        -0.77203
| 30>    C       17.52165        14.43174        -1.67028
| 31>    C       18.42372        15.38543        -1.24334
| 32>    C       19.74931        15.23038        -1.61776
| 33>    F       20.65926        16.12830        -1.22092
| 34>    C       20.14661        14.14573        -2.39965
| 35>    F       21.43554        14.01335        -2.73284
| 36>    C       19.23849        13.19316        -2.83874
| 37>    C       17.91261        13.34214        -2.46743
| 38>    C       16.72772        12.53849        -2.77894
| 39>    C       16.63274        11.65959        -3.82885
| 40>    C       15.41669        11.10791        -4.27804
| 41>    N       14.44924        10.64951        -4.69252
| 42>    C       17.72472        11.26000        -4.62492
| 43>    N       18.58346        10.87310        -5.28117
| 44>    C       15.64710        13.03783        -1.96647
| 45>    C        8.07253         2.38295        -0.37663
| 46>    C        9.40594         2.02160        -0.67637
| 47>    C       10.34577         2.99057        -0.93960
| 48>    C        9.94033         4.32078        -0.86915
| 49>    C        8.61240         4.68038        -0.56035
| 50>    C        7.65817         3.71237        -0.33833
| 51>    C        8.46460         6.18433        -0.53566
| 52>    C        7.40052         6.67537        -1.52951
| 53>    C        7.71608         6.27065        -2.96496
| 54>    C        8.20101         6.72008         0.89238
| 55>    C        6.91938         6.24372         1.56269
| 56>    C        9.85623         6.63384        -0.92451
| 57>    C       10.70772         5.52596        -1.08953
| 58>    C       12.05754         5.67524        -1.39754
| 59>    C       12.54863         6.95368        -1.53685
| 60>    C       11.69264         8.06341        -1.33893
| 61>    C       10.33990         7.91664        -1.04398
| 62>    C        5.46067        -1.98392         0.94762
| 63>    C       14.43207        12.52450        -1.59603
| 64>    C       12.50119         9.23452        -1.43880
| 65>    C       13.83238         8.89711        -1.67930
| 66>    C       13.97266         7.40323        -1.82472
| 67>    S       12.25454        10.91648        -1.30886
| 68>    C       13.95904        11.20428        -1.63141
| 69>    C       14.65017        10.00466        -1.80349
| 70>    C        9.57780         0.51240        -0.67597
| 71>    C        8.20893         0.07237        -0.23269
| 72>    C        7.35806         1.17653        -0.10352
| 73>    C        7.58923        -1.10401         0.11893
| 74>    C        6.25229        -0.91845         0.51311
| 75>    S        5.78654         0.77587         0.42479
| 76>    C       14.37856         7.13059        -3.29112
| 77>    C       14.91982         6.77578        -0.78493
| 78>    C       10.67487         0.05434         0.29706
| 79>    C        9.87743         0.06888        -2.12587
| 80>    C       10.46108         0.58374         1.71054
| 81>    C        9.87240        -1.43712        -2.35091
| 82>    C       14.46218         5.66392        -3.69005
| 83>    C       16.37906         7.19861        -0.89116
| 84>    H        0.74332         0.35804         2.14378
| 85>    H        1.06980        -4.55095         2.94537
| 86>    H       18.11493        16.22300        -0.63854
| 87>    H       19.59314        12.37114        -3.43902
| 88>    H       11.36650         2.73681        -1.18208
| 89>    H        6.62434         3.94814        -0.14247
| 90>    H        7.33428         7.76320        -1.46450
| 91>    H        6.43196         6.26072        -1.24856
| 92>    H        8.66517         6.69397        -3.28637
| 93>    H        6.93670         6.62786        -3.63374
| 94>    H        7.77593         5.18797        -3.05410
| 95>    H        8.18634         7.81059         0.83529
| 96>    H        9.05066         6.43495         1.51882
| 97>    H        6.04522         6.47537         0.96052
| 98>    H        6.80982         6.74772         2.52054
| 99>    H        6.94933         5.17396         1.74896
|100>    H       12.69083         4.80815        -1.49842
|101>    H        9.71547         8.78585        -0.90380
|102>    H        5.98366        -2.93238         0.92516
|103>    H       13.77422        13.24738        -1.12192
|104>    H       15.71210         9.97251        -1.96340
|105>    H        8.04630        -2.07770         0.13129
|106>    H       15.34227         7.61018        -3.46912
|107>    H       13.65051         7.63199        -3.93330
|108>    H       14.85579         5.69089        -0.87638
|109>    H       14.54416         7.04079         0.20726
|110>    H       11.64139         0.39702        -0.07759
|111>    H       10.69013        -1.03557         0.32483
|112>    H       10.85190         0.47345        -2.40710
|113>    H        9.12919         0.52603        -2.77865
|114>    H       10.45909         1.67155         1.72051
|115>    H       11.25712         0.23476         2.36384
|116>    H        9.51202         0.23580         2.11211
|117>    H       10.61903        -1.93323        -1.73712
|118>    H       10.10018        -1.64705        -3.39346
|119>    H        8.89636        -1.85868        -2.12725
|120>    H       15.16717         5.12040        -3.06631
|121>    H       14.80222         5.59457        -4.72080
|122>    H       13.48810         5.18692        -3.62513
|123>    H       16.79079         6.96343        -1.86867
|124>    H       16.96351         6.66812        -0.14249
|125>    H       16.49134         8.26355        -0.70858
|126> *
|127> 
|128>                          ****END OF INPUT****
================================================================================

                     *******************************
                     * Energy+Gradient Calculation *
                     *******************************

---------------------------------
CARTESIAN COORDINATES (ANGSTROEM)
---------------------------------
  C      3.261080   -0.865340    1.500090
  O      3.487500    0.293690    1.204130
  C      1.988050   -1.391970    2.037680
  C      0.823890   -0.703740    2.313500
  C     -0.244480   -1.426610    2.819660
  F     -1.393580   -0.800800    3.103340
  C     -0.133340   -2.799760    3.036750
  F     -1.180590   -3.473410    3.526310
  C      1.037510   -3.490260    2.758960
  C      2.111050   -2.774470    2.253280
  C      3.461280   -3.192730    1.869080
  C      3.941930   -4.473530    1.963400
  C      5.241600   -4.898000    1.615940
  N      6.276190   -5.328650    1.361710
  C      3.188090   -5.568660    2.436800
  N      2.633920   -6.500990    2.812440
  C      4.162330   -2.014570    1.402950
  C     16.070390   14.335660   -1.385390
  O     15.384830   15.120250   -0.772030
  C     17.521650   14.431740   -1.670280
  C     18.423720   15.385430   -1.243340
  C     19.749310   15.230380   -1.617760
  F     20.659260   16.128300   -1.220920
  C     20.146610   14.145730   -2.399650
  F     21.435540   14.013350   -2.732840
  C     19.238490   13.193160   -2.838740
  C     17.912610   13.342140   -2.467430
  C     16.727720   12.538490   -2.778940
  C     16.632740   11.659590   -3.828850
  C     15.416690   11.107910   -4.278040
  N     14.449240   10.649510   -4.692520
  C     17.724720   11.260000   -4.624920
  N     18.583460   10.873100   -5.281170
  C     15.647100   13.037830   -1.966470
  C      8.072530    2.382950   -0.376630
  C      9.405940    2.021600   -0.676370
  C     10.345770    2.990570   -0.939600
  C      9.940330    4.320780   -0.869150
  C      8.612400    4.680380   -0.560350
  C      7.658170    3.712370   -0.338330
  C      8.464600    6.184330   -0.535660
  C      7.400520    6.675370   -1.529510
  C      7.716080    6.270650   -2.964960
  C      8.201010    6.720080    0.892380
  C      6.919380    6.243720    1.562690
  C      9.856230    6.633840   -0.924510
  C     10.707720    5.525960   -1.089530
  C     12.057540    5.675240   -1.397540
  C     12.548630    6.953680   -1.536850
  C     11.692640    8.063410   -1.338930
  C     10.339900    7.916640   -1.043980
  C      5.460670   -1.983920    0.947620
  C     14.432070   12.524500   -1.596030
  C     12.501190    9.234520   -1.438800
  C     13.832380    8.897110   -1.679300
  C     13.972660    7.403230   -1.824720
  S     12.254540   10.916480   -1.308860
  C     13.959040   11.204280   -1.631410
  C     14.650170   10.004660   -1.803490
  C      9.577800    0.512400   -0.675970
  C      8.208930    0.072370   -0.232690
  C      7.358060    1.176530   -0.103520
  C      7.589230   -1.104010    0.118930
  C      6.252290   -0.918450    0.513110
  S      5.786540    0.775870    0.424790
  C     14.378560    7.130590   -3.291120
  C     14.919820    6.775780   -0.784930
  C     10.674870    0.054340    0.297060
  C      9.877430    0.068880   -2.125870
  C     10.461080    0.583740    1.710540
  C      9.872400   -1.437120   -2.350910
  C     14.462180    5.663920   -3.690050
  C     16.379060    7.198610   -0.891160
  H      0.743320    0.358040    2.143780
  H      1.069800   -4.550950    2.945370
  H     18.114930   16.223000   -0.638540
  H     19.593140   12.371140   -3.439020
  H     11.366500    2.736810   -1.182080
  H      6.624340    3.948140   -0.142470
  H      7.334280    7.763200   -1.464500
  H      6.431960    6.260720   -1.248560
  H      8.665170    6.693970   -3.286370
  H      6.936700    6.627860   -3.633740
  H      7.775930    5.187970   -3.054100
  H      8.186340    7.810590    0.835290
  H      9.050660    6.434950    1.518820
  H      6.045220    6.475370    0.960520
  H      6.809820    6.747720    2.520540
  H      6.949330    5.173960    1.748960
  H     12.690830    4.808150   -1.498420
  H      9.715470    8.785850   -0.903800
  H      5.983660   -2.932380    0.925160
  H     13.774220   13.247380   -1.121920
  H     15.712100    9.972510   -1.963400
  H      8.046300   -2.077700    0.131290
  H     15.342270    7.610180   -3.469120
  H     13.650510    7.631990   -3.933300
  H     14.855790    5.690890   -0.876380
  H     14.544160    7.040790    0.207260
  H     11.641390    0.397020   -0.077590
  H     10.690130   -1.035570    0.324830
  H     10.851900    0.473450   -2.407100
  H      9.129190    0.526030   -2.778650
  H     10.459090    1.671550    1.720510
  H     11.257120    0.234760    2.363840
  H      9.512020    0.235800    2.112110
  H     10.619030   -1.933230   -1.737120
  H     10.100180   -1.647050   -3.393460
  H      8.896360   -1.858680   -2.127250
  H     15.167170    5.120400   -3.066310
  H     14.802220    5.594570   -4.720800
  H     13.488100    5.186920   -3.625130
  H     16.790790    6.963430   -1.868670
  H     16.963510    6.668120   -0.142490
  H     16.491340    8.263550   -0.708580

----------------------------
CARTESIAN COORDINATES (A.U.)
----------------------------
  NO LB      ZA    FRAG     MASS         X           Y           Z
   0 C     6.0000    0    12.011    6.162548   -1.635256    2.834759
   1 O     8.0000    0    15.999    6.590420    0.554994    2.275476
   2 C     6.0000    0    12.011    3.756870   -2.630442    3.850657
   3 C     6.0000    0    12.011    1.556926   -1.329876    4.371881
   4 C     6.0000    0    12.011   -0.462000   -2.695902    5.328385
   5 F     9.0000    0    18.998   -2.633485   -1.513293    5.864463
   6 C     6.0000    0    12.011   -0.251976   -5.290780    5.738626
   7 F     9.0000    0    18.998   -2.230992   -6.563794    6.663760
   8 C     6.0000    0    12.011    1.960610   -6.595636    5.213679
   9 C     6.0000    0    12.011    3.989306   -5.242988    4.258082
  10 C     6.0000    0    12.011    6.540871   -6.033385    3.532049
  11 C     6.0000    0    12.011    7.449168   -8.453747    3.710288
  12 C     6.0000    0    12.011    9.905189   -9.255879    3.053684
  13 N     7.0000    0    14.007   11.860280  -10.069689    2.573259
  14 C     6.0000    0    12.011    6.024617  -10.523242    4.604885
  15 N     7.0000    0    14.007    4.977387  -12.285091    5.314741
  16 C     6.0000    0    12.011    7.865664   -3.806986    2.651191
  17 C     6.0000    0    12.011   30.368636   27.090471   -2.618008
  18 O     8.0000    0    15.999   29.073115   28.573132   -1.458925
  19 C     6.0000    0    12.011   33.111120   27.272036   -3.156372
  20 C     6.0000    0    12.011   34.815785   29.074249   -2.349572
  21 C     6.0000    0    12.011   37.320787   28.781247   -3.057123
  22 F     9.0000    0    18.998   39.040344   30.478070   -2.307204
  23 C     6.0000    0    12.011   38.071575   26.731556   -4.534681
  24 F     9.0000    0    18.998   40.507300   26.481394   -5.164319
  25 C     6.0000    0    12.011   36.355477   24.931459   -5.364441
  26 C     6.0000    0    12.011   33.849927   25.212991   -4.662767
  27 C     6.0000    0    12.011   31.610810   23.694312   -5.251436
  28 C     6.0000    0    12.011   31.431323   22.033432   -7.235478
  29 C     6.0000    0    12.011   29.133322   20.990908   -8.084324
  30 N     7.0000    0    14.007   27.305106   20.124657   -8.867578
  31 C     6.0000    0    12.011   33.494867   21.278316   -8.739832
  32 N     7.0000    0    14.007   35.117650   20.547181   -9.979965
  33 C     6.0000    0    12.011   29.568734   24.637928   -3.716090
  34 C     6.0000    0    12.011   15.254871    4.503123   -0.711728
  35 C     6.0000    0    12.011   17.774651    3.820270   -1.278154
  36 C     6.0000    0    12.011   19.550672    5.651358   -1.775587
  37 C     6.0000    0    12.011   18.784501    8.165091   -1.642455
  38 C     6.0000    0    12.011   16.275077    8.844636   -1.058908
  39 C     6.0000    0    12.011   14.471844    7.015363   -0.639351
  40 C     6.0000    0    12.011   15.995776   11.686690   -1.012251
  41 C     6.0000    0    12.011   13.984956   12.614621   -2.890355
  42 C     6.0000    0    12.011   14.581278   11.849811   -5.602962
  43 C     6.0000    0    12.011   15.497663   12.699111    1.686354
  44 C     6.0000    0    12.011   13.075733   11.798921    2.953056
  45 C     6.0000    0    12.011   18.625575   12.536141   -1.747071
  46 C     6.0000    0    12.011   20.234658   10.442551   -2.058913
  47 C     6.0000    0    12.011   22.785448   10.724649   -2.640968
  48 C     6.0000    0    12.011   23.713474   13.140551   -2.904226
  49 C     6.0000    0    12.011   22.095887   15.237637   -2.530211
  50 C     6.0000    0    12.011   19.539579   14.960282   -1.972836
  51 C     6.0000    0    12.011   10.319171   -3.749065    1.790742
  52 C     6.0000    0    12.011   27.272660   23.667875   -3.016060
  53 C     6.0000    0    12.011   23.623825   17.450714   -2.718938
  54 C     6.0000    0    12.011   26.139410   16.813101   -3.173417
  55 C     6.0000    0    12.011   26.404501   13.990077   -3.448221
  56 S    16.0000    0    32.060   23.157724   20.629158   -2.473387
  57 C     6.0000    0    12.011   26.378763   21.173021   -3.082918
  58 C     6.0000    0    12.011   27.684809   18.906067   -3.408102
  59 C     6.0000    0    12.011   18.099419    0.968296   -1.277398
  60 C     6.0000    0    12.011   15.512630    0.136759   -0.439720
  61 C     6.0000    0    12.011   13.904718    2.223319   -0.195624
  62 C     6.0000    0    12.011   14.341566   -2.086277    0.224745
  63 C     6.0000    0    12.011   11.815116   -1.735619    0.969637
  64 S    16.0000    0    32.060   10.934976    1.466182    0.802737
  65 C     6.0000    0    12.011   27.171541   13.474862   -6.219315
  66 C     6.0000    0    12.011   28.194374   12.804369   -1.483303
  67 C     6.0000    0    12.011   20.172581    0.102688    0.561362
  68 C     6.0000    0    12.011   18.665638    0.130164   -4.017312
  69 C     6.0000    0    12.011   19.768576    1.103109    3.232452
  70 C     6.0000    0    12.011   18.656132   -2.715763   -4.442576
  71 C     6.0000    0    12.011   27.329559   10.703258   -6.973184
  72 C     6.0000    0    12.011   30.951938   13.603401   -1.684048
  73 H     1.0000    0     1.008    1.404671    0.676598    4.051157
  74 H     1.0000    0     1.008    2.021629   -8.600049    5.565943
  75 H     1.0000    0     1.008   34.232257   30.657027   -1.206666
  76 H     1.0000    0     1.008   37.025669   23.378067   -6.498806
  77 H     1.0000    0     1.008   21.479572    5.171821   -2.233807
  78 H     1.0000    0     1.008   12.518188    7.460903   -0.269229
  79 H     1.0000    0     1.008   13.859781   14.670322   -2.767504
  80 H     1.0000    0     1.008   12.154643   11.831046   -2.359436
  81 H     1.0000    0     1.008   16.374798   12.649770   -6.210339
  82 H     1.0000    0     1.008   13.108463   12.524840   -6.866773
  83 H     1.0000    0     1.008   14.694378    9.803842   -5.771413
  84 H     1.0000    0     1.008   15.469941   14.759876    1.578469
  85 H     1.0000    0     1.008   17.103269   12.160293    2.870154
  86 H     1.0000    0     1.008   11.423810   12.236676    1.815120
  87 H     1.0000    0     1.008   12.868695   12.751343    4.763130
  88 H     1.0000    0     1.008   13.132331    9.777367    3.305055
  89 H     1.0000    0     1.008   23.982193    9.086087   -2.831603
  90 H     1.0000    0     1.008   18.359578   16.602850   -1.707934
  91 H     1.0000    0     1.008   11.307479   -5.541395    1.748299
  92 H     1.0000    0     1.008   26.029504   25.033920   -2.120122
  93 H     1.0000    0     1.008   29.691566   18.845313   -3.710288
  94 H     1.0000    0     1.008   15.205303   -3.926284    0.248102
  95 H     1.0000    0     1.008   28.992689   14.381156   -6.555687
  96 H     1.0000    0     1.008   25.795725   14.422371   -7.432860
  97 H     1.0000    0     1.008   28.073375   10.754224   -1.656118
  98 H     1.0000    0     1.008   27.484479   13.305165    0.391665
  99 H     1.0000    0     1.008   21.999039    0.750259   -0.146624
 100 H     1.0000    0     1.008   20.201418   -1.956944    0.613840
 101 H     1.0000    0     1.008   20.507119    0.894691   -4.548760
 102 H     1.0000    0     1.008   17.251669    0.994053   -5.250888
 103 H     1.0000    0     1.008   19.764816    3.158772    3.251293
 104 H     1.0000    0     1.008   21.272874    0.443632    4.467010
 105 H     1.0000    0     1.008   17.975113    0.445597    3.991309
 106 H     1.0000    0     1.008   20.067059   -3.653275   -3.282681
 107 H     1.0000    0     1.008   19.086574   -3.112473   -6.412710
 108 H     1.0000    0     1.008   16.811684   -3.512396   -4.019920
 109 H     1.0000    0     1.008   28.661798    9.676154   -5.794486
 110 H     1.0000    0     1.008   27.972142   10.572205   -8.921019
 111 H     1.0000    0     1.008   25.488815    9.801858   -6.850503
 112 H     1.0000    0     1.008   31.729995   13.158976   -3.531275
 113 H     1.0000    0     1.008   32.056388   12.600921   -0.269267
 114 H     1.0000    0     1.008   31.164116   15.615846   -1.339022

--------------------------------
INTERNAL COORDINATES (ANGSTROEM)
--------------------------------
 C      0   0   0     0.000000000000     0.00000000     0.00000000
 O      1   0   0     1.217460011212     0.00000000     0.00000000
 C      1   2   0     1.478833170408   125.97892214     0.00000000
 C      3   1   2     1.380219443023   128.40044774   359.79323507
 C      4   3   1     1.385696012623   117.59250461   180.13804964
 F      5   4   3     1.338858957658   119.68832891   179.93445257
 C      5   4   3     1.394640129281   120.60020586   359.96322343
 F      7   5   4     1.337985754259   119.36050186   180.00404709
 C      7   5   4     1.387388646559   121.74329493     0.03513418
 C      9   7   5     1.385841159044   118.01758701     0.00000000
 C     10   9   7     1.464811291771   131.47384962   179.68499508
 C     11  10   9     1.371265592400   124.87286177   359.29303214
 C     12  11  10     1.410689668708   125.94677046   180.83233856
 N     13  12  11     1.149116523030   175.37062216   177.71090697
 C     12  11  10     1.411273192015   124.09981362     0.56165574
 N     15  12  11     1.147801824097   176.36665123   181.57959542
 C     11  10   9     1.448036347955   107.36018293   179.99331336
 C      2   1   3    19.031858975502   149.14172719   155.27688229
 O     18   2   1     1.209042791344    91.99876965   225.53428467
 C     18   2   1     1.482075998760   136.16913308    22.27182447
 C     20  18   2     1.380410324722   128.69894611   213.88777216
 C     21  20  18     1.386152836811   117.65245835   178.10919103
 F     22  21  20     1.338563152974   119.66847099   180.30312085
 C     22  21  20     1.394870920408   120.71551736     0.05806816
 F     24  22  21     1.337864187950   119.40341142   180.77403553
 C     24  22  21     1.387397407883   121.65877834     0.50724692
 C     26  24  22     1.384927409975   117.90015177   359.47626011
 C     27  26  24     1.465215381676   131.16261882   178.82814679
 C     28  27  26     1.372514997550   124.73771420   340.38936976
 C     29  28  27     1.408864819988   123.66741780   193.62990362
 N     30  29  28     1.147991172832   177.27682808   157.21825803
 C     29  28  27     1.409191233793   124.06184165    10.13269783
 N     32  29  28     1.147950373535   176.54961496   148.00684560
 C     28  27  26     1.441245128665   107.24464841   171.49751863
 C      2   1   3     5.280748964503   127.65417535   174.99719883
 C     35   2   1     1.413647805573   141.38086514     2.47056352
 C     36  35   2     1.375308446386   120.33545237   186.92350049
 C     37  36  35     1.392409221529   117.67214104     1.40669948
 C     38  37  36     1.409988540698   121.93511934   359.04877595
 C     39  38  37     1.377276709089   120.56860350   358.88010767
 C     39  38  37     1.511396717808   110.45415488   179.25587791
 C     41  39  38     1.536595050916   112.03311420   122.05408840
 C     42  41  39     1.524432056374   112.38610317   301.09625126
 C     41  39  38     1.547839136409   112.09522774   248.42227020
 C     44  41  39     1.522763869613   116.17881688   297.79436210
 C     41  39  38     1.513240767195   101.62225529     2.25014782
 C     46  41  39     1.407005655603   110.65763388   357.56191848
 C     47  46  41     1.392540380348   121.88023224   182.53034229
 C     48  47  46     1.376584722347   117.88780957     0.11783000
 C     49  48  47     1.415412264819   119.88344613     1.33900233
 C     46  41  39     1.376148825455   128.49384211   181.42231201
 C     17  11  10     1.376209136360   125.54696610   180.15136963
 C     34  28  27     1.370047949307   133.43695753   197.50529555
 C     50  49  48     1.426613385434   106.92193600   175.23107586
 C     54  50  49     1.394185272552   110.76652123   359.44597252
 C     55  54  50     1.507482308089   110.20134619     2.83759298
 S     54  50  49     1.704907641985   136.26324465   180.93033556
 C     53  34  28     1.402850659800   130.15302308    16.97818596
 C     55  54  50     1.382342447695   112.73445316   179.08834185
 C     36  35   2     1.518953804301   111.13949037     7.83110114
 C     60  36  35     1.504635715447   100.81944338   355.69493078
 C     61  60  36     1.399940695672   110.45494471     4.04566059
 C     61  60  36     1.375330730697   137.34026511   186.81516713
 C     52  17  11     1.396670141945   130.89250741   182.10076290
 S     62  61  60     1.705671422666   113.78445338   181.07025886
 C     56  55  54     1.545773702584   106.90187661   113.40267709
 C     56  55  54     1.540119739566   113.31765632   239.86687356
 C     60  36  35     1.536284130426   112.16095568   236.28563485
 C     60  36  35     1.545541373532   107.86724116   112.83321400
 C     68  60  36     1.524433086265   112.55532081    53.78170002
 C     69  60  36     1.522729228228   114.94930306   188.78353621
 C     66  56  55     1.522254360546   115.65620556   184.91102700
 C     67  56  55     1.522974523556   115.40751095   294.88629751
 H      4   3   1     1.078273236105   121.50553745     0.10043444
 H      9   7   5     1.077429630324   118.72559826   179.99264418
 H     21  20  18     1.078266112330   121.53307247   358.19915850
 H     26  24  22     1.077881988578   118.97962811   180.14261083
 H     37  36  35     1.079388910866   121.57288795   180.73049262
 H     40  39  38     1.078310299218   122.67436296   182.74034256
 H     42  41  39     1.091782096666   108.77838703   179.72298317
 H     42  41  39     1.090401760178   109.08327805    62.09568217
 H     43  42  41     1.087784922951   110.82510363   299.39026969
 H     43  42  41     1.087335668917   110.09445279   179.46061596
 H     43  42  41     1.087990783279   110.65430514    59.62942399
 H     44  41  39     1.092101889523   107.43846620   175.59028596
 H     44  41  39     1.093449273172   107.81704782    59.98967821
 H     45  44  41     1.086474176868   111.50017484   303.61260621
 H     45  44  41     1.087886030841   109.11168792   184.46562186
 H     45  44  41     1.086268830907   111.12164098    65.56151083
 H     48  47  46     1.078460971292   120.24524686   178.75226342
 H     51  46  41     1.079393015264   122.41540579   357.02282101
 H     52  17  11     1.083327911253   116.28314189     1.16542910
 H     53  34  28     1.086325185660   113.93712114   190.91832221
 H     59  55  54     1.074383616545   125.03914411   178.22327752
 H     63  61  60     1.075703477079   125.85324388   359.20212517
 H     66  56  55     1.091067152929   108.00940369    61.97393850
 H     66  56  55     1.092636222583   107.55667107   306.90265028
 H     67  56  55     1.090618748922   108.21274698   172.41309188
 H     67  56  55     1.093522625189   107.61215648    56.78838756
 H     68  60  36     1.091766053374   108.73874247   292.31204193
 H     68  60  36     1.090370509781   108.91469017   174.77089132
 H     69  60  36     1.091951912265   107.95667935    66.44628584
 H     69  60  36     1.093147267526   107.90837746   310.44010287
 H     70  68  60     1.087857507719   110.85571183   299.90099038
 H     70  68  60     1.087321301180   110.05798684   179.90282401
 H     70  68  60     1.087674396177   110.70810041    60.18416347
 H     71  69  60     1.086425171422   111.46070933   299.85460830
 H     71  69  60     1.087595897289   109.38267291   180.45936407
 H     71  69  60     1.086457873459   110.87278315    61.34664030
 H     72  66  56     1.086957440795   111.53218886   302.03548630
 H     72  66  56     1.087603873936   109.08533915   182.81182711
 H     72  66  56     1.086542890456   110.98188672    63.94375672
 H     73  67  56     1.086442370952   111.45500628   301.80963992
 H     73  67  56     1.087891635918   109.35159622   182.39758182
 H     73  67  56     1.086296211169   111.06872243    63.46232841

---------------------------
INTERNAL COORDINATES (A.U.)
---------------------------
 C      0   0   0     0.000000000000     0.00000000     0.00000000
 O      1   0   0     2.300666000191     0.00000000     0.00000000
 C      1   2   0     2.794589689830   125.97892214     0.00000000
 C      3   1   2     2.608236752028   128.40044774   359.79323507
 C      4   3   1     2.618585968725   117.59250461   180.13804964
 F      5   4   3     2.530076761920   119.68832891   179.93445257
 C      5   4   3     2.635487899717   120.60020586   359.96322343
 F      7   5   4     2.528426646638   119.36050186   180.00404709
 C      7   5   4     2.621784583308   121.74329493     0.03513418
 C      9   7   5     2.618860255709   118.01758701     0.00000000
 C     10   9   7     2.768092179323   131.47384962   179.68499508
 C     11  10   9     2.591316426505   124.87286177   359.29303214
 C     12  11  10     2.665817133811   125.94677046   180.83233856
 N     13  12  11     2.171515524490   175.37062216   177.71090697
 C     12  11  10     2.666919833053   124.09981362     0.56165574
 N     15  12  11     2.169031103558   176.36665123   181.57959542
 C     11  10   9     2.736392129599   107.36018293   179.99331336
 C      2   1   3    35.965001283110   149.14172719   155.27688229
 O     18   2   1     2.284759759831    91.99876965   225.53428467
 C     18   2   1     2.800717747314   136.16913308    22.27182447
 C     20  18   2     2.608597466162   128.69894611   213.88777216
 C     21  20  18     2.619449241331   117.65245835   178.10919103
 F     22  21  20     2.529517772079   119.66847099   180.30312085
 C     22  21  20     2.635924031742   120.71551736     0.05806816
 F     24  22  21     2.528196919607   119.40341142   180.77403553
 C     24  22  21     2.621801139811   121.65877834     0.50724692
 C     26  24  22     2.617133520214   117.90015177   359.47626011
 C     27  26  24     2.768855798577   131.16261882   178.82814679
 C     28  27  26     2.593677460069   124.73771420   340.38936976
 C     29  28  27     2.662368669494   123.66741780   193.62990362
 N     30  29  28     2.169388920811   177.27682808   157.21825803
 C     29  28  27     2.662985502192   124.06184165    10.13269783
 N     32  29  28     2.169311821314   176.54961496   148.00684560
 C     28  27  26     2.723558585025   107.24464841   171.49751863
 C      2   1   3     9.979169324899   127.65417535   174.99719883
 C     35   2   1     2.671407202351   141.38086514     2.47056352
 C     36  35   2     2.598956313338   120.33545237   186.92350049
 C     37  36  35     2.631272095037   117.67214104     1.40669948
 C     38  37  36     2.664492193887   121.93511934   359.04877595
 C     39  38  37     2.602675790807   120.56860350   358.88010767
 C     39  38  37     2.856125876364   110.45415488   179.25587791
 C     41  39  38     2.903743824970   112.03311420   122.05408840
 C     42  41  39     2.880759096317   112.38610317   301.09625126
 C     41  39  38     2.924992067179   112.09522774   248.42227020
 C     44  41  39     2.877606680200   116.17881688   297.79436210
 C     41  39  38     2.859610624683   101.62225529     2.25014782
 C     46  41  39     2.658855357969   110.65763388   357.56191848
 C     47  46  41     2.631519949284   121.88023224   182.53034229
 C     48  47  46     2.601368125376   117.88780957     0.11783000
 C     49  48  47     2.674741547101   119.88344613     1.33900233
 C     46  41  39     2.600544399627   128.49384211   181.42231201
 C     17  11  10     2.600658370720   125.54696610   180.15136963
 C     34  28  27     2.589015414530   133.43695753   197.50529555
 C     50  49  48     2.695908597457   106.92193600   175.23107586
 C     54  50  49     2.634628345069   110.76652123   359.44597252
 C     55  54  50     2.848728714019   110.20134619     2.83759298
 S     54  50  49     3.221808526982   136.26324465   180.93033556
 C     53  34  28     2.651003553812   130.15302308    16.97818596
 C     55  54  50     2.612248649438   112.73445316   179.08834185
 C     36  35   2     2.870406700206   111.13949037     7.83110114
 C     60  36  35     2.843349433512   100.81944338   355.69493078
 C     61  60  36     2.645504518552   110.45494471     4.04566059
 C     61  60  36     2.598998424583   137.34026511   186.81516713
 C     52  17  11     2.639324067701   130.89250741   182.10076290
 S     62  61  60     3.223251863295   113.78445338   181.07025886
 C     56  55  54     2.921088962901   106.90187661   113.40267709
 C     56  55  54     2.910404521225   113.31765632   239.86687356
 C     60  36  35     2.903156270395   112.16095568   236.28563485
 C     60  36  35     2.920649924620   107.86724116   112.83321400
 C     68  60  36     2.880761042530   112.55532081    53.78170002
 C     69  60  36     2.877541217468   114.94930306   188.78353621
 C     66  56  55     2.876643847599   115.65620556   184.91102700
 C     67  56  55     2.878004758460   115.40751095   294.88629751
 H      4   3   1     2.037641113775   121.50553745     0.10043444
 H      9   7   5     2.036046929884   118.72559826   179.99264418
 H     21  20  18     2.037627651792   121.53307247   358.19915850
 H     26  24  22     2.036901763098   118.97962811   180.14261083
 H     37  36  35     2.039749433528   121.57288795   180.73049262
 H     40  39  38     2.037711152909   122.67436296   182.74034256
 H     42  41  39     2.063169160617   108.77838703   179.72298317
 H     42  41  39     2.060560702683   109.08327805    62.09568217
 H     43  42  41     2.055615596986   110.82510363   299.39026969
 H     43  42  41     2.054766629898   110.09445279   179.46061596
 H     43  42  41     2.056004616628   110.65430514    59.62942399
 H     44  41  39     2.063773481537   107.43846620   175.59028596
 H     44  41  39     2.066319667630   107.81704782    59.98967821
 H     45  44  41     2.053138645857   111.50017484   303.61260621
 H     45  44  41     2.055806663209   109.11168792   184.46562186
 H     45  44  41     2.052750598229   111.12164098    65.56151083
 H     48  47  46     2.037995881865   120.24524686   178.75226342
 H     51  46  41     2.039757189716   122.41540579   357.02282101
 H     52  17  11     2.047193065501   116.28314189     1.16542910
 H     53  34  28     2.052857093279   113.93712114   190.91832221
 H     59  55  54     2.030290798042   125.03914411   178.22327752
 H     63  61  60     2.032784972986   125.85324388   359.20212517
 H     66  56  55     2.061818112752   108.00940369    61.97393850
 H     66  56  55     2.064783224684   107.55667107   306.90265028
 H     67  56  55     2.060970751982   108.21274698   172.41309188
 H     67  56  55     2.066458282854   107.61215648    56.78838756
 H     68  60  36     2.063138843189   108.73874247   292.31204193
 H     68  60  36     2.060501647990   108.91469017   174.77089132
 H     69  60  36     2.063490065593   107.95667935    66.44628584
 H     69  60  36     2.065748959669   107.90837746   310.44010287
 H     70  68  60     2.055752762319   110.85571183   299.90099038
 H     70  68  60     2.054739478809   110.05798684   179.90282401
 H     70  68  60     2.055406731654   110.70810041    60.18416347
 H     71  69  60     2.053046038987   111.46070933   299.85460830
 H     71  69  60     2.055258390253   109.38267291   180.45936407
 H     71  69  60     2.053107836879   110.87278315    61.34664030
 H     72  66  56     2.054051882331   111.53218886   302.03548630
 H     72  66  56     2.055273463930   109.08533915   182.81182711
 H     72  66  56     2.053268495721   110.98188672    63.94375672
 H     73  67  56     2.053078541388   111.45500628   301.80963992
 H     73  67  56     2.055817255268   109.35159622   182.39758182
 H     73  67  56     2.052802339426   111.06872243    63.46232841

---------------------
BASIS SET INFORMATION
---------------------
There are 6 groups of distinct atoms

 Group   1 Type C   : 7s4p1d contracted to 3s2p1d pattern {511/31/1}
 Group   2 Type O   : 7s4p1d contracted to 3s2p1d pattern {511/31/1}
 Group   3 Type F   : 7s4p1d contracted to 3s2p1d pattern {511/31/1}
 Group   4 Type N   : 7s4p1d contracted to 3s2p1d pattern {511/31/1}
 Group   5 Type S   : 10s7p1d contracted to 4s3p1d pattern {5311/511/1}
 Group   6 Type H   : 4s1p contracted to 2s1p pattern {31/1}

Atom   0C    basis set group =>   1
Atom   1O    basis set group =>   2
Atom   2C    basis set group =>   1
Atom   3C    basis set group =>   1
Atom   4C    basis set group =>   1
Atom   5F    basis set group =>   3
Atom   6C    basis set group =>   1
Atom   7F    basis set group =>   3
Atom   8C    basis set group =>   1
Atom   9C    basis set group =>   1
Atom  10C    basis set group =>   1
Atom  11C    basis set group =>   1
Atom  12C    basis set group =>   1
Atom  13N    basis set group =>   4
Atom  14C    basis set group =>   1
Atom  15N    basis set group =>   4
Atom  16C    basis set group =>   1
Atom  17C    basis set group =>   1
Atom  18O    basis set group =>   2
Atom  19C    basis set group =>   1
Atom  20C    basis set group =>   1
Atom  21C    basis set group =>   1
Atom  22F    basis set group =>   3
Atom  23C    basis set group =>   1
Atom  24F    basis set group =>   3
Atom  25C    basis set group =>   1
Atom  26C    basis set group =>   1
Atom  27C    basis set group =>   1
Atom  28C    basis set group =>   1
Atom  29C    basis set group =>   1
Atom  30N    basis set group =>   4
Atom  31C    basis set group =>   1
Atom  32N    basis set group =>   4
Atom  33C    basis set group =>   1
Atom  34C    basis set group =>   1
Atom  35C    basis set group =>   1
Atom  36C    basis set group =>   1
Atom  37C    basis set group =>   1
Atom  38C    basis set group =>   1
Atom  39C    basis set group =>   1
Atom  40C    basis set group =>   1
Atom  41C    basis set group =>   1
Atom  42C    basis set group =>   1
Atom  43C    basis set group =>   1
Atom  44C    basis set group =>   1
Atom  45C    basis set group =>   1
Atom  46C    basis set group =>   1
Atom  47C    basis set group =>   1
Atom  48C    basis set group =>   1
Atom  49C    basis set group =>   1
Atom  50C    basis set group =>   1
Atom  51C    basis set group =>   1
Atom  52C    basis set group =>   1
Atom  53C    basis set group =>   1
Atom  54C    basis set group =>   1
Atom  55C    basis set group =>   1
Atom  56S    basis set group =>   5
Atom  57C    basis set group =>   1
Atom  58C    basis set group =>   1
Atom  59C    basis set group =>   1
Atom  60C    basis set group =>   1
Atom  61C    basis set group =>   1
Atom  62C    basis set group =>   1
Atom  63C    basis set group =>   1
Atom  64S    basis set group =>   5
Atom  65C    basis set group =>   1
Atom  66C    basis set group =>   1
Atom  67C    basis set group =>   1
Atom  68C    basis set group =>   1
Atom  69C    basis set group =>   1
Atom  70C    basis set group =>   1
Atom  71C    basis set group =>   1
Atom  72C    basis set group =>   1
Atom  73H    basis set group =>   6
Atom  74H    basis set group =>   6
Atom  75H    basis set group =>   6
Atom  76H    basis set group =>   6
Atom  77H    basis set group =>   6
Atom  78H    basis set group =>   6
Atom  79H    basis set group =>   6
Atom  80H    basis set group =>   6
Atom  81H    basis set group =>   6
Atom  82H    basis set group =>   6
Atom  83H    basis set group =>   6
Atom  84H    basis set group =>   6
Atom  85H    basis set group =>   6
Atom  86H    basis set group =>   6
Atom  87H    basis set group =>   6
Atom  88H    basis set group =>   6
Atom  89H    basis set group =>   6
Atom  90H    basis set group =>   6
Atom  91H    basis set group =>   6
Atom  92H    basis set group =>   6
Atom  93H    basis set group =>   6
Atom  94H    basis set group =>   6
Atom  95H    basis set group =>   6
Atom  96H    basis set group =>   6
Atom  97H    basis set group =>   6
Atom  98H    basis set group =>   6
Atom  99H    basis set group =>   6
Atom 100H    basis set group =>   6
Atom 101H    basis set group =>   6
Atom 102H    basis set group =>   6
Atom 103H    basis set group =>   6
Atom 104H    basis set group =>   6
Atom 105H    basis set group =>   6
Atom 106H    basis set group =>   6
Atom 107H    basis set group =>   6
Atom 108H    basis set group =>   6
Atom 109H    basis set group =>   6
Atom 110H    basis set group =>   6
Atom 111H    basis set group =>   6
Atom 112H    basis set group =>   6
Atom 113H    basis set group =>   6
Atom 114H    basis set group =>   6
------------------------------------------------------------------------------
                           ORCA GTO INTEGRAL CALCULATION
------------------------------------------------------------------------------

                         BASIS SET STATISTICS AND STARTUP INFO

 # of primitive gaussian shells          ... 1098
 # of primitive gaussian functions       ... 2070
 # of contracted shells                  ...  568
 # of contracted basis functions         ... 1240
 Highest angular momentum                ...    2
 Maximum contraction depth               ...    5
 Integral package used                   ... LIBINT
 Integral threshhold            Thresh   ...  2.500e-11
 Primitive cut-off              TCut     ...  2.500e-12


------------------------------ INTEGRAL EVALUATION ----------------------------


 * One electron integrals 
 Pre-screening matrix                    ... done
 Shell pair data                         ... done (   0.021 sec)

-------------------------------------------------------------------------------
                                 ORCA SCF
-------------------------------------------------------------------------------

------------
SCF SETTINGS
------------
Hamiltonian:
 Ab initio Hamiltonian  Method          .... Hartree-Fock(GTOs)


General Settings:
 Integral files         IntName         .... F-2F
 Hartree-Fock type      HFTyp           .... RHF
 Total Charge           Charge          ....    0
 Multiplicity           Mult            ....    1
 Number of Electrons    NEL             ....  520
 Basis Dimension        Dim             .... 1240
 Nuclear Repulsion      ENuc            ....  10551.5139500339 Eh

Convergence Acceleration:
 DIIS                   CNVDIIS         .... on
   Start iteration      DIISMaxIt       ....    12
   Startup error        DIISStart       ....  0.200000
   # of expansion vecs  DIISMaxEq       ....     5
   Bias factor          DIISBfac        ....   1.050
   Max. coefficient     DIISMaxC        ....  10.000
 Newton-Raphson         CNVNR           .... off
 SOSCF                  CNVSOSCF        .... on
   Start iteration      SOSCFMaxIt      ....   150
   Startup grad/error   SOSCFStart      ....  0.003300
 Level Shifting         CNVShift        .... on
   Level shift para.    LevelShift      ....    0.2500
   Turn off err/grad.   ShiftErr        ....    0.0010
 Zerner damping         CNVZerner       .... off
 Static damping         CNVDamp         .... on
   Fraction old density DampFac         ....    0.7000
   Max. Damping (<1)    DampMax         ....    0.9800
   Min. Damping (>=0)   DampMin         ....    0.0000
   Turn off err/grad.   DampErr         ....    0.1000
 Fernandez-Rico         CNVRico         .... off

SCF Procedure:
 Maximum # iterations   MaxIter         ....   125
 SCF integral mode      SCFMode         .... Direct
   Integral package                     .... LIBINT
 Reset frequency        DirectResetFreq ....    20
 Integral Threshold     Thresh          ....  2.500e-11 Eh
 Primitive CutOff       TCut            ....  2.500e-12 Eh

Convergence Tolerance:
 Convergence Check Mode ConvCheckMode   .... Total+1el-Energy
 Convergence forced     ConvForced      .... 1
 Energy Change          TolE            ....  1.000e-08 Eh
 1-El. energy change                    ....  1.000e-05 Eh
 Orbital Gradient       TolG            ....  1.000e-05
 Orbital Rotation angle TolX            ....  1.000e-05
 DIIS Error             TolErr          ....  5.000e-07


Diagonalization of the overlap matrix:
Smallest eigenvalue                        ... 1.853e-04
Time for diagonalization                   ...    0.382 sec
Threshold for overlap eigenvalues          ... 1.000e-08
Number of eigenvalues below threshold      ... 0
Time for construction of square roots      ...    0.164 sec
Total time needed                          ...    0.550 sec

-------------------
DFT GRID GENERATION
-------------------

General Integration Accuracy     IntAcc      ...  4.340
Radial Grid Type                 RadialGrid  ... Gauss-Chebyshev
Angular Grid (max. acc.)         AngularGrid ... Lebedev-110
Angular grid pruning method      GridPruning ... 3 (G Style)
Weight generation scheme         WeightScheme... Becke
Basis function cutoff            BFCut       ...    1.0000e-11
Integration weight cutoff        WCut        ...    1.0000e-14
Grids for H and He will be reduced by one unit

# of grid points (after initial pruning)     ... 155176 (   0.3 sec)
# of grid points (after weights+screening)   ... 134388 (   7.8 sec)
nearest neighbour list constructed           ...    0.0 sec
Grid point re-assignment to atoms done       ...    0.0 sec
Grid point division into batches done        ...    0.1 sec
Reduced shell lists constructed in    2.6 sec

Total number of grid points                  ...   134388
Total number of batches                      ...     2153
Average number of points per batch           ...       62
Average number of grid points per atom       ...     1169
Average number of shells per batch           ...   119.85 (21.10%)
Average number of basis functions per batch  ...   241.61 (19.49%)
Average number of large shells per batch     ...    71.04 (59.27%)
Average number of large basis fcns per batch ...   145.85 (60.37%)
Maximum spatial batch extension              ...  26.05, 22.44, 27.47 au
Average spatial batch extension              ...   3.08,  3.09,  3.52 au

Time for grid setup =   10.684 sec

------------------------------
INITIAL GUESS: MODEL POTENTIAL
------------------------------
Loading Hartree-Fock densities                     ... done
Calculating cut-offs                               ... done
Setting up the integral package                    ... done
Initializing the effective Hamiltonian             ... done
Starting the Coulomb interaction                   ... done (  11.0 sec)
Reading the grid                                   ... done
Mapping shells                                     ... done
Starting the XC term evaluation                    ... done (   2.5 sec)
Transforming the Hamiltonian                       ... done (   0.2 sec)
Diagonalizing the Hamiltonian                      ... done (   0.4 sec)
Back transforming the eigenvectors                 ... done (   0.1 sec)
Now organizing SCF variables                       ... done
                      ------------------
                      INITIAL GUESS DONE (  25.0 sec)
                      ------------------
--------------
SCF ITERATIONS
--------------
ITER       Energy         Delta-E        Max-DP      RMS-DP      [F,P]     Damp
               ***  Starting incremental Fock matrix formation  ***
  0  -3889.6757934287   0.000000000000 0.17796058  0.00151359  0.2328092 0.7000
  1  -3890.4805600514  -0.804766622645 0.12760553  0.00116024  0.1420576 0.7000
                               ***Turning on DIIS***
  2  -3890.9707815604  -0.490221509011 0.27765490  0.00269794  0.0827674 0.0000
  3  -3887.9025307364   3.068250823970 0.06788007  0.00053360  0.0480225 0.0000
  4  -3892.2521843550  -4.349653618539 0.01350414  0.00020855  0.0133952 0.0000
  5  -3892.1769782593   0.075206095687 0.00766184  0.00009826  0.0088204 0.0000
  6  -3891.9756548143   0.201323444993 0.00563403  0.00005618  0.0035394 0.0000
                      *** Initiating the SOSCF procedure ***
                           *** Shutting down DIIS ***
                      *** Re-Reading the Fockian *** 
                      *** Removing any level shift *** 
ITER      Energy       Delta-E        Grad      Rot      Max-DP    RMS-DP
  7  -3892.04754628  -0.0718914693  0.002768  0.002768  0.004278  0.000032
               *** Restarting incremental Fock matrix formation ***
  8  -3892.02707164   0.0204746426  0.001492  0.004256  0.003182  0.000022
  9  -3892.02725358  -0.0001819385  0.000688  0.005173  0.004858  0.000032
 10  -3892.02734182  -0.0000882435  0.000221  0.000762  0.000837  0.000007
 11  -3892.02734802  -0.0000061982  0.000129  0.000548  0.000302  0.000003
 12  -3892.02734997  -0.0000019449  0.000043  0.000254  0.000166  0.000001
 13  -3892.02735032  -0.0000003559  0.000021  0.000134  0.000153  0.000001
 14  -3892.02735044  -0.0000001131  0.000017  0.000117  0.000053  0.000001
 15  -3892.02735047  -0.0000000360  0.000004  0.000042  0.000029  0.000000
 16  -3892.02735046   0.0000000126  0.000003  0.000016  0.000016  0.000000
                  ***Gradient check signals convergence***
              ***Rediagonalizing the Fockian in SOSCF/NRSCF***

               *****************************************************
               *                     SUCCESS                       *
               *           SCF CONVERGED AFTER  17 CYCLES          *
               *****************************************************


----------------
TOTAL SCF ENERGY
----------------

Total Energy       :        -3892.02735043 Eh         -105907.44844 eV

Components:
Nuclear Repulsion  :        10551.51395003 Eh          287121.29154 eV
Electronic Energy  :       -14443.54130047 Eh         -393028.73998 eV
One Electron Energy:       -26341.14089091 Eh         -716778.88398 eV
Two Electron Energy:        11897.59959044 Eh          323750.14400 eV

Virial components:
Potential Energy   :        -7772.38469756 Eh         -211497.33994 eV
Kinetic Energy     :         3880.35734713 Eh          105589.89150 eV
Virial Ratio       :            2.00300746


---------------
SCF CONVERGENCE
---------------

  Last Energy change         ...    2.4038e-08  Tolerance :   1.0000e-08
  Last MAX-Density change    ...    6.5858e-06  Tolerance :   1.0000e-07
  Last RMS-Density change    ...    4.6806e-08  Tolerance :   5.0000e-09
  Last Orbital Gradient      ...    1.2618e-06  Tolerance :   1.0000e-05
  Last Orbital Rotation      ...    3.6076e-06  Tolerance :   1.0000e-05

             **** THE GBW FILE WAS UPDATED (F-2F.gbw) ****
             **** DENSITY FILE WAS UPDATED (F-2F.scfp) ****
             **** ENERGY FILE WAS UPDATED (F-2F.en.tmp) ****
             **** THE GBW FILE WAS UPDATED (F-2F.gbw) ****
             **** DENSITY FILE WAS UPDATED (F-2F.scfp) ****
----------------
ORBITAL ENERGIES
----------------

  NO   OCC          E(Eh)            E(eV) 
   0   2.0000     -91.985680     -2503.0576 
   1   2.0000     -91.978291     -2502.8565 
   2   2.0000     -26.335620      -716.6286 
   3   2.0000     -26.334941      -716.6102 
   4   2.0000     -26.334563      -716.5999 
   5   2.0000     -26.332143      -716.5341 
   6   2.0000     -20.569468      -559.7237 
   7   2.0000     -20.566192      -559.6345 
   8   2.0000     -15.593656      -424.3250 
   9   2.0000     -15.593177      -424.3119 
  10   2.0000     -15.592466      -424.2926 
  11   2.0000     -15.586456      -424.1290 
  12   2.0000     -11.378913      -309.6360 
  13   2.0000     -11.377671      -309.6022 
  14   2.0000     -11.376965      -309.5830 
  15   2.0000     -11.375418      -309.5409 
  16   2.0000     -11.367419      -309.3232 
  17   2.0000     -11.364985      -309.2570 
  18   2.0000     -11.345633      -308.7304 
  19   2.0000     -11.342201      -308.6370 
  20   2.0000     -11.324003      -308.1418 
  21   2.0000     -11.321559      -308.0753 
  22   2.0000     -11.320556      -308.0480 
  23   2.0000     -11.317929      -307.9765 
  24   2.0000     -11.306234      -307.6583 
  25   2.0000     -11.305324      -307.6335 
  26   2.0000     -11.304344      -307.6068 
  27   2.0000     -11.303989      -307.5972 
  28   2.0000     -11.302086      -307.5454 
  29   2.0000     -11.301638      -307.5332 
  30   2.0000     -11.300273      -307.4961 
  31   2.0000     -11.298009      -307.4345 
  32   2.0000     -11.296830      -307.4024 
  33   2.0000     -11.296575      -307.3954 
  34   2.0000     -11.296542      -307.3945 
  35   2.0000     -11.295496      -307.3661 
  36   2.0000     -11.294674      -307.3437 
  37   2.0000     -11.293892      -307.3224 
  38   2.0000     -11.291861      -307.2672 
  39   2.0000     -11.291114      -307.2468 
  40   2.0000     -11.289589      -307.2053 
  41   2.0000     -11.287496      -307.1484 
  42   2.0000     -11.274737      -306.8012 
  43   2.0000     -11.273436      -306.7658 
  44   2.0000     -11.272030      -306.7275 
  45   2.0000     -11.271621      -306.7164 
  46   2.0000     -11.270930      -306.6976 
  47   2.0000     -11.270726      -306.6920 
  48   2.0000     -11.270301      -306.6805 
  49   2.0000     -11.269765      -306.6659 
  50   2.0000     -11.269315      -306.6537 
  51   2.0000     -11.269031      -306.6459 
  52   2.0000     -11.268791      -306.6394 
  53   2.0000     -11.267183      -306.5956 
  54   2.0000     -11.265322      -306.5450 
  55   2.0000     -11.264789      -306.5305 
  56   2.0000     -11.264392      -306.5197 
  57   2.0000     -11.262719      -306.4742 
  58   2.0000     -11.261583      -306.4433 
  59   2.0000     -11.261515      -306.4414 
  60   2.0000     -11.258265      -306.3530 
  61   2.0000     -11.250719      -306.1476 
  62   2.0000     -11.249658      -306.1188 
  63   2.0000     -11.249525      -306.1151 
  64   2.0000     -11.247173      -306.0511 
  65   2.0000     -11.246151      -306.0233 
  66   2.0000     -11.244471      -305.9776 
  67   2.0000     -11.239911      -305.8535 
  68   2.0000     -11.236010      -305.7474 
  69   2.0000     -11.233658      -305.6834 
  70   2.0000     -11.233561      -305.6807 
  71   2.0000     -11.231547      -305.6259 
  72   2.0000     -11.228077      -305.5315 
  73   2.0000      -9.021163      -245.4783 
  74   2.0000      -9.012248      -245.2357 
  75   2.0000      -6.708628      -182.5510 
  76   2.0000      -6.707642      -182.5242 
  77   2.0000      -6.705822      -182.4747 
  78   2.0000      -6.699292      -182.2970 
  79   2.0000      -6.698050      -182.2632 
  80   2.0000      -6.696283      -182.2151 
  81   2.0000      -1.645445       -44.7748 
  82   2.0000      -1.643462       -44.7209 
  83   2.0000      -1.630562       -44.3698 
  84   2.0000      -1.628513       -44.3141 
  85   2.0000      -1.403339       -38.1868 
  86   2.0000      -1.399349       -38.0782 
  87   2.0000      -1.256258       -34.1845 
  88   2.0000      -1.252679       -34.0871 
  89   2.0000      -1.243370       -33.8338 
  90   2.0000      -1.238688       -33.7064 
  91   2.0000      -1.233414       -33.5629 
  92   2.0000      -1.232201       -33.5299 
  93   2.0000      -1.229639       -33.4602 
  94   2.0000      -1.225418       -33.3453 
  95   2.0000      -1.215264       -33.0690 
  96   2.0000      -1.182978       -32.1905 
  97   2.0000      -1.176069       -32.0025 
  98   2.0000      -1.167894       -31.7800 
  99   2.0000      -1.158751       -31.5312 
 100   2.0000      -1.127639       -30.6846 
 101   2.0000      -1.111947       -30.2576 
 102   2.0000      -1.107786       -30.1444 
 103   2.0000      -1.105839       -30.0914 
 104   2.0000      -1.099213       -29.9111 
 105   2.0000      -1.092232       -29.7211 
 106   2.0000      -1.078275       -29.3414 
 107   2.0000      -1.074292       -29.2330 
 108   2.0000      -1.071643       -29.1609 
 109   2.0000      -1.051839       -28.6220 
 110   2.0000      -1.038192       -28.2506 
 111   2.0000      -1.035562       -28.1791 
 112   2.0000      -1.031734       -28.0749 
 113   2.0000      -1.029833       -28.0232 
 114   2.0000      -1.028190       -27.9785 
 115   2.0000      -1.027090       -27.9485 
 116   2.0000      -1.020064       -27.7574 
 117   2.0000      -1.016754       -27.6673 
 118   2.0000      -0.992490       -27.0070 
 119   2.0000      -0.977033       -26.5864 
 120   2.0000      -0.951876       -25.9019 
 121   2.0000      -0.945957       -25.7408 
 122   2.0000      -0.943378       -25.6706 
 123   2.0000      -0.942238       -25.6396 
 124   2.0000      -0.931178       -25.3386 
 125   2.0000      -0.924740       -25.1635 
 126   2.0000      -0.909673       -24.7535 
 127   2.0000      -0.889896       -24.2153 
 128   2.0000      -0.874515       -23.7968 
 129   2.0000      -0.867410       -23.6034 
 130   2.0000      -0.864273       -23.5181 
 131   2.0000      -0.861724       -23.4487 
 132   2.0000      -0.853978       -23.2379 
 133   2.0000      -0.852453       -23.1964 
 134   2.0000      -0.848761       -23.0960 
 135   2.0000      -0.842759       -22.9326 
 136   2.0000      -0.830339       -22.5947 
 137   2.0000      -0.829107       -22.5612 
 138   2.0000      -0.817404       -22.2427 
 139   2.0000      -0.810070       -22.0431 
 140   2.0000      -0.803442       -21.8628 
 141   2.0000      -0.798033       -21.7156 
 142   2.0000      -0.787508       -21.4292 
 143   2.0000      -0.786907       -21.4128 
 144   2.0000      -0.783938       -21.3320 
 145   2.0000      -0.780561       -21.2401 
 146   2.0000      -0.778126       -21.1739 
 147   2.0000      -0.774917       -21.0866 
 148   2.0000      -0.762005       -20.7352 
 149   2.0000      -0.754692       -20.5362 
 150   2.0000      -0.752092       -20.4655 
 151   2.0000      -0.745307       -20.2808 
 152   2.0000      -0.742648       -20.2085 
 153   2.0000      -0.740702       -20.1555 
 154   2.0000      -0.735267       -20.0076 
 155   2.0000      -0.730667       -19.8825 
 156   2.0000      -0.726054       -19.7569 
 157   2.0000      -0.716911       -19.5082 
 158   2.0000      -0.714564       -19.4443 
 159   2.0000      -0.714222       -19.4350 
 160   2.0000      -0.712590       -19.3906 
 161   2.0000      -0.702292       -19.1103 
 162   2.0000      -0.698408       -19.0047 
 163   2.0000      -0.689488       -18.7619 
 164   2.0000      -0.682380       -18.5685 
 165   2.0000      -0.678363       -18.4592 
 166   2.0000      -0.674084       -18.3427 
 167   2.0000      -0.667889       -18.1742 
 168   2.0000      -0.666824       -18.1452 
 169   2.0000      -0.662016       -18.0144 
 170   2.0000      -0.659354       -17.9419 
 171   2.0000      -0.656302       -17.8589 
 172   2.0000      -0.654873       -17.8200 
 173   2.0000      -0.651950       -17.7405 
 174   2.0000      -0.647445       -17.6179 
 175   2.0000      -0.644982       -17.5509 
 176   2.0000      -0.643086       -17.4993 
 177   2.0000      -0.641875       -17.4663 
 178   2.0000      -0.635632       -17.2964 
 179   2.0000      -0.635200       -17.2847 
 180   2.0000      -0.634463       -17.2646 
 181   2.0000      -0.630346       -17.1526 
 182   2.0000      -0.629220       -17.1219 
 183   2.0000      -0.626375       -17.0445 
 184   2.0000      -0.625881       -17.0311 
 185   2.0000      -0.623064       -16.9544 
 186   2.0000      -0.621790       -16.9198 
 187   2.0000      -0.614892       -16.7320 
 188   2.0000      -0.612972       -16.6798 
 189   2.0000      -0.609955       -16.5977 
 190   2.0000      -0.605189       -16.4680 
 191   2.0000      -0.600680       -16.3453 
 192   2.0000      -0.593763       -16.1571 
 193   2.0000      -0.592407       -16.1202 
 194   2.0000      -0.588918       -16.0253 
 195   2.0000      -0.586672       -15.9642 
 196   2.0000      -0.583044       -15.8654 
 197   2.0000      -0.580698       -15.8016 
 198   2.0000      -0.579248       -15.7621 
 199   2.0000      -0.578782       -15.7495 
 200   2.0000      -0.578330       -15.7372 
 201   2.0000      -0.577230       -15.7072 
 202   2.0000      -0.573582       -15.6080 
 203   2.0000      -0.571237       -15.5441 
 204   2.0000      -0.568694       -15.4749 
 205   2.0000      -0.566033       -15.4025 
 206   2.0000      -0.564028       -15.3480 
 207   2.0000      -0.562671       -15.3111 
 208   2.0000      -0.561813       -15.2877 
 209   2.0000      -0.555538       -15.1169 
 210   2.0000      -0.549776       -14.9602 
 211   2.0000      -0.545523       -14.8444 
 212   2.0000      -0.543573       -14.7914 
 213   2.0000      -0.539761       -14.6876 
 214   2.0000      -0.538868       -14.6633 
 215   2.0000      -0.536839       -14.6081 
 216   2.0000      -0.536002       -14.5854 
 217   2.0000      -0.532640       -14.4939 
 218   2.0000      -0.530573       -14.4376 
 219   2.0000      -0.527617       -14.3572 
 220   2.0000      -0.525431       -14.2977 
 221   2.0000      -0.522129       -14.2079 
 222   2.0000      -0.519169       -14.1273 
 223   2.0000      -0.515630       -14.0310 
 224   2.0000      -0.511982       -13.9317 
 225   2.0000      -0.511125       -13.9084 
 226   2.0000      -0.508057       -13.8249 
 227   2.0000      -0.505609       -13.7583 
 228   2.0000      -0.501718       -13.6524 
 229   2.0000      -0.498828       -13.5738 
 230   2.0000      -0.498099       -13.5540 
 231   2.0000      -0.494560       -13.4577 
 232   2.0000      -0.489431       -13.3181 
 233   2.0000      -0.487452       -13.2642 
 234   2.0000      -0.483760       -13.1638 
 235   2.0000      -0.481353       -13.0983 
 236   2.0000      -0.480250       -13.0683 
 237   2.0000      -0.477648       -12.9975 
 238   2.0000      -0.476910       -12.9774 
 239   2.0000      -0.475034       -12.9263 
 240   2.0000      -0.474909       -12.9229 
 241   2.0000      -0.473490       -12.8843 
 242   2.0000      -0.470191       -12.7946 
 243   2.0000      -0.465999       -12.6805 
 244   2.0000      -0.451967       -12.2986 
 245   2.0000      -0.440029       -11.9738 
 246   2.0000      -0.435668       -11.8551 
 247   2.0000      -0.420519       -11.4429 
 248   2.0000      -0.399866       -10.8809 
 249   2.0000      -0.393320       -10.7028 
 250   2.0000      -0.388074       -10.5600 
 251   2.0000      -0.377772       -10.2797 
 252   2.0000      -0.375359       -10.2140 
 253   2.0000      -0.366575        -9.9750 
 254   2.0000      -0.360693        -9.8150 
 255   2.0000      -0.357771        -9.7355 
 256   2.0000      -0.355716        -9.6795 
 257   2.0000      -0.345052        -9.3893 
 258   2.0000      -0.301816        -8.2128 
 259   2.0000      -0.268967        -7.3190 
 260   0.0000      -0.031056        -0.8451 
 261   0.0000      -0.017551        -0.4776 
 262   0.0000       0.012747         0.3469 
 263   0.0000       0.018337         0.4990 
 264   0.0000       0.049455         1.3457 
 265   0.0000       0.070791         1.9263 
 266   0.0000       0.093298         2.5388 
 267   0.0000       0.094865         2.5814 
 268   0.0000       0.115065         3.1311 
 269   0.0000       0.120138         3.2691 
 270   0.0000       0.139347         3.7918 
 271   0.0000       0.141560         3.8520 
 272   0.0000       0.144464         3.9311 
 273   0.0000       0.149118         4.0577 
 274   0.0000       0.152040         4.1372 
 275   0.0000       0.155481         4.2309 
 276   0.0000       0.157886         4.2963 
 277   0.0000       0.160853         4.3770 
 278   0.0000       0.165807         4.5118 
 279   0.0000       0.167894         4.5686 
 280   0.0000       0.176884         4.8133 
 281   0.0000       0.181264         4.9325 
 282   0.0000       0.184684         5.0255 
 283   0.0000       0.188378         5.1260 
 284   0.0000       0.190049         5.1715 
 285   0.0000       0.192612         5.2412 
 286   0.0000       0.193867         5.2754 
 287   0.0000       0.198655         5.4057 
 288   0.0000       0.201528         5.4839 
 289   0.0000       0.202921         5.5218 
 290   0.0000       0.203351         5.5334 
 291   0.0000       0.203915         5.5488 
 292   0.0000       0.208645         5.6775 
 293   0.0000       0.210707         5.7336 
 294   0.0000       0.213604         5.8125 
 295   0.0000       0.217961         5.9310 
 296   0.0000       0.220032         5.9874 
 297   0.0000       0.223720         6.0877 
 298   0.0000       0.226721         6.1694 
 299   0.0000       0.229441         6.2434 
 300   0.0000       0.231380         6.2962 
 301   0.0000       0.236148         6.4259 
 302   0.0000       0.237899         6.4736 
 303   0.0000       0.239154         6.5077 
 304   0.0000       0.241424         6.5695 
 305   0.0000       0.242523         6.5994 
 306   0.0000       0.246406         6.7050 
 307   0.0000       0.248524         6.7627 
 308   0.0000       0.251743         6.8503 
 309   0.0000       0.252797         6.8790 
 310   0.0000       0.253646         6.9021 
 311   0.0000       0.254871         6.9354 
 312   0.0000       0.256123         6.9695 
 313   0.0000       0.256821         6.9885 
 314   0.0000       0.257533         7.0078 
 315   0.0000       0.261822         7.1245 
 316   0.0000       0.262170         7.1340 
 317   0.0000       0.266082         7.2405 
 318   0.0000       0.270314         7.3556 
 319   0.0000       0.272128         7.4050 
 320   0.0000       0.274641         7.4734 
 321   0.0000       0.276923         7.5354 
 322   0.0000       0.278512         7.5787 
 323   0.0000       0.279372         7.6021 
 324   0.0000       0.285196         7.7606 
 325   0.0000       0.288671         7.8551 
 326   0.0000       0.291559         7.9337 
 327   0.0000       0.296262         8.0617 
 328   0.0000       0.301233         8.1970 
 329   0.0000       0.308662         8.3991 
 330   0.0000       0.311562         8.4780 
 331   0.0000       0.313740         8.5373 
 332   0.0000       0.319235         8.6868 
 333   0.0000       0.322751         8.7825 
 334   0.0000       0.328556         8.9405 
 335   0.0000       0.329764         8.9733 
 336   0.0000       0.332315         9.0428 
 337   0.0000       0.334561         9.1039 
 338   0.0000       0.339117         9.2278 
 339   0.0000       0.340537         9.2665 
 340   0.0000       0.344010         9.3610 
 341   0.0000       0.345372         9.3981 
 342   0.0000       0.346501         9.4288 
 343   0.0000       0.353647         9.6232 
 344   0.0000       0.354906         9.6575 
 345   0.0000       0.358429         9.7533 
 346   0.0000       0.361319         9.8320 
 347   0.0000       0.363872         9.9015 
 348   0.0000       0.367990        10.0135 
 349   0.0000       0.369368        10.0510 
 350   0.0000       0.369966        10.0673 
 351   0.0000       0.372603        10.1390 
 352   0.0000       0.374288        10.1849 
 353   0.0000       0.374791        10.1986 
 354   0.0000       0.376557        10.2466 
 355   0.0000       0.381043        10.3687 
 356   0.0000       0.385656        10.4942 
 357   0.0000       0.388709        10.5773 
 358   0.0000       0.390208        10.6181 
 359   0.0000       0.392412        10.6781 
 360   0.0000       0.397912        10.8277 
 361   0.0000       0.400030        10.8854 
 362   0.0000       0.403529        10.9806 
 363   0.0000       0.405397        11.0314 
 364   0.0000       0.406522        11.0620 
 365   0.0000       0.410424        11.1682 
 366   0.0000       0.412586        11.2270 
 367   0.0000       0.414217        11.2714 
 368   0.0000       0.417572        11.3627 
 369   0.0000       0.419291        11.4095 
 370   0.0000       0.421471        11.4688 
 371   0.0000       0.425447        11.5770 
 372   0.0000       0.426462        11.6046 
 373   0.0000       0.429360        11.6835 
 374   0.0000       0.435778        11.8581 
 375   0.0000       0.436966        11.8905 
 376   0.0000       0.442788        12.0489 
 377   0.0000       0.443801        12.0764 
 378   0.0000       0.448677        12.2091 
 379   0.0000       0.450723        12.2648 
 380   0.0000       0.453219        12.3327 
 381   0.0000       0.455035        12.3821 
 382   0.0000       0.459822        12.5124 
 383   0.0000       0.462131        12.5752 
 384   0.0000       0.465635        12.6706 
 385   0.0000       0.467602        12.7241 
 386   0.0000       0.468691        12.7537 
 387   0.0000       0.472652        12.8615 
 388   0.0000       0.475608        12.9420 
 389   0.0000       0.480255        13.0684 
 390   0.0000       0.482448        13.1281 
 391   0.0000       0.487227        13.2581 
 392   0.0000       0.488520        13.2933 
 393   0.0000       0.490271        13.3410 
 394   0.0000       0.494074        13.4444 
 395   0.0000       0.496842        13.5197 
 396   0.0000       0.500180        13.6106 
 397   0.0000       0.502961        13.6863 
 398   0.0000       0.508460        13.8359 
 399   0.0000       0.511786        13.9264 
 400   0.0000       0.513326        13.9683 
 401   0.0000       0.524248        14.2655 
 402   0.0000       0.528941        14.3932 
 403   0.0000       0.536802        14.6071 
 404   0.0000       0.543094        14.7783 
 405   0.0000       0.545319        14.8389 
 406   0.0000       0.547099        14.8873 
 407   0.0000       0.556442        15.1416 
 408   0.0000       0.557584        15.1726 
 409   0.0000       0.562808        15.3148 
 410   0.0000       0.564303        15.3555 
 411   0.0000       0.570084        15.5128 
 412   0.0000       0.576311        15.6822 
 413   0.0000       0.578206        15.7338 
 414   0.0000       0.579796        15.7771 
 415   0.0000       0.584578        15.9072 
 416   0.0000       0.590234        16.0611 
 417   0.0000       0.590937        16.0802 
 418   0.0000       0.595085        16.1931 
 419   0.0000       0.597320        16.2539 
 420   0.0000       0.601063        16.3558 
 421   0.0000       0.603318        16.4171 
 422   0.0000       0.606790        16.5116 
 423   0.0000       0.607129        16.5208 
 424   0.0000       0.608650        16.5622 
 425   0.0000       0.608940        16.5701 
 426   0.0000       0.614849        16.7309 
 427   0.0000       0.618051        16.8180 
 428   0.0000       0.620479        16.8841 
 429   0.0000       0.623992        16.9797 
 430   0.0000       0.626099        17.0370 
 431   0.0000       0.627730        17.0814 
 432   0.0000       0.631261        17.1775 
 433   0.0000       0.634031        17.2528 
 434   0.0000       0.635992        17.3062 
 435   0.0000       0.639433        17.3999 
 436   0.0000       0.645947        17.5771 
 437   0.0000       0.647791        17.6273 
 438   0.0000       0.648767        17.6539 
 439   0.0000       0.650462        17.7000 
 440   0.0000       0.656135        17.8543 
 441   0.0000       0.657146        17.8819 
 442   0.0000       0.658388        17.9157 
 443   0.0000       0.664372        18.0785 
 444   0.0000       0.665930        18.1209 
 445   0.0000       0.667737        18.1700 
 446   0.0000       0.669538        18.2190 
 447   0.0000       0.673897        18.3377 
 448   0.0000       0.677053        18.4235 
 449   0.0000       0.677591        18.4382 
 450   0.0000       0.681870        18.5546 
 451   0.0000       0.683018        18.5859 
 452   0.0000       0.685534        18.6543 
 453   0.0000       0.689149        18.7527 
 454   0.0000       0.693448        18.8697 
 455   0.0000       0.693876        18.8813 
 456   0.0000       0.698281        19.0012 
 457   0.0000       0.700760        19.0686 
 458   0.0000       0.702433        19.1142 
 459   0.0000       0.702630        19.1195 
 460   0.0000       0.704632        19.1740 
 461   0.0000       0.706415        19.2225 
 462   0.0000       0.710816        19.3423 
 463   0.0000       0.716206        19.4890 
 464   0.0000       0.717662        19.5286 
 465   0.0000       0.720016        19.5926 
 466   0.0000       0.723692        19.6927 
 467   0.0000       0.726724        19.7752 
 468   0.0000       0.729713        19.8565 
 469   0.0000       0.732118        19.9219 
 470   0.0000       0.733984        19.9727 
 471   0.0000       0.736452        20.0399 
 472   0.0000       0.740284        20.1441 
 473   0.0000       0.740503        20.1501 
 474   0.0000       0.746575        20.3153 
 475   0.0000       0.750045        20.4098 
 476   0.0000       0.752697        20.4819 
 477   0.0000       0.754499        20.5310 
 478   0.0000       0.756442        20.5838 
 479   0.0000       0.756878        20.5957 
 480   0.0000       0.757900        20.6235 
 481   0.0000       0.762854        20.7583 
 482   0.0000       0.766848        20.8670 
 483   0.0000       0.767101        20.8739 
 484   0.0000       0.770527        20.9671 
 485   0.0000       0.773557        21.0496 
 486   0.0000       0.774030        21.0624 
 487   0.0000       0.778811        21.1925 
 488   0.0000       0.783360        21.3163 
 489   0.0000       0.787370        21.4254 
 490   0.0000       0.790178        21.5018 
 491   0.0000       0.791779        21.5454 
 492   0.0000       0.798831        21.7373 
 493   0.0000       0.799680        21.7604 
 494   0.0000       0.804040        21.8790 
 495   0.0000       0.809423        22.0255 
 496   0.0000       0.813795        22.1445 
 497   0.0000       0.817083        22.2339 
 498   0.0000       0.820507        22.3271 
 499   0.0000       0.823190        22.4001 
 500   0.0000       0.825033        22.4503 
 501   0.0000       0.825502        22.4631 
 502   0.0000       0.827457        22.5163 
 503   0.0000       0.828303        22.5393 
 504   0.0000       0.830556        22.6006 
 505   0.0000       0.833601        22.6834 
 506   0.0000       0.834870        22.7180 
 507   0.0000       0.838119        22.8064 
 508   0.0000       0.839632        22.8476 
 509   0.0000       0.845483        23.0067 
[...]
   Time for J+K (Direct):  1560.215
   Time for Sigma-Completion:     8.012
   Size of expansion space: 9
   Lowest Energy          :     0.101931864132
   Maximum Energy change  :     0.000022004959 (vector 2)
   Maximum residual norm  :     0.000002761418

                       ****Iteration   10****
   Time for densities:     1.325
   Using LibInt in JK Direct
   Time for J+K (Direct):  1567.042
   Time for Sigma-Completion:     7.950
   Size of expansion space: 12
   Lowest Energy          :     0.101931855361
   Maximum Energy change  :     0.000008697616 (vector 2)
   Maximum residual norm  :     0.000001508671

                       ****Iteration   11****
   Time for densities:     1.325
   Using LibInt in JK Direct
   Time for J+K (Direct):  1571.895
   Time for Sigma-Completion:     8.056
   Size of expansion space: 15
   Lowest Energy          :     0.101931853351
   Maximum Energy change  :     0.000003880274 (vector 2)
   Maximum residual norm  :     0.000000723015

                       ****Iteration   12****
   Time for densities:     1.325
   Using LibInt in JK Direct
   Time for J+K (Direct):  1579.252
   Time for Sigma-Completion:     8.600
   Size of expansion space: 18
   Lowest Energy          :     0.101931852945
   Maximum Energy change  :     0.000002533898 (vector 2)
   Maximum residual norm  :     0.000000425070

                       ****Iteration   13****
   Time for densities:     1.327
   Using LibInt in JK Direct
   Time for J+K (Direct):  1580.408
   Time for Sigma-Completion:     8.904
   Size of expansion space: 21
   Lowest Energy          :     0.101931852882
   Maximum Energy change  :     0.000002055878 (vector 2)
   Maximum residual norm  :     0.000000535644

                       ****Iteration   14****
   Time for densities:     1.326
   Using LibInt in JK Direct
   Time for J+K (Direct):  1554.409
   Time for Sigma-Completion:     8.555
   Size of expansion space: 24
   Lowest Energy          :     0.101931852874
   Maximum Energy change  :     0.000001653718 (vector 2)
   Maximum residual norm  :     0.000000221835

      *** CONVERGENCE OF RESIDUAL NORM REACHED ***

Storing the converged CI vectors               ... F-2F.cis1

                 *** DAVIDSON DONE ***

Total time for solving the CIS problem: 29140.171sec

-----------------------------
CIS-EXCITED STATES (SINGLETS)
-----------------------------

the weight of the individual excitations are printed if larger than 1.0e-02

STATE  1:  E=   0.101932 au      2.774 eV    22371.5 cm**-1
   257a -> 260a  :     0.012013 (c=  0.10960588)
   257a -> 264a  :     0.013654 (c=  0.11685068)
   258a -> 260a  :     0.021356 (c= -0.14613679)
   258a -> 261a  :     0.218771 (c= -0.46772995)
   258a -> 263a  :     0.013036 (c= -0.11417458)
   259a -> 260a  :     0.610159 (c=  0.78112660)
   259a -> 262a  :     0.017425 (c= -0.13200271)
   259a -> 264a  :     0.011192 (c= -0.10579191)

STATE  2:  E=   0.118727 au      3.231 eV    26057.6 cm**-1
   257a -> 261a  :     0.054793 (c= -0.23407926)
   258a -> 260a  :     0.381328 (c=  0.61751721)
   259a -> 261a  :     0.404927 (c= -0.63633873)
   259a -> 263a  :     0.017713 (c= -0.13308839)
   259a -> 265a  :     0.010525 (c= -0.10258959)

STATE  3:  E=   0.157812 au      4.294 eV    34635.6 cm**-1
   248a -> 261a  :     0.011887 (c= -0.10902908)
   250a -> 261a  :     0.012397 (c= -0.11134122)
   250a -> 263a  :     0.010601 (c=  0.10295950)
   253a -> 260a  :     0.010262 (c=  0.10130097)
   257a -> 260a  :     0.111542 (c=  0.33397963)
   257a -> 262a  :     0.023258 (c=  0.15250517)
   258a -> 261a  :     0.144574 (c= -0.38022880)
   258a -> 262a  :     0.011280 (c= -0.10620595)
   258a -> 263a  :     0.100944 (c=  0.31771748)
   259a -> 262a  :     0.323770 (c=  0.56900798)
   259a -> 264a  :     0.061883 (c=  0.24876363)
   259a -> 267a  :     0.012503 (c= -0.11181823)


----------------------
CIS-EXCITATION SPECTRA
----------------------

Center of mass = ( 19.2671,  9.5502, -1.0589)
Calculating the Dipole integrals                  ... done
Transforming integrals                            ... done
Calculating the Linear Momentum integrals         ... done
Transforming integrals                            ... done
Calculating angular momentum integrals            ... done
Transforming integrals                            ... done

-----------------------------------------------------------------------------
         ABSORPTION SPECTRUM VIA TRANSITION ELECTRIC DIPOLE MOMENTS
-----------------------------------------------------------------------------
State   Energy    Wavelength  fosc         T2        TX        TY        TZ  
        (cm-1)      (nm)                 (au**2)    (au)      (au)      (au) 
-----------------------------------------------------------------------------
   1   22371.5    447.0   2.922928848  43.01299  -4.18950  -4.78264   1.60855
   2   26057.6    383.8   0.226498652   2.86158  -0.90642  -1.37686   0.37980
   3   34635.6    288.7   0.158640669   1.50788   0.54560   0.92994   0.58772

-----------------------------------------------------------------------------
         ABSORPTION SPECTRUM VIA TRANSITION VELOCITY DIPOLE MOMENTS
-----------------------------------------------------------------------------
State   Energy    Wavelength   fosc        P2         PX        PY        PZ  
        (cm-1)      (nm)                 (au**2)     (au)      (au)      (au) 
-----------------------------------------------------------------------------
   1   22371.5    447.0   1.900475821   0.29058   0.36091   0.38474  -0.11090
   2   26057.6    383.8   0.164362788   0.02927   0.12093   0.10454  -0.06099
   3   34635.6    288.7   0.015948270   0.00378  -0.05339  -0.03030   0.00258

-------------------------------------------------------------------
                             CD SPECTRUM
-------------------------------------------------------------------
State  Energy     Wavelength     R         MX        MY        MZ   
       (cm-1)       (nm)     (1e40*cgs)   (au)      (au)      (au)  
-------------------------------------------------------------------
   1   22371.5    447.0     60.36808  -0.01851   0.11457   0.37202
   2   26057.6    383.8    -27.90914  -0.61732   0.18655  -0.95285
   3   34635.6    288.7    -36.74668   0.15556  -0.03242  -0.22574

Total run time:    29192.050 sec

           *** ORCA-CIS/TD-DFT FINISHED WITHOUT ERROR ***

-----------------------
CIS/TD-DFT TOTAL ENERGY
-----------------------

    E(SCF)  =  -3892.027350434 Eh
    DE(CIS) =      0.101931853 Eh (Root  1)
    ----------------------------- ---------
    E(tot)  =  -3891.925418582 Eh


-------------------------   --------------------
FINAL SINGLE POINT ENERGY     -3891.925418581507
-------------------------   --------------------

------------------------------------------------------------------------------
                         ORCA SCF GRADIENT CALCULATION
------------------------------------------------------------------------------


------------
CIS GRADIENT
------------

Reference wavefunction             ... RHF
State of interest                  ... 1
Basis dimension                    ... 1240
DFT-XC contribution needed         ... NO
RI-approximation                   ... OFF
CIS-vectors being read from        ... F-2F.cis

 => Number of Vectors found: 3
 => Orbital Window: 81...259 -> 260...1239

Reading the CIS file                     ... done
Norm of the CI vector                    ... 1.000000000
Making the CIS (pseudo)densities         ... done
Making operators G(D) and Q(T)           ... done
Transforming the Fock operators          ... done
Making the frozen-core relaxed density   ... done
Constructing the G(H) operator           ... done
Transforming the G(H) operator           ... done
Calculating the CIS Lagrangian           ... done
Solving the Z-vector equations           ... done
Finalizing the relaxed density           ... done
Storing the relaxed density              ... done
Constructing the G(Z) operator           ... done
Transforming the G(Z) operator           ... done
Making the W-matrix                      ... done
Finalizing the W-matrix                  ... done
Transforming the W-matrix                ... done
Nuclear repulsion gradient               ... done
One-Electron gradient                    ... done
Prescreening matrices                    ... done
Two-Electron gradient (4-center)         ... done
                 ---------------------------
                 EXCITED STATE GRADIENT DONE
                 ---------------------------


------------------
CARTESIAN GRADIENT
------------------

   1   C   :   -0.003695482   -0.039685284    0.008899752
   2   O   :    0.022209415    0.046668250   -0.015585753
   3   C   :    0.006320058    0.009836474   -0.004059122
   4   C   :    0.000947044    0.002721378   -0.000813171
   5   C   :    0.017262372   -0.005347547   -0.005025661
   6   F   :   -0.022076085    0.014348316    0.005055428
   7   C   :    0.016417415    0.005947940   -0.006802846
   8   F   :   -0.019417967   -0.015194930    0.009609865
   9   C   :    0.005277508   -0.001039761   -0.001578518
  10   C   :    0.014342030   -0.016358693   -0.001789015
  11   C   :   -0.015595852    0.013619614    0.002331288
  12   C   :    0.009597381   -0.018856444    0.001027664
  13   C   :   -0.053999925    0.019440850    0.013745533
  14   N   :    0.030769228   -0.015042235   -0.006957518
  15   C   :    0.031007850    0.044075490   -0.019464932
  16   N   :   -0.014917952   -0.027211776    0.010652420
  17   C   :   -0.005758947    0.001182176    0.002093254
  18   C   :    0.021468120   -0.021771615   -0.020787575
  19   O   :   -0.023220369    0.024402175    0.019890576
  20   C   :   -0.010980403    0.002110453    0.004811503
  21   C   :   -0.001172234    0.001977320    0.002352885
  22   C   :   -0.015698996   -0.009266096   -0.002663726
  23   F   :    0.015732657    0.018120944    0.008344161
  24   C   :   -0.018170063   -0.002796848    0.001200906
  25   F   :    0.024550822   -0.004464947   -0.007473345
  26   C   :   -0.003614055   -0.001814131   -0.001459676
  27   C   :   -0.007945645   -0.016742239   -0.010247058
  28   C   :    0.015164971    0.002459029    0.007792109
  29   C   :   -0.000423228   -0.005414588   -0.014540788
  30   C   :    0.047162161    0.016912500    0.024340702
  31   N   :   -0.027666045   -0.013861853   -0.007686668
  32   C   :   -0.043019836    0.018292570    0.029063888
  33   N   :    0.022784365   -0.011672076   -0.017529431
  34   C   :   -0.008728927   -0.002150429    0.000418483
  35   C   :    0.000739331    0.005284879   -0.000106131
  36   C   :   -0.002684064   -0.005538922    0.001803623
  37   C   :    0.001940538    0.010122251   -0.000838760
  38   C   :   -0.001289485   -0.007953615    0.000606203
  39   C   :    0.002800128    0.005759114   -0.001466829
  40   C   :   -0.002368048   -0.007217776    0.001748230
  41   C   :    0.005081537   -0.009028292   -0.004873848
  42   C   :   -0.003214293    0.003575745    0.006009205
  43   C   :    0.003568519   -0.002422761   -0.001241979
  44   C   :    0.002551418    0.003312756   -0.002643531
  45   C   :   -0.003308505   -0.002907220   -0.000373876
  46   C   :   -0.003543655   -0.008175783   -0.000057032
  47   C   :    0.006808388    0.004998808   -0.001531521
  48   C   :   -0.008665775   -0.005517312    0.001312900
  49   C   :    0.002084248    0.008037433   -0.000723614
  50   C   :   -0.009973342   -0.011535235    0.001473472
  51   C   :    0.010299950    0.007631976   -0.001553310
  52   C   :    0.002187277    0.007551815   -0.001845995
  53   C   :    0.012449142    0.004367081   -0.004179651
  54   C   :    0.002138676    0.006948536   -0.001471242
  55   C   :    0.004134452   -0.007599737   -0.001808264
  56   C   :   -0.006074592    0.003660114    0.002174340
  57   S   :    0.003318709   -0.003126668    0.000568748
  58   C   :    0.006624470   -0.010468849   -0.005368897
  59   C   :   -0.002437587    0.011373124   -0.007246750
  60   C   :   -0.008941746    0.003654999    0.006351750
  61   C   :    0.008644550   -0.013310562    0.000602140
  62   C   :   -0.005547099    0.012370829   -0.000494045
  63   C   :    0.005992212    0.000205385   -0.002370358
  64   C   :   -0.002186687   -0.006823079    0.001896972
  65   S   :   -0.016942368   -0.011865403    0.007261442
  66   C   :    0.001709921    0.004174615    0.002027883
  67   C   :   -0.002728506   -0.002165797   -0.001068437
  68   C   :    0.003091078   -0.003596391   -0.005888681
  69   C   :    0.001990744    0.003834707    0.000730732
  70   C   :   -0.003446052    0.002568476    0.001253960
  71   C   :   -0.001625909   -0.004157153    0.001505321
  72   C   :   -0.001161344   -0.004420786    0.001324744
  73   C   :    0.003156973    0.002989500   -0.001555005
  74   H   :    0.000977104   -0.001529452   -0.000060237
  75   H   :    0.002436824   -0.001096560   -0.000647059
  76   H   :   -0.000352990   -0.001645894   -0.000938124
  77   H   :   -0.001855352   -0.001603203   -0.000364383
  78   H   :   -0.001247108    0.000842228    0.000203616
  79   H   :    0.000566508   -0.001245911   -0.000735876
  80   H   :    0.002521751   -0.000389201   -0.001267113
  81   H   :    0.001048049   -0.002882178   -0.000483337
  82   H   :   -0.000133921   -0.000183973    0.002860733
  83   H   :    0.001089741   -0.000103792    0.002994045
  84   H   :    0.000378808    0.001051566    0.002663122
  85   H   :   -0.001484428    0.000020195   -0.001176727
  86   H   :    0.000605911   -0.002559324   -0.000059446
  87   H   :    0.003630120    0.000165010   -0.000528685
  88   H   :    0.001708683   -0.000199643   -0.002252563
  89   H   :    0.001944772    0.000499242   -0.002057676
  90   H   :   -0.000772223    0.000019830    0.000272575
  91   H   :    0.001608018   -0.000629021   -0.000627973
  92   H   :    0.000458993   -0.006405281    0.000999879
  93   H   :   -0.001291770   -0.000183536    0.001635242
  94   H   :   -0.000667101    0.000211216    0.000619682
  95   H   :   -0.001025371    0.003468064   -0.000115586
  96   H   :    0.001707108   -0.000601333    0.001789379
  97   H   :   -0.003072433   -0.000879812    0.000153011
  98   H   :    0.000114771   -0.000123782   -0.002330896
  99   H   :   -0.000211769    0.002575989    0.000392420
 100   H   :   -0.001376503    0.002525055    0.000813942
 101   H   :   -0.002839193    0.000030213    0.001126316
 102   H   :    0.000487114   -0.001090297    0.001542613
 103   H   :   -0.002286569   -0.000354528    0.000637737
 104   H   :   -0.000595335   -0.000818931   -0.002679554
 105   H   :   -0.001244800    0.000103996   -0.002965262
 106   H   :    0.000536351   -0.000071772   -0.002793881
 107   H   :   -0.001430741    0.003254502   -0.000117999
 108   H   :   -0.000282484    0.002301861    0.001890437
 109   H   :    0.000696341    0.002714658    0.001321708
 110   H   :   -0.001494686    0.003481210    0.000030970
 111   H   :   -0.000612068    0.001911063    0.002033148
 112   H   :    0.000034973    0.002623815    0.001426390
 113   H   :   -0.003230502   -0.000038861    0.001211618
 114   H   :   -0.002553675    0.000073424   -0.001011823
 115   H   :   -0.002575511   -0.001251635   -0.000513900

Difference to translation invariance:
           :   -0.0000000003   -0.0000000000    0.0000000000

Norm of the cartesian gradient     ...    0.1883625450
RMS gradient                       ...    0.0101410985
MAX gradient                       ...    0.0539999251

-------
TIMINGS
-------

Total CIS gradient time            ...    23345.811 sec

Fock matrix formation       ....    1713.007 sec  (  7.3%)
  Coulomb formation         ....    1713.007 sec  (100.0% of F)
Z-vector equation           ....   19572.490 sec  ( 83.8%)
One electron gradient       ....      15.096 sec  (  0.1%)
Prescreening matrices       ....       1.122 sec  (  0.0%)
Two electron gradient       ....    2041.305 sec  (  8.7%)

                            ***************************************
                            *     ORCA property calculations      *
                            ***************************************

                                    ---------------------
                                    Active property flags
                                    ---------------------
   (+) Dipole Moment


------------------------------------------------------------------------------
                       ORCA ELECTRIC PROPERTIES CALCULATION
------------------------------------------------------------------------------

Dipole Moment Calculation                       ... on
Quadrupole Moment Calculation                   ... off
Polarizability Calculation                      ... off
GBWName                                         ... F-2F.gbw
Electron density file                           ... F-2F.scfp
The origin for moment calculation is the CENTER OF MASS  = (19.267096,  9.550193 -1.058904)

-------------
DIPOLE MOMENT
-------------
                                X             Y             Z
Electronic contribution:    -23.68104      26.63986      18.67954
Nuclear contribution   :     24.34987     -25.29828     -18.17806
                        -----------------------------------------
Total Dipole Moment    :      0.66883       1.34158       0.50148
                        -----------------------------------------
Magnitude (a.u.)       :      1.58071
Magnitude (Debye)      :      4.01786



--------------------
Rotational spectrum 
--------------------
 
Rotational constants in cm-1:     0.002910     0.000224     0.000214 
Rotational constants in MHz :    87.232436     6.707366     6.413898 

 Dipole components along the rotational axes: 
x,y,z [a.u.] :    -1.309135    -0.617100    -0.635618 
x,y,z [Debye]:    -3.327557    -1.568543    -1.615613 

 

                        *** CIS RELAXED DENSITY ***

------------------------------------------------------------------------------
                       ORCA ELECTRIC PROPERTIES CALCULATION
------------------------------------------------------------------------------

Dipole Moment Calculation                       ... on
Quadrupole Moment Calculation                   ... off
Polarizability Calculation                      ... off
GBWName                                         ... F-2F.gbw
Electron density file                           ... F-2F.cisp
The origin for moment calculation is the CENTER OF MASS  = (19.267096,  9.550193 -1.058904)

-------------
DIPOLE MOMENT
-------------
                                X             Y             Z
Electronic contribution:    -24.18599      26.04535      18.82678
Nuclear contribution   :     24.34987     -25.29828     -18.17806
                        -----------------------------------------
Total Dipole Moment    :      0.16388       0.74708       0.64872
                        -----------------------------------------
Magnitude (a.u.)       :      1.00291
Magnitude (Debye)      :      2.54919



--------------------
Rotational spectrum 
--------------------
 
Rotational constants in cm-1:     0.002910     0.000224     0.000214 
Rotational constants in MHz :    87.232436     6.707366     6.413898 

 Dipole components along the rotational axes: 
x,y,z [a.u.] :    -0.516258    -0.579109    -0.635556 
x,y,z [Debye]:    -1.312225    -1.471978    -1.615455 

 

Timings for individual modules:

Sum of individual times         ...    60666.716 sec (=1011.112 min)
GTO integral calculation        ...        1.645 sec (=   0.027 min)   0.0 %
SCF iterations                  ...     8125.717 sec (= 135.429 min)  13.4 %
CIS module                      ...    29193.513 sec (= 486.559 min)  48.1 %
SCF Gradient evaluation         ...    23345.841 sec (= 389.097 min)  38.5 %
                             ****ORCA TERMINATED NORMALLY****
TOTAL RUN TIME: 0 days 16 hours 51 minutes 7 seconds 545 msec
