
                                 *****************
                                 * O   R   C   A *
                                 *****************

           --- An Ab Initio, DFT and Semiempirical electronic structure package ---

                  #######################################################
                  #                        -***-                        #
                  #          Department of theory and spectroscopy      #
                  #               Directorship: Frank Neese             #
                  #        Max Planck Institute fuer Kohlenforschung    #
                  #                Kaiser Wilhelm Platz 1               #
                  #                 D-45470 Muelheim/Ruhr               #
                  #                      Germany                        #
                  #                                                     #
                  #                  All rights reserved                #
                  #                        -***-                        #
                  #######################################################


                         Program Version 4.2.0 -  RELEASE  -


 With contributions from (in alphabetic order):
   Daniel Aravena         : Magnetic Suceptibility
   Michael Atanasov       : Ab Initio Ligand Field Theory (pilot matlab implementation)
   Alexander A. Auer      : GIAO ZORA, VPT2
   Ute Becker             : Parallelization
   Giovanni Bistoni       : ED, misc. LED, open-shell LED, HFLED
   Martin Brehm           : Molecular dynamics
   Dmytro Bykov           : SCF Hessian
   Vijay G. Chilkuri      : MRCI spin determinant printing, contributions to CSF-ICE
   Dipayan Datta          : RHF DLPNO-CCSD density
   Achintya Kumar Dutta   : EOM-CC, STEOM-CC
   Dmitry Ganyushin       : Spin-Orbit,Spin-Spin,Magnetic field MRCI
   Miquel Garcia          : C-PCM Hessian, Gaussian charge scheme
   Yang Guo               : DLPNO-NEVPT2, CIM, IAO-localization
   Andreas Hansen         : Spin unrestricted coupled pair/coupled cluster methods
   Benjamin Helmich-Paris : CASSCF linear response (MC-RPA)
   Lee Huntington         : MR-EOM, pCC
   Robert Izsak           : Overlap fitted RIJCOSX, COSX-SCS-MP3, EOM
   Christian Kollmar      : KDIIS, OOCD, Brueckner-CCSD(T), CCSD density
   Simone Kossmann        : Meta GGA functionals, TD-DFT gradient, OOMP2, MP2 Hessian
   Martin Krupicka        : AUTO-CI
   Lucas Lang             : DCDCAS
   Dagmar Lenk            : GEPOL surface, SMD
   Dimitrios Liakos       : Extrapolation schemes; Compound Job, initial MDCI parallelization
   Dimitrios Manganas     : Further ROCIS development; embedding schemes
   Dimitrios Pantazis     : SARC Basis sets
   Taras Petrenko         : DFT Hessian,TD-DFT gradient, ASA, ECA, R-Raman, ABS, FL, XAS/XES, NRVS
   Peter Pinski           : DLPNO-MP2, DLPNO-MP2 Gradient
   Christoph Reimann      : Effective Core Potentials
   Marius Retegan         : Local ZFS, SOC
   Christoph Riplinger    : Optimizer, TS searches, QM/MM, DLPNO-CCSD(T), (RO)-DLPNO pert. Triples
   Tobias Risthaus        : Range-separated hybrids, TD-DFT gradient, RPA, STAB
   Michael Roemelt        : Original ROCIS implementation
   Masaaki Saitow         : Open-shell DLPNO-CCSD energy and density
   Barbara Sandhoefer     : DKH picture change effects
   Avijit Sen             : IP-ROCIS
   Kantharuban Sivalingam : CASSCF convergence, NEVPT2, FIC-MRCI
   Bernardo de Souza      : ESD, SOC TD-DFT
   Georgi Stoychev        : AutoAux, RI-MP2 NMR
   Willem Van den Heuvel  : Paramagnetic NMR
   Boris Wezisla          : Elementary symmetry handling
   Frank Wennmohs         : Technical directorship


 We gratefully acknowledge several colleagues who have allowed us to
 interface, adapt or use parts of their codes:
   Stefan Grimme, W. Hujo, H. Kruse,             : VdW corrections, initial TS optimization,
                  C. Bannwarth                     DFT functionals, gCP, sTDA/sTD-DF
   Ed Valeev, F. Pavosevic, A. Kumar             : LibInt (2-el integral package), F12 methods
   Garnet Chan, S. Sharma, J. Yang, R. Olivares  : DMRG
   Ulf Ekstrom                                   : XCFun DFT Library
   Mihaly Kallay                                 : mrcc  (arbitrary order and MRCC methods)
   Andreas Klamt, Michael Diedenhofen            : otool_cosmo (COSMO solvation model)
   Jiri Pittner, Ondrej Demel                    : Mk-CCSD
   Frank Weinhold                                : gennbo (NPA and NBO analysis)
   Christopher J. Cramer and Donald G. Truhlar   : smd solvation model
   Lars Goerigk                                  : TD-DFT with DH, B97 family of functionals
   V. Asgeirsson, H. Jonsson                     : NEB implementation
   FAccTs GmbH                                   : IRC, NEB, NEB-TS, Multilevel, MM, QM/MM, CI optimization
   S Lehtola, MJT Oliveira, MAL Marques          : LibXC Library


 Your calculation uses the libint2 library for the computation of 2-el integrals
 For citations please refer to: http://libint.valeyev.net

 Your ORCA version has been built with support for libXC version: 4.2.3
 For citations please refer to: https://tddft.org/programs/libxc/

 This ORCA versions uses:
   CBLAS   interface :  Fast vector & matrix operations
   LAPACKE interface :  Fast linear algebra routines
   SCALAPACK package :  Parallel linear algebra routines


----- Orbital basis set information -----
Your calculation utilizes the basis: def2-SVP
   F. Weigend and R. Ahlrichs, Phys. Chem. Chem. Phys. 7, 3297 (2005).

================================================================================
                                        WARNINGS
                       Please study these warnings very carefully!
================================================================================

INFO   : Checking CIS options ...

WARNING: CIS/ROCIS methods need fully converged wavefunctions
  ===> : Setting SCFConvForced true
         You can overwrite this default with %scf ConvForced false 


INFO   : the flag for use of LIBINT has been found!

================================================================================
                                       INPUT FILE
================================================================================
NAME = F-2F.inp
|  1> # ORCA input file
|  2> # F-2F.out: Geometry 41
|  3> ! Engrad Keepdens
|  4> %maxcore 1000
|  5> %tddft
|  6>   nroots 3 
|  7>   # nroots is the number of states to be computed
|  8>   Iroot 1
|  9>   end
| 10> * xyz 0 1
| 11>    C        2.98213        -0.88739         1.55338
| 12>    O        3.18296         0.27144         1.23232
| 13>    C        1.71372        -1.42580         2.10346
| 14>    C        0.53195        -0.73403         2.34255
| 15>    C       -0.52424        -1.44054         2.90646
| 16>    F       -1.68666        -0.84353         3.15488
| 17>    C       -0.37858        -2.80201         3.22965
| 18>    F       -1.40731        -3.42848         3.79730
| 19>    C        0.80175        -3.49575         2.97143
| 20>    C        1.86674        -2.79576         2.38786
| 21>    C        3.22948        -3.22061         1.97386
| 22>    C        3.70059        -4.52132         2.04356
| 23>    C        5.00623        -4.91423         1.61178
| 24>    N        6.06334        -5.25106         1.26379
| 25>    C        2.92000        -5.60860         2.54653
| 26>    N        2.30881        -6.51069         2.95137
| 27>    C        3.92712        -2.02750         1.48583
| 28>    C       15.77300        14.45819        -1.65014
| 29>    O       14.84466        15.10820        -1.21555
| 30>    C       17.21599        14.80439        -1.59234
| 31>    C       17.80437        15.91368        -0.99345
| 32>    C       19.19114        16.00729        -1.03571
| 33>    F       19.82633        17.03094        -0.47002
| 34>    C       19.95104        15.01510        -1.68071
| 35>    F       21.27366        15.15231        -1.69906
| 36>    C       19.35951        13.90877        -2.28709
| 37>    C       17.96414        13.79701        -2.23507
| 38>    C       17.02842        12.77676        -2.78536
| 39>    C       17.37448        11.82390        -3.73227
| 40>    C       16.41737        11.08422        -4.48680
| 41>    N       15.67257        10.46614        -5.13121
| 42>    C       18.73078        11.57598        -4.11142
| 43>    N       19.83156        11.35195        -4.40989
| 44>    C       15.70315        13.10030        -2.29080
| 45>    C        8.08342         2.33259        -0.26811
| 46>    C        9.37715         1.90972        -0.68169
| 47>    C       10.33461         2.85127        -1.03722
| 48>    C        9.99001         4.21156        -0.95515
| 49>    C        8.70450         4.62510        -0.51439
| 50>    C        7.73435         3.68892        -0.18801
| 51>    C        8.61836         6.14479        -0.45503
| 52>    C        7.38690         6.72040        -1.18284
| 53>    C        7.28920         6.34515        -2.66017
| 54>    C        8.68405         6.63158         1.03062
| 55>    C        7.47689         6.34052         1.91680
| 56>    C        9.95119         6.54156        -1.07953
| 57>    C       10.77266         5.40435        -1.27778
| 58>    C       12.11514         5.53362        -1.67450
| 59>    C       12.62097         6.81198        -1.88827
| 60>    C       11.77390         7.94513        -1.71511
| 61>    C       10.43581         7.81919        -1.31611
| 62>    C        5.23384        -1.96170         1.03961
| 63>    C       14.50131        12.43970        -2.13566
| 64>    C       12.59499         9.11486        -1.90212
| 65>    C       13.92712         8.75909        -2.13575
| 66>    C       14.06288         7.24323        -2.20513
| 67>    S       12.34857        10.80775        -1.86907
| 68>    C       14.07528        11.09154        -2.18090
| 69>    C       14.76344         9.86910        -2.29344
| 70>    C        9.48542         0.37678        -0.68772
| 71>    C        8.10546        -0.00433        -0.15709
| 72>    C        7.32619         1.14348         0.03250
| 73>    C        7.40411        -1.15950         0.19102
| 74>    C        6.07619        -0.90552         0.61374
| 75>    S        5.72832         0.83448         0.57312
| 76>    C       14.49354         6.86781        -3.65264
| 77>    C       15.00724         6.67625        -1.11390
| 78>    C       10.64436        -0.12395         0.20630
| 79>    C        9.68498        -0.10207        -2.15528
| 80>    C       10.59746         0.34941         1.65656
| 81>    C        9.63167        -1.61093        -2.38322
| 82>    C       14.64561         5.37859        -3.95301
| 83>    C       16.47318         7.09061        -1.21505
| 84>    H        0.43228         0.32411         2.09514
| 85>    H        0.84601        -4.54855         3.24156
| 86>    H       17.20508        16.68313        -0.50413
| 87>    H       20.00811        13.17873        -2.76705
| 88>    H       11.32700         2.54608        -1.37815
| 89>    H        6.72974         3.98447         0.11866
| 90>    H        7.40327         7.81848        -1.06934
| 91>    H        6.47955         6.38205        -0.65743
| 92>    H        8.18595         6.66222        -3.21503
| 93>    H        6.41984         6.82708        -3.13235
| 94>    H        7.18282         5.25699        -2.79034
| 95>    H        8.86644         7.71962         1.01108
| 96>    H        9.58555         6.18420         1.47969
| 97>    H        6.56212         6.82348         1.54261
| 98>    H        7.66142         6.73001         2.93011
| 99>    H        7.27855         5.26233         2.01094
|100>    H       12.74967         4.65134        -1.77258
|101>    H        9.81858         8.70483        -1.14977
|102>    H        5.77025        -2.90938         1.00836
|103>    H       13.72960        13.13777        -1.78345
|104>    H       15.83695         9.81531        -2.44533
|105>    H        7.79805        -2.17654         0.17183
|106>    H       15.44010         7.38869        -3.86949
|107>    H       13.75857         7.31243        -4.34215
|108>    H       14.93503         5.57686        -1.14238
|109>    H       14.60295         6.97894        -0.13378
|110>    H       11.59016         0.19737        -0.26392
|111>    H       10.65042        -1.22529         0.17850
|112>    H       10.65706         0.28984        -2.49937
|113>    H        8.92082         0.38775        -2.77993
|114>    H       10.68332         1.44477         1.72909
|115>    H       11.42033        -0.09312         2.23784
|116>    H        9.65447         0.05281         2.14260
|117>    H       10.34543        -2.15850        -1.75094
|118>    H        9.87917        -1.84734        -3.42963
|119>    H        8.62755        -2.01527        -2.18366
|120>    H       15.34512         4.88080        -3.26358
|121>    H       15.04154         5.23966        -4.97103
|122>    H       13.68324         4.84838        -3.89945
|123>    H       16.91003         6.83902        -2.19329
|124>    H       17.07062         6.57245        -0.45030
|125>    H       16.60590         8.17049        -1.05313
|126> *
|127> 
|128>                          ****END OF INPUT****
================================================================================

                     *******************************
                     * Energy+Gradient Calculation *
                     *******************************

---------------------------------
CARTESIAN COORDINATES (ANGSTROEM)
---------------------------------
  C      2.982130   -0.887390    1.553380
  O      3.182960    0.271440    1.232320
  C      1.713720   -1.425800    2.103460
  C      0.531950   -0.734030    2.342550
  C     -0.524240   -1.440540    2.906460
  F     -1.686660   -0.843530    3.154880
  C     -0.378580   -2.802010    3.229650
  F     -1.407310   -3.428480    3.797300
  C      0.801750   -3.495750    2.971430
  C      1.866740   -2.795760    2.387860
  C      3.229480   -3.220610    1.973860
  C      3.700590   -4.521320    2.043560
  C      5.006230   -4.914230    1.611780
  N      6.063340   -5.251060    1.263790
  C      2.920000   -5.608600    2.546530
  N      2.308810   -6.510690    2.951370
  C      3.927120   -2.027500    1.485830
  C     15.773000   14.458190   -1.650140
  O     14.844660   15.108200   -1.215550
  C     17.215990   14.804390   -1.592340
  C     17.804370   15.913680   -0.993450
  C     19.191140   16.007290   -1.035710
  F     19.826330   17.030940   -0.470020
  C     19.951040   15.015100   -1.680710
  F     21.273660   15.152310   -1.699060
  C     19.359510   13.908770   -2.287090
  C     17.964140   13.797010   -2.235070
  C     17.028420   12.776760   -2.785360
  C     17.374480   11.823900   -3.732270
  C     16.417370   11.084220   -4.486800
  N     15.672570   10.466140   -5.131210
  C     18.730780   11.575980   -4.111420
  N     19.831560   11.351950   -4.409890
  C     15.703150   13.100300   -2.290800
  C      8.083420    2.332590   -0.268110
  C      9.377150    1.909720   -0.681690
  C     10.334610    2.851270   -1.037220
  C      9.990010    4.211560   -0.955150
  C      8.704500    4.625100   -0.514390
  C      7.734350    3.688920   -0.188010
  C      8.618360    6.144790   -0.455030
  C      7.386900    6.720400   -1.182840
  C      7.289200    6.345150   -2.660170
  C      8.684050    6.631580    1.030620
  C      7.476890    6.340520    1.916800
  C      9.951190    6.541560   -1.079530
  C     10.772660    5.404350   -1.277780
  C     12.115140    5.533620   -1.674500
  C     12.620970    6.811980   -1.888270
  C     11.773900    7.945130   -1.715110
  C     10.435810    7.819190   -1.316110
  C      5.233840   -1.961700    1.039610
  C     14.501310   12.439700   -2.135660
  C     12.594990    9.114860   -1.902120
  C     13.927120    8.759090   -2.135750
  C     14.062880    7.243230   -2.205130
  S     12.348570   10.807750   -1.869070
  C     14.075280   11.091540   -2.180900
  C     14.763440    9.869100   -2.293440
  C      9.485420    0.376780   -0.687720
  C      8.105460   -0.004330   -0.157090
  C      7.326190    1.143480    0.032500
  C      7.404110   -1.159500    0.191020
  C      6.076190   -0.905520    0.613740
  S      5.728320    0.834480    0.573120
  C     14.493540    6.867810   -3.652640
  C     15.007240    6.676250   -1.113900
  C     10.644360   -0.123950    0.206300
  C      9.684980   -0.102070   -2.155280
  C     10.597460    0.349410    1.656560
  C      9.631670   -1.610930   -2.383220
  C     14.645610    5.378590   -3.953010
  C     16.473180    7.090610   -1.215050
  H      0.432280    0.324110    2.095140
  H      0.846010   -4.548550    3.241560
  H     17.205080   16.683130   -0.504130
  H     20.008110   13.178730   -2.767050
  H     11.327000    2.546080   -1.378150
  H      6.729740    3.984470    0.118660
  H      7.403270    7.818480   -1.069340
  H      6.479550    6.382050   -0.657430
  H      8.185950    6.662220   -3.215030
  H      6.419840    6.827080   -3.132350
  H      7.182820    5.256990   -2.790340
  H      8.866440    7.719620    1.011080
  H      9.585550    6.184200    1.479690
  H      6.562120    6.823480    1.542610
  H      7.661420    6.730010    2.930110
  H      7.278550    5.262330    2.010940
  H     12.749670    4.651340   -1.772580
  H      9.818580    8.704830   -1.149770
  H      5.770250   -2.909380    1.008360
  H     13.729600   13.137770   -1.783450
  H     15.836950    9.815310   -2.445330
  H      7.798050   -2.176540    0.171830
  H     15.440100    7.388690   -3.869490
  H     13.758570    7.312430   -4.342150
  H     14.935030    5.576860   -1.142380
  H     14.602950    6.978940   -0.133780
  H     11.590160    0.197370   -0.263920
  H     10.650420   -1.225290    0.178500
  H     10.657060    0.289840   -2.499370
  H      8.920820    0.387750   -2.779930
  H     10.683320    1.444770    1.729090
  H     11.420330   -0.093120    2.237840
  H      9.654470    0.052810    2.142600
  H     10.345430   -2.158500   -1.750940
  H      9.879170   -1.847340   -3.429630
  H      8.627550   -2.015270   -2.183660
  H     15.345120    4.880800   -3.263580
  H     15.041540    5.239660   -4.971030
  H     13.683240    4.848380   -3.899450
  H     16.910030    6.839020   -2.193290
  H     17.070620    6.572450   -0.450300
  H     16.605900    8.170490   -1.053130

----------------------------
CARTESIAN COORDINATES (A.U.)
----------------------------
  NO LB      ZA    FRAG     MASS         X           Y           Z
   0 C     6.0000    0    12.011    5.635409   -1.676924    2.935463
   1 O     8.0000    0    15.999    6.014923    0.512947    2.328747
   2 C     6.0000    0    12.011    3.238461   -2.694372    3.974963
   3 C     6.0000    0    12.011    1.005240   -1.387116    4.426778
   4 C     6.0000    0    12.011   -0.990670   -2.722226    5.492413
   5 F     9.0000    0    18.998   -3.187325   -1.594041    5.961859
   6 C     6.0000    0    12.011   -0.715413   -5.295032    6.103154
   7 F     9.0000    0    18.998   -2.659430   -6.478888    7.175857
   8 C     6.0000    0    12.011    1.515088   -6.606010    5.615189
   9 C     6.0000    0    12.011    3.527627   -5.283221    4.512401
  10 C     6.0000    0    12.011    6.102833   -6.086071    3.730055
  11 C     6.0000    0    12.011    6.993102   -8.544057    3.861769
  12 C     6.0000    0    12.011    9.460404   -9.286549    3.045823
  13 N     7.0000    0    14.007   11.458052   -9.923065    2.388217
  14 C     6.0000    0    12.011    5.518000  -10.598718    4.812244
  15 N     7.0000    0    14.007    4.363019  -12.303421    5.577281
  16 C     6.0000    0    12.011    7.421181   -3.831420    2.807812
  17 C     6.0000    0    12.011   29.806650   27.322019   -3.118313
  18 O     8.0000    0    15.999   28.052342   28.550360   -2.297057
  19 C     6.0000    0    12.011   32.533506   27.976243   -3.009087
  20 C     6.0000    0    12.011   33.645383   30.072497   -1.877348
  21 C     6.0000    0    12.011   36.265999   30.249394   -1.957208
  22 F     9.0000    0    18.998   37.466334   32.183812   -0.888209
  23 C     6.0000    0    12.011   37.702002   28.374427   -3.176082
  24 F     9.0000    0    18.998   40.201391   28.633716   -3.210758
  25 C     6.0000    0    12.011   36.584172   26.283766   -4.321974
  26 C     6.0000    0    12.011   33.947305   26.072570   -4.223670
  27 C     6.0000    0    12.011   32.179050   24.144577   -5.263568
  28 C     6.0000    0    12.011   32.833009   22.343933   -7.052968
  29 C     6.0000    0    12.011   31.024333   20.946140   -8.478823
  30 N     7.0000    0    14.007   29.616865   19.778138   -9.696582
  31 C     6.0000    0    12.011   35.396044   21.875432   -7.769458
  32 N     7.0000    0    14.007   37.476217   21.452077   -8.333484
  33 C     6.0000    0    12.011   29.674653   24.755979   -4.328985
  34 C     6.0000    0    12.011   15.275450    4.407956   -0.506654
  35 C     6.0000    0    12.011   17.720245    3.608848   -1.288207
  36 C     6.0000    0    12.011   19.529583    5.388119   -1.960062
  37 C     6.0000    0    12.011   18.878383    7.958695   -1.804972
  38 C     6.0000    0    12.011   16.449121    8.740172   -0.972056
  39 C     6.0000    0    12.011   14.615803    6.971049   -0.355287
  40 C     6.0000    0    12.011   16.286340   11.611970   -0.859882
  41 C     6.0000    0    12.011   13.959218   12.699716   -2.235244
  42 C     6.0000    0    12.011   13.774592   11.990596   -5.026993
  43 C     6.0000    0    12.011   16.410476   12.531870    1.947590
  44 C     6.0000    0    12.011   14.129274   11.981846    3.622227
  45 C     6.0000    0    12.011   18.805024   12.361757   -2.040016
  46 C     6.0000    0    12.011   20.357377   10.212741   -2.414654
  47 C     6.0000    0    12.011   22.894297   10.457026   -3.164346
  48 C     6.0000    0    12.011   23.850177   12.872777   -3.568313
  49 C     6.0000    0    12.011   22.249447   15.014120   -3.241088
  50 C     6.0000    0    12.011   19.720823   14.776128   -2.487087
  51 C     6.0000    0    12.011    9.890524   -3.707076    1.964578
  52 C     6.0000    0    12.011   27.403504   23.507626   -4.035813
  53 C     6.0000    0    12.011   23.801082   17.224589   -3.594486
  54 C     6.0000    0    12.011   26.318443   16.552281   -4.035983
  55 C     6.0000    0    12.011   26.574992   13.687721   -4.167092
  56 S    16.0000    0    32.060   23.335415   20.423688   -3.532030
  57 C     6.0000    0    12.011   26.598424   20.959973   -4.121304
  58 C     6.0000    0    12.011   27.898858   18.649896   -4.333974
  59 C     6.0000    0    12.011   17.924846    0.712011   -1.299602
  60 C     6.0000    0    12.011   15.317100   -0.008183   -0.296857
  61 C     6.0000    0    12.011   13.844493    2.160864    0.061416
  62 C     6.0000    0    12.011   13.991740   -2.191137    0.360975
  63 C     6.0000    0    12.011   11.482335   -1.711185    1.159801
  64 S    16.0000    0    32.060   10.824956    1.576939    1.083040
  65 C     6.0000    0    12.011   27.388821   12.978280   -6.902489
  66 C     6.0000    0    12.011   28.359574   12.616284   -2.104966
  67 C     6.0000    0    12.011   20.114925   -0.234232    0.389851
  68 C     6.0000    0    12.011   18.301960   -0.192884   -4.072889
  69 C     6.0000    0    12.011   20.026297    0.660289    3.130445
  70 C     6.0000    0    12.011   18.201219   -3.044217   -4.503633
  71 C     6.0000    0    12.011   27.676192   10.164062   -7.470106
  72 C     6.0000    0    12.011   31.129799   13.399311   -2.296112
  73 H     1.0000    0     1.008    0.816891    0.612479    3.959241
  74 H     1.0000    0     1.008    1.598727   -8.595514    6.125661
  75 H     1.0000    0     1.008   32.512889   31.526547   -0.952668
  76 H     1.0000    0     1.008   37.809848   24.904190   -5.228967
  77 H     1.0000    0     1.008   21.404928    4.811394   -2.604326
  78 H     1.0000    0     1.008   12.717366    7.529557    0.224235
  79 H     1.0000    0     1.008   13.990153   14.774786   -2.020760
  80 H     1.0000    0     1.008   12.244575   12.060327   -1.242363
  81 H     1.0000    0     1.008   15.469204   12.589771   -6.075526
  82 H     1.0000    0     1.008   12.131739   12.901311   -5.919284
  83 H     1.0000    0     1.008   13.573563    9.934271   -5.272978
  84 H     1.0000    0     1.008   16.755143   14.587968    1.910664
  85 H     1.0000    0     1.008   18.114064   11.686444    2.796209
  86 H     1.0000    0     1.008   12.400610   12.894508    2.915110
  87 H     1.0000    0     1.008   14.477986   12.717876    5.537105
  88 H     1.0000    0     1.008   13.754466    9.944363    3.800126
  89 H     1.0000    0     1.008   24.093385    8.789759   -3.349691
  90 H     1.0000    0     1.008   18.554427   16.449745   -2.172750
  91 H     1.0000    0     1.008   10.904192   -5.497931    1.905524
  92 H     1.0000    0     1.008   25.945184   24.826787   -3.370232
  93 H     1.0000    0     1.008   29.927498   18.548248   -4.621004
  94 H     1.0000    0     1.008   14.736179   -4.113065    0.324712
  95 H     1.0000    0     1.008   29.177560   13.962601   -7.312276
  96 H     1.0000    0     1.008   25.999929   13.818490   -8.205474
  97 H     1.0000    0     1.008   28.223117   10.538738   -2.158785
  98 H     1.0000    0     1.008   27.595576   13.188285   -0.252808
  99 H     1.0000    0     1.008   21.902228    0.372975   -0.498737
 100 H     1.0000    0     1.008   20.126377   -2.315463    0.337316
 101 H     1.0000    0     1.008   20.138925    0.547718   -4.723125
 102 H     1.0000    0     1.008   16.857907    0.732741   -5.253306
 103 H     1.0000    0     1.008   20.188549    2.730220    3.267507
 104 H     1.0000    0     1.008   21.581296   -0.175971    4.228905
 105 H     1.0000    0     1.008   18.244304    0.099796    4.048927
 106 H     1.0000    0     1.008   19.550029   -4.078974   -3.308797
 107 H     1.0000    0     1.008   18.668926   -3.490967   -6.481061
 108 H     1.0000    0     1.008   16.303707   -3.808308   -4.126519
 109 H     1.0000    0     1.008   28.998074    9.223375   -6.167272
 110 H     1.0000    0     1.008   28.424391    9.901522   -9.393885
 111 H     1.0000    0     1.008   25.857576    9.162110   -7.368893
 112 H     1.0000    0     1.008   31.955326   12.923875   -4.144717
 113 H     1.0000    0     1.008   32.258797   12.420131   -0.850944
 114 H     1.0000    0     1.008   31.380603   15.439988   -1.990127

--------------------------------
INTERNAL COORDINATES (ANGSTROEM)
--------------------------------
 C      0   0   0     0.000000000000     0.00000000     0.00000000
 O      1   0   0     1.219138704742     0.00000000     0.00000000
 C      1   2   0     1.483690420067   125.69007505     0.00000000
 C      3   1   2     1.390068377419   127.58770219     0.64314707
 C      4   3   1     1.390211560986   117.56460689   182.01193144
 F      5   4   3     1.330170550305   120.76935296   180.40371729
 C      5   4   3     1.406865015771   120.41958326     0.65911276
 F      7   5   4     1.331531673037   118.24553196   178.42224274
 C      7   5   4     1.393245012516   121.80305590   358.42194335
 C      9   7   5     1.401693135140   118.17579110     0.77176836
 C     10   9   7     1.486254968066   132.05663794   180.77564183
 C     11  10   9     1.385153141786   124.48973475     3.55670204
 C     12  11  10     1.430212587730   123.59177736   178.55062394
 N     13  12  11     1.162769556318   179.10352288   185.90279381
 C     12  11  10     1.429852218728   123.09859032   359.09604624
 N     15  12  11     1.162417743240   178.52598081   182.36306087
 C     11  10   9     1.465737467148   107.24586168   182.95351517
 C      2   1   3    19.185451738640   148.27060804   155.55455376
 O     18   2   1     1.213753114847    80.81012189   215.12968064
 C     18   2   1     1.485064113128   143.53030118   359.34009829
 C     20  18   2     1.391180994910   127.84974462   228.81697230
 C     21  20  18     1.390568147413   117.54047023   178.23762931
 F     22  21  20     1.330913533893   120.98504552   180.84402591
 C     22  21  20     1.406383306962   120.35073745     0.81925835
 F     24  22  21     1.329844716875   118.09431309   179.72327754
 C     24  22  21     1.393402495405   122.02898148   359.53865562
 C     26  24  22     1.400804702626   118.03818519   359.65951335
 C     27  26  24     1.489731876883   131.80504969   178.92965874
 C     28  27  26     1.387205194375   124.46302339   345.96964040
 C     29  28  27     1.425658295455   123.37886619   196.19324296
 N     30  29  28     1.162761443504   177.61424469   167.51606755
 C     29  28  27     1.429954103774   122.45912751    11.05164223
 N     32  29  28     1.162321121808   178.78852021   114.35718177
 C     28  27  26     1.451071431081   107.16127845   173.70908584
 C      2   1   3     5.523960329238   124.91357456   172.70350052
 C     35   2   1     1.422534627417   140.79179146    15.43903859
 C     36  35   2     1.389117574218   119.98485629   176.72258710
 C     37  36  35     1.405657685569   118.16498339     0.92454010
 C     38  37  36     1.420500147589   121.44623831     0.38987761
 C     39  38  37     1.387136589994   120.62755596   358.08509586
 C     39  38  37     1.523286383219   110.71389886   177.23443544
 C     41  39  38     1.541923474041   113.52781813   129.35119268
 C     42  41  39     1.527370872251   114.57734473   302.27309736
 C     41  39  38     1.564747776065   110.18107085   255.13999365
 C     44  41  39     1.525537997429   117.31987368   289.71345652
 C     41  39  38     1.524422018930   101.20124350     6.69665264
 C     46  41  39     1.416814245941   110.81441781   352.00802972
 C     47  46  41     1.405827173482   121.28901141   188.54919685
 C     48  47  46     1.391318041068   118.36099957   359.13360598
 C     49  48  47     1.425321329736   119.71836111   359.39401295
 C     46  41  39     1.386782267589   127.96739107   178.88898848
 C     17  11  10     1.382374437987   126.59386696   177.93073226
 C     34  28  27     1.380173961934   136.62600445   199.44582201
 C     50  49  48     1.441329178606   106.91078652   175.64582257
 C     54  50  49     1.398472597765   110.96916623   357.82351494
 C     55  54  50     1.523507762238   110.21919860     3.60280873
 S     54  50  49     1.711049873908   135.92262049   179.72675214
 C     53  34  28     1.414596622398   135.62798150    13.01295120
 C     55  54  50     1.398720657816   112.73682361   181.32172574
 C     36  35   2     1.536770574094   111.20701444   357.87726773
 C     60  36  35     1.526794888189   100.59998974   357.32780355
 C     61  60  36     1.400240656852   110.20900969     3.22318002
 C     61  60  36     1.395525035067   138.37896690   183.26880742
 C     52  17  11     1.416486841379   134.00092877   184.21243404
 S     62  61  60     1.714916768039   114.42643698   177.82802641
 C     56  55  54     1.556179106690   107.88176853   114.77660424
 C     56  55  54     1.550504770357   112.70971490   240.80825096
 C     60  36  35     1.546979061558   111.92476491   236.72877233
 C     60  36  35     1.556551916802   108.63875334   114.51529589
 C     68  60  36     1.526277617997   115.19640127    55.60154490
 C     69  60  36     1.526910966396   116.12105190   187.68637487
 C     66  56  55     1.526801765194   116.47861447   181.84391710
 C     67  56  55     1.526730367714   116.03635983   295.04814139
 H      4   3   1     1.091240613522   121.41346437     2.19524981
 H      9   7   5     1.087803752751   118.05728359   180.31993519
 H     21  20  18     1.091162622619   121.53659488   358.45009161
 H     26  24  22     1.088118542807   118.13833936   180.08405245
 H     37  36  35     1.092800124954   121.09651537   181.33121301
 H     40  39  38     1.091163389919   121.81910608   182.20186086
 H     42  41  39     1.104051589963   108.11474184   179.01102327
 H     42  41  39     1.101735182837   108.54177767    64.94199894
 H     43  42  41     1.101164641187   111.37939764   302.63542810
 H     43  42  41     1.100453218860   110.97491726   182.87913123
 H     43  42  41     1.101069079985   111.30493600    62.81476982
 H     44  41  39     1.103394292762   107.27118203   166.43789360
 H     44  41  39     1.102050352434   107.15382267    53.20908123
 H     45  44  41     1.100033031595   112.12748943   298.61544221
 H     45  44  41     1.101158906380   109.53995638   179.62809867
 H     45  44  41     1.100315759816   112.28989272    60.46392324
 H     48  47  46     1.091176431976   120.41919558   176.79064103
 H     51  46  41     1.092245429425   121.57160803   353.63119026
 H     52  17  11     1.089407927730   115.67666491     3.16807727
 H     53  34  28     1.098585423670   110.09591715   184.72746596
 H     59  55  54     1.085535654090   124.59312842   177.58106885
 H     63  61  60     1.090837907895   125.86536061     2.45935345
 H     66  56  55     1.101959949590   107.86207395    58.07619701
 H     66  56  55     1.101495295224   107.47140962   305.31481336
 H     67  56  55     1.102126928534   107.85893488   171.98794206
 H     67  56  55     1.102590973389   107.57182447    58.24323549
 H     68  60  36     1.104033980818   107.54447113   292.66515574
 H     68  60  36     1.101707474423   108.24690487   178.55733307
 H     69  60  36     1.103145911745   107.32346435    64.72348618
 H     69  60  36     1.101840170125   107.98872686   310.79105709
 H     70  68  60     1.101111288699   111.63628514   297.04786985
 H     70  68  60     1.100379151111   110.74680333   176.82437359
 H     70  68  60     1.101560975026   111.22621120    57.49077808
 H     71  69  60     1.099574572687   112.55640513   304.91679267
 H     71  69  60     1.100963135713   110.25676201   185.42779857
 H     71  69  60     1.100714315161   111.57910641    66.20949461
 H     72  66  56     1.101100744301   112.39881933   304.38998824
 H     72  66  56     1.101102552081   109.92373451   185.24995811
 H     72  66  56     1.100066968234   111.92572146    66.01015948
 H     73  67  56     1.100494865140   112.20970404   304.08199270
 H     73  67  56     1.100121312265   110.33793284   184.68964668
 H     73  67  56     1.099987954116   111.87243695    65.52711405

---------------------------
INTERNAL COORDINATES (A.U.)
---------------------------
 C      0   0   0     0.000000000000     0.00000000     0.00000000
 O      1   0   0     2.303838271226     0.00000000     0.00000000
 C      1   2   0     2.803768561450   125.69007505     0.00000000
 C      3   1   2     2.626848540746   127.58770219     0.64314707
 C      4   3   1     2.627119118475   117.56460689   182.01193144
 F      5   4   3     2.513658051485   120.76935296   180.40371729
 C      5   4   3     2.658589587202   120.41958326     0.65911276
 F      7   5   4     2.516230200681   118.24553196   178.42224274
 C      7   5   4     2.632851511106   121.80305590   358.42194335
 C      9   7   5     2.648816149213   118.17579110     0.77176836
 C     10   9   7     2.808614854824   132.05663794   180.77564183
 C     11  10   9     2.617560091516   124.48973475     3.55670204
 C     12  11  10     2.702710104096   123.59177736   178.55062394
 N     13  12  11     2.197316018302   179.10352288   185.90279381
 C     12  11  10     2.702029105375   123.09859032   359.09604624
 N     15  12  11     2.196651187935   178.52598081   182.36306087
 C     11  10   9     2.769842397136   107.24586168   182.95351517
 C      2   1   3    36.255249541594   148.27060804   155.55455376
 O     18   2   1     2.293660981254    80.81012189   215.12968064
 C     18   2   1     2.806364465126   143.53030118   359.34009829
 C     20  18   2     2.628951083097   127.84974462   228.81697230
 C     21  20  18     2.627792969165   117.54047023   178.23762931
 F     22  21  20     2.515062086987   120.98504552   180.84402591
 C     22  21  20     2.657679289476   120.35073745     0.81925835
 F     24  22  21     2.513042315536   118.09431309   179.72327754
 C     24  22  21     2.633149110637   122.02898148   359.53865562
 C     26  24  22     2.647137255073   118.03818519   359.65951335
 C     27  26  24     2.815185260281   131.80504969   178.92965874
 C     28  27  26     2.621437908921   124.46302339   345.96964040
 C     29  28  27     2.694103738963   123.37886619   196.19324296
 N     30  29  28     2.197300687306   177.61424469   167.51606755
 C     29  28  27     2.702221640210   122.45912751    11.05164223
 N     32  29  28     2.196468599888   178.78852021   114.35718177
 C     28  27  26     2.742127605501   107.16127845   173.70908584
 C      2   1   3    10.438772196906   124.91357456   172.70350052
 C     35   2   1     2.688200861838   140.79179146    15.43903859
 C     36  35   2     2.625051783088   119.98485629   176.72258710
 C     37  36  35     2.656308063768   118.16498339     0.92454010
 C     38  37  36     2.684356252138   121.44623831     0.38987761
 C     39  38  37     2.621308265430   120.62755596   358.08509586
 C     39  38  37     2.878594087815   110.71389886   177.23443544
 C     41  39  38     2.913813085403   113.52781813   129.35119268
 C     42  41  39     2.886312653482   114.57734473   302.27309736
 C     41  39  38     2.956944765425   110.18107085   255.13999365
 C     44  41  39     2.882849022032   117.31987368   289.71345652
 C     41  39  38     2.880740128298   101.20124350     6.69665264
 C     46  41  39     2.677390907466   110.81441781   352.00802972
 C     47  46  41     2.656628349505   121.28901141   188.54919685
 C     48  47  46     2.629210062801   118.36099957   359.13360598
 C     49  48  47     2.693466966037   119.71836111   359.39401295
 C     46  41  39     2.620638693122   127.96739107   178.88898848
 C     17  11  10     2.612309102329   126.59386696   177.93073226
 C     34  28  27     2.608150805224   136.62600445   199.44582201
 C     50  49  48     2.723717416394   106.91078652   175.64582257
 C     54  50  49     2.642730215570   110.96916623   357.82351494
 C     55  54  50     2.879012433533   110.21919860     3.60280873
 S     54  50  49     3.233415663166   135.92262049   179.72675214
 C     53  34  28     2.673200206302   135.62798150    13.01295120
 C     55  54  50     2.643198981130   112.73682361   181.32172574
 C     36  35   2     2.904075515706   111.20701444   357.87726773
 C     60  36  35     2.885224201348   100.59998974   357.32780355
 C     61  60  36     2.646071363031   110.20900969     3.22318002
 C     61  60  36     2.637160129308   138.37896690   183.26880742
 C     52  17  11     2.676772202510   134.00092877   184.21243404
 S     62  61  60     3.240723034062   114.42643698   177.82802641
 C     56  55  54     2.940752326975   107.88176853   114.77660424
 C     56  55  54     2.930029385313   112.70971490   240.80825096
 C     60  36  35     2.923366761256   111.92476491   236.72877233
 C     60  36  35     2.941456835986   108.63875334   114.51529589
 C     68  60  36     2.884246702349   115.19640127    55.60154490
 C     69  60  36     2.885443557369   116.12105190   187.68637487
 C     66  56  55     2.885237197005   116.47861447   181.84391710
 C     67  56  55     2.885102275320   116.03635983   295.04814139
 H      4   3   1     2.062145905769   121.41346437     2.19524981
 H      9   7   5     2.055651180152   118.05728359   180.31993519
 H     21  20  18     2.061998524321   121.53659488   358.45009161
 H     26  24  22     2.056246047146   118.13833936   180.08405245
 H     37  36  35     2.065092955278   121.09651537   181.33121301
 H     40  39  38     2.061999974308   121.81910608   182.20186086
 H     42  41  39     2.086355142751   108.11474184   179.01102327
 H     42  41  39     2.081977767667   108.54177767    64.94199894
 H     43  42  41     2.080899600201   111.37939764   302.63542810
 H     43  42  41     2.079555206838   110.97491726   182.87913123
 H     43  42  41     2.080719015701   111.30493600    62.81476982
 H     44  41  39     2.085113031052   107.27118203   166.43789360
 H     44  41  39     2.082573351892   107.15382267    53.20908123
 H     45  44  41     2.078761167982   112.12748943   298.61544221
 H     45  44  41     2.080888762986   109.53995638   179.62809867
 H     45  44  41     2.079295446890   112.28989272    60.46392324
 H     48  47  46     2.062024620224   120.41919558   176.79064103
 H     51  46  41     2.064044732641   121.57160803   353.63119026
 H     52  17  11     2.058682631532   115.67666491     3.16807727
 H     53  34  28     2.076025585454   110.09591715   184.72746596
 H     59  55  54     2.051365094837   124.59312842   177.58106885
 H     63  61  60     2.061384902421   125.86536061     2.45935345
 H     66  56  55     2.082402515274   107.86207395    58.07619701
 H     66  56  55     2.081524445776   107.47140962   305.31481336
 H     67  56  55     2.082718059749   107.85893488   171.98794206
 H     67  56  55     2.083594977440   107.57182447    58.24323549
 H     68  60  36     2.086321866288   107.54447113   292.66515574
 H     68  60  36     2.081925406354   108.24690487   178.55733307
 H     69  60  36     2.084643658953   107.32346435    64.72348618
 H     69  60  36     2.082176164889   107.98872686   310.79105709
 H     70  68  60     2.080798778610   111.63628514   297.04786985
 H     70  68  60     2.079415239077   110.74680333   176.82437359
 H     70  68  60     2.081648562614   111.22621120    57.49077808
 H     71  69  60     2.077894806202   112.55640513   304.91679267
 H     71  69  60     2.080518810042   110.25676201   185.42779857
 H     71  69  60     2.080048607341   111.57910641    66.20949461
 H     72  66  56     2.080778852586   112.39881933   304.38998824
 H     72  66  56     2.080782268795   109.92373451   185.24995811
 H     72  66  56     2.078825298936   111.92572146    66.01015948
 H     73  67  56     2.079633906902   112.20970404   304.08199270
 H     73  67  56     2.078927994271   110.33793284   184.68964668
 H     73  67  56     2.078675983891   111.87243695    65.52711405

---------------------
BASIS SET INFORMATION
---------------------
There are 6 groups of distinct atoms

 Group   1 Type C   : 7s4p1d contracted to 3s2p1d pattern {511/31/1}
 Group   2 Type O   : 7s4p1d contracted to 3s2p1d pattern {511/31/1}
 Group   3 Type F   : 7s4p1d contracted to 3s2p1d pattern {511/31/1}
 Group   4 Type N   : 7s4p1d contracted to 3s2p1d pattern {511/31/1}
 Group   5 Type S   : 10s7p1d contracted to 4s3p1d pattern {5311/511/1}
 Group   6 Type H   : 4s1p contracted to 2s1p pattern {31/1}

Atom   0C    basis set group =>   1
Atom   1O    basis set group =>   2
Atom   2C    basis set group =>   1
Atom   3C    basis set group =>   1
Atom   4C    basis set group =>   1
Atom   5F    basis set group =>   3
Atom   6C    basis set group =>   1
Atom   7F    basis set group =>   3
Atom   8C    basis set group =>   1
Atom   9C    basis set group =>   1
Atom  10C    basis set group =>   1
Atom  11C    basis set group =>   1
Atom  12C    basis set group =>   1
Atom  13N    basis set group =>   4
Atom  14C    basis set group =>   1
Atom  15N    basis set group =>   4
Atom  16C    basis set group =>   1
Atom  17C    basis set group =>   1
Atom  18O    basis set group =>   2
Atom  19C    basis set group =>   1
Atom  20C    basis set group =>   1
Atom  21C    basis set group =>   1
Atom  22F    basis set group =>   3
Atom  23C    basis set group =>   1
Atom  24F    basis set group =>   3
Atom  25C    basis set group =>   1
Atom  26C    basis set group =>   1
Atom  27C    basis set group =>   1
Atom  28C    basis set group =>   1
Atom  29C    basis set group =>   1
Atom  30N    basis set group =>   4
Atom  31C    basis set group =>   1
Atom  32N    basis set group =>   4
Atom  33C    basis set group =>   1
Atom  34C    basis set group =>   1
Atom  35C    basis set group =>   1
Atom  36C    basis set group =>   1
Atom  37C    basis set group =>   1
Atom  38C    basis set group =>   1
Atom  39C    basis set group =>   1
Atom  40C    basis set group =>   1
Atom  41C    basis set group =>   1
Atom  42C    basis set group =>   1
Atom  43C    basis set group =>   1
Atom  44C    basis set group =>   1
Atom  45C    basis set group =>   1
Atom  46C    basis set group =>   1
Atom  47C    basis set group =>   1
Atom  48C    basis set group =>   1
Atom  49C    basis set group =>   1
Atom  50C    basis set group =>   1
Atom  51C    basis set group =>   1
Atom  52C    basis set group =>   1
Atom  53C    basis set group =>   1
Atom  54C    basis set group =>   1
Atom  55C    basis set group =>   1
Atom  56S    basis set group =>   5
Atom  57C    basis set group =>   1
Atom  58C    basis set group =>   1
Atom  59C    basis set group =>   1
Atom  60C    basis set group =>   1
Atom  61C    basis set group =>   1
Atom  62C    basis set group =>   1
Atom  63C    basis set group =>   1
Atom  64S    basis set group =>   5
Atom  65C    basis set group =>   1
Atom  66C    basis set group =>   1
Atom  67C    basis set group =>   1
Atom  68C    basis set group =>   1
Atom  69C    basis set group =>   1
Atom  70C    basis set group =>   1
Atom  71C    basis set group =>   1
Atom  72C    basis set group =>   1
Atom  73H    basis set group =>   6
Atom  74H    basis set group =>   6
Atom  75H    basis set group =>   6
Atom  76H    basis set group =>   6
Atom  77H    basis set group =>   6
Atom  78H    basis set group =>   6
Atom  79H    basis set group =>   6
Atom  80H    basis set group =>   6
Atom  81H    basis set group =>   6
Atom  82H    basis set group =>   6
Atom  83H    basis set group =>   6
Atom  84H    basis set group =>   6
Atom  85H    basis set group =>   6
Atom  86H    basis set group =>   6
Atom  87H    basis set group =>   6
Atom  88H    basis set group =>   6
Atom  89H    basis set group =>   6
Atom  90H    basis set group =>   6
Atom  91H    basis set group =>   6
Atom  92H    basis set group =>   6
Atom  93H    basis set group =>   6
Atom  94H    basis set group =>   6
Atom  95H    basis set group =>   6
Atom  96H    basis set group =>   6
Atom  97H    basis set group =>   6
Atom  98H    basis set group =>   6
Atom  99H    basis set group =>   6
Atom 100H    basis set group =>   6
Atom 101H    basis set group =>   6
Atom 102H    basis set group =>   6
Atom 103H    basis set group =>   6
Atom 104H    basis set group =>   6
Atom 105H    basis set group =>   6
Atom 106H    basis set group =>   6
Atom 107H    basis set group =>   6
Atom 108H    basis set group =>   6
Atom 109H    basis set group =>   6
Atom 110H    basis set group =>   6
Atom 111H    basis set group =>   6
Atom 112H    basis set group =>   6
Atom 113H    basis set group =>   6
Atom 114H    basis set group =>   6
------------------------------------------------------------------------------
                           ORCA GTO INTEGRAL CALCULATION
------------------------------------------------------------------------------

                         BASIS SET STATISTICS AND STARTUP INFO

 # of primitive gaussian shells          ... 1098
 # of primitive gaussian functions       ... 2070
 # of contracted shells                  ...  568
 # of contracted basis functions         ... 1240
 Highest angular momentum                ...    2
 Maximum contraction depth               ...    5
 Integral package used                   ... LIBINT
 Integral threshhold            Thresh   ...  2.500e-11
 Primitive cut-off              TCut     ...  2.500e-12


------------------------------ INTEGRAL EVALUATION ----------------------------


 * One electron integrals 
 Pre-screening matrix                    ... done
 Shell pair data                         ... done (   0.020 sec)

-------------------------------------------------------------------------------
                                 ORCA SCF
-------------------------------------------------------------------------------

------------
SCF SETTINGS
------------
Hamiltonian:
 Ab initio Hamiltonian  Method          .... Hartree-Fock(GTOs)


General Settings:
 Integral files         IntName         .... F-2F
 Hartree-Fock type      HFTyp           .... RHF
 Total Charge           Charge          ....    0
 Multiplicity           Mult            ....    1
 Number of Electrons    NEL             ....  520
 Basis Dimension        Dim             .... 1240
 Nuclear Repulsion      ENuc            ....  10381.3133324639 Eh

Convergence Acceleration:
 DIIS                   CNVDIIS         .... on
   Start iteration      DIISMaxIt       ....    12
   Startup error        DIISStart       ....  0.200000
   # of expansion vecs  DIISMaxEq       ....     5
   Bias factor          DIISBfac        ....   1.050
   Max. coefficient     DIISMaxC        ....  10.000
 Newton-Raphson         CNVNR           .... off
 SOSCF                  CNVSOSCF        .... on
   Start iteration      SOSCFMaxIt      ....   150
   Startup grad/error   SOSCFStart      ....  0.003300
 Level Shifting         CNVShift        .... on
   Level shift para.    LevelShift      ....    0.2500
   Turn off err/grad.   ShiftErr        ....    0.0010
 Zerner damping         CNVZerner       .... off
 Static damping         CNVDamp         .... on
   Fraction old density DampFac         ....    0.7000
   Max. Damping (<1)    DampMax         ....    0.9800
   Min. Damping (>=0)   DampMin         ....    0.0000
   Turn off err/grad.   DampErr         ....    0.1000
 Fernandez-Rico         CNVRico         .... off

SCF Procedure:
 Maximum # iterations   MaxIter         ....   125
 SCF integral mode      SCFMode         .... Direct
   Integral package                     .... LIBINT
 Reset frequency        DirectResetFreq ....    20
 Integral Threshold     Thresh          ....  2.500e-11 Eh
 Primitive CutOff       TCut            ....  2.500e-12 Eh

Convergence Tolerance:
 Convergence Check Mode ConvCheckMode   .... Total+1el-Energy
 Convergence forced     ConvForced      .... 1
 Energy Change          TolE            ....  1.000e-08 Eh
 1-El. energy change                    ....  1.000e-05 Eh
 Orbital Gradient       TolG            ....  1.000e-05
 Orbital Rotation angle TolX            ....  1.000e-05
 DIIS Error             TolErr          ....  5.000e-07


Diagonalization of the overlap matrix:
Smallest eigenvalue                        ... 2.047e-04
Time for diagonalization                   ...    0.411 sec
Threshold for overlap eigenvalues          ... 1.000e-08
Number of eigenvalues below threshold      ... 0
Time for construction of square roots      ...    0.161 sec
Total time needed                          ...    0.578 sec

-------------------
DFT GRID GENERATION
-------------------

General Integration Accuracy     IntAcc      ...  4.340
Radial Grid Type                 RadialGrid  ... Gauss-Chebyshev
Angular Grid (max. acc.)         AngularGrid ... Lebedev-110
Angular grid pruning method      GridPruning ... 3 (G Style)
Weight generation scheme         WeightScheme... Becke
Basis function cutoff            BFCut       ...    1.0000e-11
Integration weight cutoff        WCut        ...    1.0000e-14
Grids for H and He will be reduced by one unit

# of grid points (after initial pruning)     ... 155176 (   0.3 sec)
# of grid points (after weights+screening)   ... 134715 (   7.7 sec)
nearest neighbour list constructed           ...    0.0 sec
Grid point re-assignment to atoms done       ...    0.0 sec
Grid point division into batches done        ...    0.1 sec
Reduced shell lists constructed in    2.4 sec

Total number of grid points                  ...   134715
Total number of batches                      ...     2164
Average number of points per batch           ...       62
Average number of grid points per atom       ...     1171
Average number of shells per batch           ...   116.56 (20.52%)
Average number of basis functions per batch  ...   235.22 (18.97%)
Average number of large shells per batch     ...    69.31 (59.46%)
Average number of large basis fcns per batch ...   142.38 (60.53%)
Maximum spatial batch extension              ...  22.44, 20.78, 25.60 au
Average spatial batch extension              ...   3.11,  3.09,  3.58 au

Time for grid setup =   10.433 sec

------------------------------
INITIAL GUESS: MODEL POTENTIAL
------------------------------
Loading Hartree-Fock densities                     ... done
Calculating cut-offs                               ... done
Setting up the integral package                    ... done
Initializing the effective Hamiltonian             ... done
Starting the Coulomb interaction                   ... done (  10.6 sec)
Reading the grid                                   ... done
Mapping shells                                     ... done
Starting the XC term evaluation                    ... done (   2.4 sec)
Transforming the Hamiltonian                       ... done (   0.2 sec)
Diagonalizing the Hamiltonian                      ... done (   0.3 sec)
Back transforming the eigenvectors                 ... done (   0.1 sec)
Now organizing SCF variables                       ... done
                      ------------------
                      INITIAL GUESS DONE (  24.2 sec)
                      ------------------
--------------
SCF ITERATIONS
--------------
ITER       Energy         Delta-E        Max-DP      RMS-DP      [F,P]     Damp
               ***  Starting incremental Fock matrix formation  ***
  0  -3889.7396794273   0.000000000000 0.13861869  0.00137099  0.2368700 0.7000
  1  -3890.5260745026  -0.786395075278 0.09897197  0.00105601  0.1442526 0.7000
                               ***Turning on DIIS***
  2  -3891.0027836415  -0.476709138951 0.21205661  0.00245729  0.0828447 0.0000
  3  -3888.0366577427   2.966125898853 0.06551109  0.00050940  0.0485918 0.0000
  4  -3892.2977999267  -4.261142184081 0.01398788  0.00020076  0.0160322 0.0000
  5  -3892.2067037699   0.091096156824 0.00696137  0.00009547  0.0085714 0.0000
  6  -3891.9804118835   0.226291886414 0.00538644  0.00005471  0.0034367 0.0000
                      *** Initiating the SOSCF procedure ***
                           *** Shutting down DIIS ***
                      *** Re-Reading the Fockian *** 
                      *** Removing any level shift *** 
ITER      Energy       Delta-E        Grad      Rot      Max-DP    RMS-DP
  7  -3892.05525221  -0.0748403232  0.002689  0.002689  0.004238  0.000032
               *** Restarting incremental Fock matrix formation ***
  8  -3892.03221809   0.0230341186  0.001432  0.004217  0.003180  0.000021
  9  -3892.03240014  -0.0001820545  0.000647  0.004892  0.004816  0.000031
 10  -3892.03248913  -0.0000889870  0.000219  0.000748  0.000816  0.000007
 11  -3892.03249556  -0.0000064262  0.000142  0.000585  0.000272  0.000003
 12  -3892.03249756  -0.0000020070  0.000042  0.000272  0.000160  0.000001
 13  -3892.03249797  -0.0000004119  0.000026  0.000168  0.000127  0.000001
 14  -3892.03249810  -0.0000001287  0.000017  0.000127  0.000047  0.000001
 15  -3892.03249814  -0.0000000379  0.000005  0.000037  0.000024  0.000000
                  ***Gradient check signals convergence***
              ***Rediagonalizing the Fockian in SOSCF/NRSCF***

               *****************************************************
               *                     SUCCESS                       *
               *           SCF CONVERGED AFTER  16 CYCLES          *
               *****************************************************


----------------
TOTAL SCF ENERGY
----------------

Total Energy       :        -3892.03249813 Eh         -105907.58851 eV

Components:
Nuclear Repulsion  :        10381.31333246 Eh          282489.89729 eV
Electronic Energy  :       -14273.34583059 Eh         -388397.48580 eV
One Electron Energy:       -26000.99939761 Eh         -707523.16339 eV
Two Electron Energy:        11727.65356702 Eh          319125.67759 eV

Virial components:
Potential Energy   :        -7769.26535341 Eh         -211412.45827 eV
Kinetic Energy     :         3877.23285528 Eh          105504.86976 eV
Virial Ratio       :            2.00381706


---------------
SCF CONVERGENCE
---------------

  Last Energy change         ...    1.5651e-08  Tolerance :   1.0000e-08
  Last MAX-Density change    ...    1.6130e-05  Tolerance :   1.0000e-07
  Last RMS-Density change    ...    1.1307e-07  Tolerance :   5.0000e-09
  Last Orbital Gradient      ...    2.4499e-06  Tolerance :   1.0000e-05
  Last Orbital Rotation      ...    1.2969e-05  Tolerance :   1.0000e-05

             **** THE GBW FILE WAS UPDATED (F-2F.gbw) ****
             **** DENSITY FILE WAS UPDATED (F-2F.scfp) ****
             **** ENERGY FILE WAS UPDATED (F-2F.en.tmp) ****
             **** THE GBW FILE WAS UPDATED (F-2F.gbw) ****
             **** DENSITY FILE WAS UPDATED (F-2F.scfp) ****
----------------
ORBITAL ENERGIES
----------------

  NO   OCC          E(Eh)            E(eV) 
   0   2.0000     -91.986574     -2503.0819 
   1   2.0000     -91.980948     -2502.9288 
   2   2.0000     -26.337436      -716.6781 
   3   2.0000     -26.337080      -716.6684 
   4   2.0000     -26.335541      -716.6265 
   5   2.0000     -26.334036      -716.5855 
   6   2.0000     -20.569666      -559.7291 
   7   2.0000     -20.567816      -559.6787 
   8   2.0000     -15.599004      -424.4705 
   9   2.0000     -15.598636      -424.4605 
  10   2.0000     -15.598312      -424.4517 
  11   2.0000     -15.593634      -424.3244 
  12   2.0000     -11.379420      -309.6498 
  13   2.0000     -11.378893      -309.6354 
  14   2.0000     -11.378302      -309.6193 
  15   2.0000     -11.377081      -309.5861 
  16   2.0000     -11.368518      -309.3531 
  17   2.0000     -11.367601      -309.3281 
  18   2.0000     -11.353161      -308.9352 
  19   2.0000     -11.350920      -308.8742 
  20   2.0000     -11.331479      -308.3452 
  21   2.0000     -11.326797      -308.2178 
  22   2.0000     -11.326242      -308.2027 
  23   2.0000     -11.324761      -308.1624 
  24   2.0000     -11.312236      -307.8216 
  25   2.0000     -11.312085      -307.8175 
  26   2.0000     -11.310643      -307.7782 
  27   2.0000     -11.310269      -307.7681 
  28   2.0000     -11.308675      -307.7247 
  29   2.0000     -11.307653      -307.6969 
  30   2.0000     -11.306436      -307.6638 
  31   2.0000     -11.306254      -307.6588 
  32   2.0000     -11.303784      -307.5916 
  33   2.0000     -11.302013      -307.5434 
  34   2.0000     -11.299514      -307.4754 
  35   2.0000     -11.298784      -307.4556 
  36   2.0000     -11.298460      -307.4467 
  37   2.0000     -11.298309      -307.4426 
  38   2.0000     -11.297409      -307.4181 
  39   2.0000     -11.297015      -307.4074 
  40   2.0000     -11.291979      -307.2704 
  41   2.0000     -11.290298      -307.2246 
  42   2.0000     -11.280703      -306.9635 
  43   2.0000     -11.280103      -306.9472 
  44   2.0000     -11.279602      -306.9336 
  45   2.0000     -11.279530      -306.9316 
  46   2.0000     -11.278146      -306.8939 
  47   2.0000     -11.277481      -306.8759 
  48   2.0000     -11.276575      -306.8512 
  49   2.0000     -11.275752      -306.8288 
  50   2.0000     -11.275040      -306.8094 
  51   2.0000     -11.274943      -306.8068 
  52   2.0000     -11.274843      -306.8041 
  53   2.0000     -11.274463      -306.7937 
  54   2.0000     -11.272084      -306.7290 
  55   2.0000     -11.271968      -306.7258 
  56   2.0000     -11.271388      -306.7100 
  57   2.0000     -11.268601      -306.6342 
  58   2.0000     -11.267330      -306.5996 
  59   2.0000     -11.267285      -306.5984 
  60   2.0000     -11.265094      -306.5388 
  61   2.0000     -11.254722      -306.2565 
  62   2.0000     -11.254604      -306.2534 
  63   2.0000     -11.254192      -306.2421 
  64   2.0000     -11.252931      -306.2078 
  65   2.0000     -11.251703      -306.1744 
  66   2.0000     -11.249075      -306.1029 
  67   2.0000     -11.244224      -305.9709 
  68   2.0000     -11.242149      -305.9144 
  69   2.0000     -11.240306      -305.8643 
  70   2.0000     -11.240014      -305.8563 
  71   2.0000     -11.237745      -305.7946 
  72   2.0000     -11.235501      -305.7335 
  73   2.0000      -9.021696      -245.4928 
  74   2.0000      -9.014664      -245.3015 
  75   2.0000      -6.709139      -182.5650 
  76   2.0000      -6.708104      -182.5368 
  77   2.0000      -6.706317      -182.4882 
  78   2.0000      -6.701771      -182.3645 
  79   2.0000      -6.700683      -182.3349 
  80   2.0000      -6.698938      -182.2874 
  81   2.0000      -1.650184       -44.9038 
  82   2.0000      -1.649048       -44.8729 
  83   2.0000      -1.634242       -44.4700 
  84   2.0000      -1.633031       -44.4370 
  85   2.0000      -1.398262       -38.0486 
  86   2.0000      -1.397728       -38.0341 
  87   2.0000      -1.247031       -33.9334 
  88   2.0000      -1.245653       -33.8959 
  89   2.0000      -1.236090       -33.6357 
  90   2.0000      -1.231205       -33.5028 
  91   2.0000      -1.225893       -33.3582 
  92   2.0000      -1.225299       -33.3421 
  93   2.0000      -1.223316       -33.2881 
  94   2.0000      -1.220805       -33.2198 
  95   2.0000      -1.208322       -32.8801 
  96   2.0000      -1.175308       -31.9818 
  97   2.0000      -1.168488       -31.7962 
  98   2.0000      -1.161282       -31.6001 
  99   2.0000      -1.151904       -31.3449 
 100   2.0000      -1.121246       -30.5106 
 101   2.0000      -1.105875       -30.0924 
 102   2.0000      -1.101650       -29.9774 
 103   2.0000      -1.099976       -29.9319 
 104   2.0000      -1.092968       -29.7412 
 105   2.0000      -1.086483       -29.5647 
 106   2.0000      -1.073178       -29.2027 
 107   2.0000      -1.068694       -29.0807 
 108   2.0000      -1.066972       -29.0338 
 109   2.0000      -1.047584       -28.5062 
 110   2.0000      -1.033466       -28.1221 
 111   2.0000      -1.031455       -28.0673 
 112   2.0000      -1.026753       -27.9394 
 113   2.0000      -1.025471       -27.9045 
 114   2.0000      -1.023794       -27.8588 
 115   2.0000      -1.022628       -27.8271 
 116   2.0000      -1.015907       -27.6442 
 117   2.0000      -1.013407       -27.5762 
 118   2.0000      -0.988428       -26.8965 
 119   2.0000      -0.972245       -26.4561 
 120   2.0000      -0.948408       -25.8075 
 121   2.0000      -0.942267       -25.6404 
 122   2.0000      -0.937932       -25.5224 
 123   2.0000      -0.936734       -25.4898 
 124   2.0000      -0.929127       -25.2828 
 125   2.0000      -0.921703       -25.0808 
 126   2.0000      -0.907316       -24.6893 
 127   2.0000      -0.887742       -24.1567 
 128   2.0000      -0.872135       -23.7320 
 129   2.0000      -0.863870       -23.5071 
 130   2.0000      -0.860288       -23.4096 
 131   2.0000      -0.858530       -23.3618 
 132   2.0000      -0.851521       -23.1711 
 133   2.0000      -0.850242       -23.1363 
 134   2.0000      -0.846635       -23.0381 
 135   2.0000      -0.839595       -22.8465 
 136   2.0000      -0.827531       -22.5183 
 137   2.0000      -0.825478       -22.4624 
 138   2.0000      -0.814869       -22.1737 
 139   2.0000      -0.806493       -21.9458 
 140   2.0000      -0.802529       -21.8379 
 141   2.0000      -0.797843       -21.7104 
 142   2.0000      -0.785253       -21.3678 
 143   2.0000      -0.784964       -21.3600 
 144   2.0000      -0.782826       -21.3018 
 145   2.0000      -0.778873       -21.1942 
 146   2.0000      -0.775857       -21.1121 
 147   2.0000      -0.771640       -20.9974 
 148   2.0000      -0.758889       -20.6504 
 149   2.0000      -0.753162       -20.4946 
 150   2.0000      -0.749717       -20.4008 
 151   2.0000      -0.744854       -20.2685 
 152   2.0000      -0.743743       -20.2383 
 153   2.0000      -0.742862       -20.2143 
 154   2.0000      -0.732701       -19.9378 
 155   2.0000      -0.728353       -19.8195 
 156   2.0000      -0.722557       -19.6618 
 157   2.0000      -0.716533       -19.4978 
 158   2.0000      -0.715513       -19.4701 
 159   2.0000      -0.712241       -19.3811 
 160   2.0000      -0.710682       -19.3386 
 161   2.0000      -0.699490       -19.0341 
 162   2.0000      -0.697064       -18.9681 
 163   2.0000      -0.687544       -18.7090 
 164   2.0000      -0.678732       -18.4692 
 165   2.0000      -0.674556       -18.3556 
 166   2.0000      -0.671718       -18.2784 
 167   2.0000      -0.663176       -18.0459 
 168   2.0000      -0.662402       -18.0249 
 169   2.0000      -0.657317       -17.8865 
 170   2.0000      -0.656317       -17.8593 
 171   2.0000      -0.652165       -17.7463 
 172   2.0000      -0.649136       -17.6639 
 173   2.0000      -0.646378       -17.5888 
 174   2.0000      -0.642983       -17.4965 
 175   2.0000      -0.639755       -17.4086 
 176   2.0000      -0.638693       -17.3797 
 177   2.0000      -0.636286       -17.3142 
 178   2.0000      -0.632202       -17.2031 
 179   2.0000      -0.631193       -17.1756 
 180   2.0000      -0.629481       -17.1290 
 181   2.0000      -0.626419       -17.0457 
 182   2.0000      -0.625534       -17.0216 
 183   2.0000      -0.622393       -16.9362 
 184   2.0000      -0.620152       -16.8752 
 185   2.0000      -0.619787       -16.8653 
 186   2.0000      -0.618366       -16.8266 
 187   2.0000      -0.612435       -16.6652 
 188   2.0000      -0.609936       -16.5972 
 189   2.0000      -0.607806       -16.5392 
 190   2.0000      -0.601008       -16.3542 
 191   2.0000      -0.596087       -16.2203 
 192   2.0000      -0.589141       -16.0313 
 193   2.0000      -0.588978       -16.0269 
 194   2.0000      -0.584857       -15.9148 
 195   2.0000      -0.582771       -15.8580 
 196   2.0000      -0.581812       -15.8319 
 197   2.0000      -0.581739       -15.8299 
 198   2.0000      -0.580368       -15.7926 
 199   2.0000      -0.576842       -15.6967 
 200   2.0000      -0.573735       -15.6121 
 201   2.0000      -0.573151       -15.5962 
 202   2.0000      -0.572757       -15.5855 
 203   2.0000      -0.569922       -15.5084 
 204   2.0000      -0.566183       -15.4066 
 205   2.0000      -0.563097       -15.3227 
 206   2.0000      -0.561084       -15.2679 
 207   2.0000      -0.560401       -15.2493 
 208   2.0000      -0.558431       -15.1957 
 209   2.0000      -0.554893       -15.0994 
 210   2.0000      -0.546970       -14.8838 
 211   2.0000      -0.543813       -14.7979 
 212   2.0000      -0.542360       -14.7584 
 213   2.0000      -0.538458       -14.6522 
 214   2.0000      -0.535701       -14.5772 
 215   2.0000      -0.534210       -14.5366 
 216   2.0000      -0.532985       -14.5033 
 217   2.0000      -0.530024       -14.4227 
 218   2.0000      -0.528395       -14.3784 
 219   2.0000      -0.526561       -14.3285 
 220   2.0000      -0.522857       -14.2277 
 221   2.0000      -0.520088       -14.1523 
 222   2.0000      -0.515112       -14.0169 
 223   2.0000      -0.511094       -13.9076 
 224   2.0000      -0.509130       -13.8541 
 225   2.0000      -0.507924       -13.8213 
 226   2.0000      -0.504939       -13.7401 
 227   2.0000      -0.501018       -13.6334 
 228   2.0000      -0.497676       -13.5425 
 229   2.0000      -0.497134       -13.5277 
 230   2.0000      -0.495097       -13.4723 
 231   2.0000      -0.492470       -13.4008 
 232   2.0000      -0.487400       -13.2628 
 233   2.0000      -0.486177       -13.2295 
 234   2.0000      -0.482491       -13.1292 
 235   2.0000      -0.479967       -13.0606 
 236   2.0000      -0.478781       -13.0283 
 237   2.0000      -0.477818       -13.0021 
 238   2.0000      -0.475074       -12.9274 
 239   2.0000      -0.474803       -12.9200 
 240   2.0000      -0.474488       -12.9115 
 241   2.0000      -0.472065       -12.8455 
 242   2.0000      -0.469097       -12.7648 
 243   2.0000      -0.466513       -12.6945 
 244   2.0000      -0.450522       -12.2593 
 245   2.0000      -0.442385       -12.0379 
 246   2.0000      -0.438288       -11.9264 
 247   2.0000      -0.419723       -11.4213 
 248   2.0000      -0.397486       -10.8161 
 249   2.0000      -0.390252       -10.6193 
 250   2.0000      -0.386182       -10.5086 
 251   2.0000      -0.378163       -10.2903 
 252   2.0000      -0.374731       -10.1969 
 253   2.0000      -0.365304        -9.9404 
 254   2.0000      -0.359627        -9.7859 
 255   2.0000      -0.357113        -9.7175 
 256   2.0000      -0.354934        -9.6582 
 257   2.0000      -0.345257        -9.3949 
 258   2.0000      -0.304418        -8.2836 
 259   2.0000      -0.272088        -7.4039 
 260   0.0000      -0.031227        -0.8497 
 261   0.0000      -0.018442        -0.5018 
 262   0.0000       0.011196         0.3046 
 263   0.0000       0.017403         0.4736 
 264   0.0000       0.048317         1.3148 
 265   0.0000       0.069611         1.8942 
 266   0.0000       0.090086         2.4514 
 267   0.0000       0.092581         2.5193 
 268   0.0000       0.110826         3.0157 
 269   0.0000       0.116842         3.1794 
 270   0.0000       0.135772         3.6945 
 271   0.0000       0.136740         3.7209 
 272   0.0000       0.137986         3.7548 
 273   0.0000       0.146979         3.9995 
 274   0.0000       0.148056         4.0288 
 275   0.0000       0.152020         4.1367 
 276   0.0000       0.156014         4.2454 
 277   0.0000       0.158336         4.3085 
 278   0.0000       0.164743         4.4829 
 279   0.0000       0.166566         4.5325 
 280   0.0000       0.174173         4.7395 
 281   0.0000       0.179793         4.8924 
 282   0.0000       0.182869         4.9761 
 283   0.0000       0.184802         5.0287 
 284   0.0000       0.188125         5.1191 
 285   0.0000       0.189518         5.1570 
 286   0.0000       0.194085         5.2813 
 287   0.0000       0.196758         5.3541 
 288   0.0000       0.199345         5.4245 
 289   0.0000       0.201111         5.4725 
 290   0.0000       0.202444         5.5088 
 291   0.0000       0.203460         5.5364 
 292   0.0000       0.204182         5.5561 
 293   0.0000       0.206363         5.6154 
 294   0.0000       0.207400         5.6436 
 295   0.0000       0.212286         5.7766 
 296   0.0000       0.215213         5.8562 
 297   0.0000       0.216706         5.8969 
 298   0.0000       0.218201         5.9376 
 299   0.0000       0.222201         6.0464 
 300   0.0000       0.231990         6.3128 
 301   0.0000       0.235116         6.3978 
 302   0.0000       0.236885         6.4460 
 303   0.0000       0.238969         6.5027 
 304   0.0000       0.239920         6.5286 
 305   0.0000       0.240770         6.5517 
 306   0.0000       0.243641         6.6298 
 307   0.0000       0.245627         6.6838 
 308   0.0000       0.247124         6.7246 
 309   0.0000       0.250862         6.8263 
 310   0.0000       0.251866         6.8536 
 311   0.0000       0.252931         6.8826 
 312   0.0000       0.254513         6.9257 
 313   0.0000       0.255613         6.9556 
 314   0.0000       0.257550         7.0083 
 315   0.0000       0.259200         7.0532 
 316   0.0000       0.261880         7.1261 
 317   0.0000       0.263935         7.1820 
 318   0.0000       0.265264         7.2182 
 319   0.0000       0.267879         7.2894 
 320   0.0000       0.270916         7.3720 
 321   0.0000       0.273567         7.4441 
 322   0.0000       0.276517         7.5244 
 323   0.0000       0.277263         7.5447 
 324   0.0000       0.279372         7.6021 
 325   0.0000       0.283373         7.7110 
 326   0.0000       0.285529         7.7696 
 327   0.0000       0.290218         7.8972 
 328   0.0000       0.296416         8.0659 
 329   0.0000       0.305362         8.3093 
 330   0.0000       0.307270         8.3612 
 331   0.0000       0.313160         8.5215 
 332   0.0000       0.315873         8.5953 
 333   0.0000       0.321769         8.7558 
 334   0.0000       0.326768         8.8918 
 335   0.0000       0.327158         8.9024 
 336   0.0000       0.329435         8.9644 
 337   0.0000       0.329767         8.9734 
 338   0.0000       0.333929         9.0867 
 339   0.0000       0.334717         9.1081 
 340   0.0000       0.340641         9.2693 
 341   0.0000       0.342039         9.3074 
 342   0.0000       0.343491         9.3469 
 343   0.0000       0.348209         9.4753 
 344   0.0000       0.354120         9.6361 
 345   0.0000       0.354883         9.6569 
 346   0.0000       0.356988         9.7142 
 347   0.0000       0.358598         9.7579 
 348   0.0000       0.361200         9.8287 
 349   0.0000       0.363343         9.8871 
 350   0.0000       0.363845         9.9007 
 351   0.0000       0.366299         9.9675 
 352   0.0000       0.368346        10.0232 
 353   0.0000       0.370468        10.0809 
 354   0.0000       0.371652        10.1132 
 355   0.0000       0.376750        10.2519 
 356   0.0000       0.380548        10.3552 
 357   0.0000       0.383180        10.4269 
 358   0.0000       0.384703        10.4683 
 359   0.0000       0.387149        10.5349 
 360   0.0000       0.391740        10.6598 
 361   0.0000       0.396049        10.7770 
 362   0.0000       0.396850        10.7988 
 363   0.0000       0.402099        10.9417 
 364   0.0000       0.404115        10.9965 
 365   0.0000       0.406350        11.0574 
 366   0.0000       0.408752        11.1227 
 367   0.0000       0.412723        11.2308 
 368   0.0000       0.415476        11.3057 
 369   0.0000       0.418263        11.3815 
 370   0.0000       0.421991        11.4829 
 371   0.0000       0.423419        11.5218 
 372   0.0000       0.425096        11.5674 
 373   0.0000       0.425836        11.5876 
 374   0.0000       0.430850        11.7240 
 375   0.0000       0.432642        11.7728 
 376   0.0000       0.436432        11.8759 
 377   0.0000       0.438844        11.9416 
 378   0.0000       0.443833        12.0773 
 379   0.0000       0.444739        12.1020 
 380   0.0000       0.447841        12.1864 
 381   0.0000       0.449827        12.2404 
 382   0.0000       0.453926        12.3520 
 383   0.0000       0.460823        12.5396 
 384   0.0000       0.461229        12.5507 
 385   0.0000       0.464665        12.6442 
 386   0.0000       0.465009        12.6535 
 387   0.0000       0.467238        12.7142 
 388   0.0000       0.471406        12.8276 
 389   0.0000       0.474250        12.9050 
 390   0.0000       0.477879        13.0037 
 391   0.0000       0.482361        13.1257 
 392   0.0000       0.483686        13.1618 
 393   0.0000       0.486130        13.2283 
 394   0.0000       0.487461        13.2645 
 395   0.0000       0.489749        13.3267 
 396   0.0000       0.494492        13.4558 
 397   0.0000       0.495118        13.4728 
 398   0.0000       0.504061        13.7162 
 399   0.0000       0.504937        13.7400 
 400   0.0000       0.507892        13.8204 
 401   0.0000       0.518162        14.0999 
 402   0.0000       0.522634        14.2216 
 403   0.0000       0.532828        14.4990 
 404   0.0000       0.537865        14.6360 
 405   0.0000       0.538694        14.6586 
 406   0.0000       0.544090        14.8054 
 407   0.0000       0.548821        14.9342 
 408   0.0000       0.551008        14.9937 
 409   0.0000       0.555269        15.1096 
 410   0.0000       0.560708        15.2576 
 411   0.0000       0.566762        15.4224 
 412   0.0000       0.570806        15.5324 
 413   0.0000       0.572341        15.5742 
 414   0.0000       0.574883        15.6434 
 415   0.0000       0.577524        15.7152 
 416   0.0000       0.583934        15.8896 
 417   0.0000       0.586652        15.9636 
 418   0.0000       0.589823        16.0499 
 419   0.0000       0.591584        16.0978 
 420   0.0000       0.593866        16.1599 
 421   0.0000       0.599298        16.3077 
 422   0.0000       0.599896        16.3240 
 423   0.0000       0.601981        16.3807 
 424   0.0000       0.602985        16.4081 
 425   0.0000       0.608643        16.5620 
 426   0.0000       0.609741        16.5919 
 427   0.0000       0.612544        16.6682 
 428   0.0000       0.616762        16.7829 
 429   0.0000       0.619164        16.8483 
 430   0.0000       0.624374        16.9901 
 431   0.0000       0.624680        16.9984 
 432   0.0000       0.629418        17.1273 
 433   0.0000       0.631503        17.1841 
 434   0.0000       0.632751        17.2180 
 435   0.0000       0.637648        17.3513 
 436   0.0000       0.640321        17.4240 
 437   0.0000       0.643170        17.5016 
 438   0.0000       0.645607        17.5679 
 439   0.0000       0.646411        17.5897 
 440   0.0000       0.651941        17.7402 
 441   0.0000       0.652610        17.7584 
 442   0.0000       0.653314        17.7776 
 443   0.0000       0.657960        17.9040 
 444   0.0000       0.661109        17.9897 
 445   0.0000       0.662415        18.0252 
 446   0.0000       0.664891        18.0926 
 447   0.0000       0.665103        18.0984 
 448   0.0000       0.670241        18.2382 
 449   0.0000       0.676473        18.4078 
 450   0.0000       0.678992        18.4763 
 451   0.0000       0.681279        18.5386 
 452   0.0000       0.684978        18.6392 
 453   0.0000       0.686518        18.6811 
 454   0.0000       0.687261        18.7013 
 455   0.0000       0.689389        18.7592 
 456   0.0000       0.692921        18.8553 
 457   0.0000       0.694257        18.8917 
 458   0.0000       0.696460        18.9516 
 459   0.0000       0.701213        19.0810 
 460   0.0000       0.702857        19.1257 
 461   0.0000       0.705359        19.1938 
 462   0.0000       0.706703        19.2304 
 463   0.0000       0.716505        19.4971 
 464   0.0000       0.718335        19.5469 
 465   0.0000       0.722973        19.6731 
 466   0.0000       0.723822        19.6962 
 467   0.0000       0.726465        19.7681 
 468   0.0000       0.727483        19.7958 
 469   0.0000       0.728833        19.8326 
 470   0.0000       0.729746        19.8574 
 471   0.0000       0.730500        19.8779 
 472   0.0000       0.733050        19.9473 
 473   0.0000       0.735607        20.0169 
 474   0.0000       0.741711        20.1830 
 475   0.0000       0.746683        20.3183 
 476   0.0000       0.748302        20.3623 
 477   0.0000       0.750565        20.4239 
 478   0.0000       0.753718        20.5097 
 479   0.0000       0.754542        20.5321 
 480   0.0000       0.756737        20.5919 
 481   0.0000       0.757181        20.6039 
 482   0.0000       0.760346        20.6901 
 483   0.0000       0.763323        20.7711 
 484   0.0000       0.763956        20.7883 
 485   0.0000       0.767062        20.8728 
 486   0.0000       0.769141        20.9294 
 487   0.0000       0.772717        21.0267 
 488   0.0000       0.773645        21.0520 
 489   0.0000       0.776751        21.1365 
 490   0.0000       0.782653        21.2971 
 491   0.0000       0.788322        21.4513 
 492   0.0000       0.791014        21.5246 
 493   0.0000       0.795903        21.6576 
 494   0.0000       0.797058        21.6890 
 495   0.0000       0.802846        21.8465 
 496   0.0000       0.805791        21.9267 
 497   0.0000       0.810270        22.0486 
 498   0.0000       0.813394        22.1336 
 499   0.0000       0.814037        22.1511 
 500   0.0000       0.817711        22.2511 
 501   0.0000       0.820293        22.3213 
 502   0.0000       0.820785        22.3347 
 503   0.0000       0.822610        22.3844 
 504   0.0000       0.824107        22.4251 
 505   0.0000       0.829021        22.5588 
 506   0.0000       0.830429        22.5971 
 507   0.0000       0.832704        22.6590 
 508   0.0000       0.835201        22.7270 
 509   0.0000       0.836974        22.7752 
 510   0.0000       0.839062        22.8320 
[...]

                       ****Iteration    9****
   Time for densities:     1.291
   Using LibInt in JK Direct
   Time for J+K (Direct):  1454.368
   Time for Sigma-Completion:     7.971
   Size of expansion space: 9
   Lowest Energy          :     0.105012528508
   Maximum Energy change  :     0.000009815999 (vector 2)
   Maximum residual norm  :     0.000001479377

                       ****Iteration   10****
   Time for densities:     1.292
   Using LibInt in JK Direct
   Time for J+K (Direct):  1462.576
   Time for Sigma-Completion:     7.974
   Size of expansion space: 12
   Lowest Energy          :     0.105012519342
   Maximum Energy change  :     0.000004699077 (vector 2)
   Maximum residual norm  :     0.000000831168

                       ****Iteration   11****
   Time for densities:     1.292
   Using LibInt in JK Direct
   Time for J+K (Direct):  1466.867
   Time for Sigma-Completion:     7.946
   Size of expansion space: 15
   Lowest Energy          :     0.105012517107
   Maximum Energy change  :     0.000002296895 (vector 2)
   Maximum residual norm  :     0.000000435428

                       ****Iteration   12****
   Time for densities:     1.291
   Using LibInt in JK Direct
   Time for J+K (Direct):  1463.793
   Time for Sigma-Completion:     7.944
   Size of expansion space: 18
   Lowest Energy          :     0.105012516565
   Maximum Energy change  :     0.000001843695 (vector 2)
   Maximum residual norm  :     0.000000352051

                       ****Iteration   13****
   Time for densities:     1.292
   Using LibInt in JK Direct
   Time for J+K (Direct):  1467.365
   Time for Sigma-Completion:     7.957
   Size of expansion space: 21
   Lowest Energy          :     0.105012516468
   Maximum Energy change  :     0.000001541064 (vector 2)
   Maximum residual norm  :     0.000000327675

                       ****Iteration   14****
   Time for densities:     1.291
   Using LibInt in JK Direct
   Time for J+K (Direct):  1459.335
   Time for Sigma-Completion:     7.963
   Size of expansion space: 24
   Lowest Energy          :     0.105012516454
   Maximum Energy change  :     0.000000850675 (vector 2)
   Maximum residual norm  :     0.000000090801

      *** CONVERGENCE OF RESIDUAL NORM REACHED ***

Storing the converged CI vectors               ... F-2F.cis1

                 *** DAVIDSON DONE ***

Total time for solving the CIS problem: 27238.485sec

-----------------------------
CIS-EXCITED STATES (SINGLETS)
-----------------------------

the weight of the individual excitations are printed if larger than 1.0e-02

STATE  1:  E=   0.105013 au      2.858 eV    23047.6 cm**-1
   257a -> 260a  :     0.010969 (c=  0.10473287)
   257a -> 264a  :     0.015063 (c= -0.12273328)
   258a -> 261a  :     0.219896 (c=  0.46893051)
   258a -> 263a  :     0.015742 (c= -0.12546839)
   259a -> 260a  :     0.608789 (c= -0.78024908)
   259a -> 262a  :     0.023708 (c=  0.15397301)
   259a -> 264a  :     0.013374 (c= -0.11564442)

STATE  2:  E=   0.121568 au      3.308 eV    26681.1 cm**-1
   257a -> 261a  :     0.061215 (c= -0.24741761)
   258a -> 260a  :     0.397575 (c= -0.63053552)
   259a -> 261a  :     0.391281 (c=  0.62552478)
   259a -> 263a  :     0.022646 (c= -0.15048472)
   259a -> 265a  :     0.011500 (c=  0.10723763)

STATE  3:  E=   0.159152 au      4.331 eV    34929.9 cm**-1
   248a -> 261a  :     0.015817 (c=  0.12576583)
   250a -> 261a  :     0.011755 (c=  0.10841817)
   253a -> 260a  :     0.011059 (c= -0.10516002)
   257a -> 260a  :     0.130042 (c= -0.36061337)
   257a -> 262a  :     0.022742 (c= -0.15080402)
   258a -> 261a  :     0.148634 (c= -0.38553053)
   258a -> 262a  :     0.021869 (c= -0.14788271)
   258a -> 263a  :     0.077624 (c= -0.27861151)
   259a -> 262a  :     0.302585 (c=  0.55007711)
   259a -> 264a  :     0.067147 (c= -0.25912827)
   259a -> 267a  :     0.012088 (c=  0.10994557)


----------------------
CIS-EXCITATION SPECTRA
----------------------

Center of mass = ( 19.2323,  9.6385, -1.0285)
Calculating the Dipole integrals                  ... done
Transforming integrals                            ... done
Calculating the Linear Momentum integrals         ... done
Transforming integrals                            ... done
Calculating angular momentum integrals            ... done
Transforming integrals                            ... done

-----------------------------------------------------------------------------
         ABSORPTION SPECTRUM VIA TRANSITION ELECTRIC DIPOLE MOMENTS
-----------------------------------------------------------------------------
State   Energy    Wavelength  fosc         T2        TX        TY        TZ  
        (cm-1)      (nm)                 (au**2)    (au)      (au)      (au) 
-----------------------------------------------------------------------------
   1   23047.6    433.9   3.243514579  46.33040   4.42946   4.92479  -1.56742
   2   26681.1    374.8   0.060412214   0.74541   0.36761   0.68730  -0.37133
   3   34929.9    286.3   0.080644439   0.76007   0.14872   0.74998   0.41890

-----------------------------------------------------------------------------
         ABSORPTION SPECTRUM VIA TRANSITION VELOCITY DIPOLE MOMENTS
-----------------------------------------------------------------------------
State   Energy    Wavelength   fosc        P2         PX        PY        PZ  
        (cm-1)      (nm)                 (au**2)     (au)      (au)      (au) 
-----------------------------------------------------------------------------
   1   23047.6    433.9   2.166963692   0.34134  -0.39055  -0.41823   0.11785
   2   26681.1    374.8   0.055287154   0.01008  -0.07837  -0.03582   0.05154
   3   34929.9    286.3   0.003070963   0.00073  -0.01911  -0.00538  -0.01842

-------------------------------------------------------------------
                             CD SPECTRUM
-------------------------------------------------------------------
State  Energy     Wavelength     R         MX        MY        MZ   
       (cm-1)       (nm)     (1e40*cgs)   (au)      (au)      (au)  
-------------------------------------------------------------------
   1   23047.6    433.9    169.01985   0.37065  -0.30145  -0.12842
   2   26681.1    374.8    -123.39115   0.36620  -0.04756   0.97933
   3   34929.9    286.3     -8.55800   0.25046  -0.07020  -0.00656

Total run time:    27288.155 sec

           *** ORCA-CIS/TD-DFT FINISHED WITHOUT ERROR ***

-----------------------
CIS/TD-DFT TOTAL ENERGY
-----------------------

    E(SCF)  =  -3892.032498126 Eh
    DE(CIS) =      0.105012516 Eh (Root  1)
    ----------------------------- ---------
    E(tot)  =  -3891.927485609 Eh


-------------------------   --------------------
FINAL SINGLE POINT ENERGY     -3891.927485609165
-------------------------   --------------------

------------------------------------------------------------------------------
                         ORCA SCF GRADIENT CALCULATION
------------------------------------------------------------------------------


------------
CIS GRADIENT
------------

Reference wavefunction             ... RHF
State of interest                  ... 1
Basis dimension                    ... 1240
DFT-XC contribution needed         ... NO
RI-approximation                   ... OFF
CIS-vectors being read from        ... F-2F.cis

 => Number of Vectors found: 3
 => Orbital Window: 81...259 -> 260...1239

Reading the CIS file                     ... done
Norm of the CI vector                    ... 1.000000000
Making the CIS (pseudo)densities         ... done
Making operators G(D) and Q(T)           ... done
Transforming the Fock operators          ... done
Making the frozen-core relaxed density   ... done
Constructing the G(H) operator           ... done
Transforming the G(H) operator           ... done
Calculating the CIS Lagrangian           ... done
Solving the Z-vector equations           ... done
Finalizing the relaxed density           ... done
Storing the relaxed density              ... done
Constructing the G(Z) operator           ... done
Transforming the G(Z) operator           ... done
Making the W-matrix                      ... done
Finalizing the W-matrix                  ... done
Transforming the W-matrix                ... done
Nuclear repulsion gradient               ... done
One-Electron gradient                    ... done
Prescreening matrices                    ... done
Two-Electron gradient (4-center)         ... done
                 ---------------------------
                 EXCITED STATE GRADIENT DONE
                 ---------------------------


------------------
CARTESIAN GRADIENT
------------------

   1   C   :   -0.008974478   -0.040407548    0.011717034
   2   O   :    0.011476204    0.049555511   -0.014055488
   3   C   :    0.006407901    0.009628474   -0.004542882
   4   C   :    0.002182054    0.001076940   -0.000939134
   5   C   :    0.005123525    0.004775041   -0.003022858
   6   F   :   -0.018274804    0.008737426    0.003502247
   7   C   :    0.006323282   -0.004820607   -0.001192005
   8   F   :   -0.017078867   -0.009281110    0.009844935
   9   C   :    0.003722775   -0.001182461   -0.001490957
  10   C   :    0.013228218   -0.013702517   -0.001712243
  11   C   :   -0.011889280    0.012167542    0.002129463
  12   C   :    0.005847989   -0.017470607    0.000891212
  13   C   :   -0.067474951    0.023051742    0.021891681
  14   N   :    0.064124990   -0.019419093   -0.021331463
  15   C   :    0.039337353    0.058657058   -0.026070111
  16   N   :   -0.037851171   -0.054644743    0.024817616
  17   C   :    0.002335944   -0.002330928   -0.000573421
  18   C   :    0.032084910   -0.015935203   -0.013899396
  19   O   :   -0.037811285    0.024669683    0.017772989
  20   C   :   -0.011685959    0.001904364    0.002484835
  21   C   :   -0.002516777    0.000246234    0.000604546
  22   C   :   -0.007917104    0.000833882    0.001499679
  23   F   :    0.010789351    0.015510411    0.008846971
  24   C   :   -0.002079676   -0.007111632   -0.004486907
  25   F   :    0.019684300    0.003165184    0.000136365
  26   C   :   -0.002058132   -0.002601843   -0.002175196
  27   C   :   -0.002756348   -0.015950548   -0.009359500
  28   C   :    0.004774299    0.008895376    0.010950084
  29   C   :    0.003031008   -0.010168278   -0.012085198
  30   C   :    0.047514641    0.038363789    0.044096773
  31   N   :   -0.045736677   -0.038549039   -0.036835194
  32   C   :   -0.069572703    0.014648025    0.019142777
  33   N   :    0.066344020   -0.012434926   -0.016922470
  34   C   :   -0.006396492   -0.006508801   -0.004024580
  35   C   :    0.001701308    0.010815522   -0.000378581
  36   C   :   -0.005014625   -0.009392037    0.002506417
  37   C   :    0.003273910    0.011899729   -0.001048321
  38   C   :   -0.002002259   -0.008822220    0.000451678
  39   C   :    0.005185420    0.009931615   -0.001088254
  40   C   :   -0.003608444   -0.010544432    0.001969877
  41   C   :    0.002035065   -0.002792572   -0.003570946
  42   C   :    0.004361184   -0.003308853   -0.002237673
  43   C   :   -0.000468956    0.000940969    0.006397107
  44   C   :   -0.005569388   -0.003421788   -0.000329644
  45   C   :    0.005319221    0.000938033   -0.004219280
  46   C   :   -0.006735140   -0.010414570    0.001098552
  47   C   :    0.007014338    0.005227351   -0.002188893
  48   C   :   -0.009760382   -0.008004296    0.003236509
  49   C   :    0.005964394    0.010068385   -0.003746301
  50   C   :   -0.011873161   -0.008759239    0.001817417
  51   C   :    0.010146466    0.008160297   -0.003862998
  52   C   :   -0.006352493    0.006620156    0.000978906
  53   C   :    0.009581240    0.001421198   -0.002996390
  54   C   :    0.002235770    0.010535855   -0.000954250
  55   C   :    0.004233548   -0.010020619    0.000320018
  56   C   :   -0.004382343    0.002831787    0.001981398
  57   S   :   -0.003879416    0.001230759    0.001451937
  58   C   :    0.003921693   -0.002731898   -0.003349893
  59   C   :    0.000532158    0.006931415   -0.003686222
  60   C   :   -0.003004501    0.003065301    0.002096147
  61   C   :    0.010342362   -0.004688018   -0.002931325
  62   C   :   -0.006361373   -0.000479735    0.002041377
  63   C   :    0.000154422   -0.001947944   -0.000398091
  64   C   :   -0.002093277   -0.004536299    0.000534115
  65   S   :   -0.008499020    0.002825068    0.002503252
  66   C   :   -0.000883970   -0.005762014    0.004001819
  67   C   :    0.003207329    0.004333076   -0.004788829
  68   C   :   -0.004010987    0.003977758    0.002117485
  69   C   :   -0.000738522   -0.005656680    0.004068428
  70   C   :    0.001242522   -0.001643179   -0.006455069
  71   C   :    0.000574726    0.007023385    0.001415652
  72   C   :   -0.001457305    0.006345162    0.002216595
  73   C   :   -0.006786970   -0.001218280    0.000769516
  74   H   :   -0.000403081    0.007769522   -0.002490765
  75   H   :    0.001403979   -0.008623753    0.002171491
  76   H   :   -0.004591059    0.005566892    0.003455269
  77   H   :    0.004711831   -0.006569200   -0.004458963
  78   H   :    0.007448202   -0.002462550   -0.002822879
  79   H   :   -0.007493371    0.002382478    0.002046625
  80   H   :    0.000341103    0.006984632    0.001603765
  81   H   :   -0.005701030   -0.002386102    0.004706834
  82   H   :    0.006295541    0.001881921   -0.003111532
  83   H   :   -0.004712781    0.002946118   -0.003510372
  84   H   :   -0.000283363   -0.007461515   -0.000366694
  85   H   :    0.002648500    0.007368553   -0.000940728
  86   H   :    0.006098945   -0.003109422    0.001659873
  87   H   :   -0.005542218    0.002674571   -0.003102183
  88   H   :    0.001218659    0.002548901    0.006325627
  89   H   :   -0.001859809   -0.007710329   -0.000224017
  90   H   :    0.005264440   -0.006812388   -0.000735840
  91   H   :   -0.004534823    0.006329813    0.001431191
  92   H   :    0.004626580   -0.009690306    0.000052396
  93   H   :   -0.005941580    0.007004535    0.004133550
  94   H   :    0.008967641   -0.000024470   -0.001537597
  95   H   :    0.002422082   -0.007249889    0.000417977
  96   H   :    0.006567362    0.004665690   -0.001263024
  97   H   :   -0.004668348    0.003748025   -0.003646300
  98   H   :   -0.001606358   -0.007870448   -0.001049547
  99   H   :   -0.003752305    0.002026175    0.005827811
 100   H   :    0.005554675    0.002639783   -0.004110776
 101   H   :   -0.000348367   -0.007786604   -0.001682019
 102   H   :    0.006058896    0.003247289   -0.001763686
 103   H   :   -0.004676860    0.003785199   -0.003301552
 104   H   :    0.000273430    0.007557716   -0.000056941
 105   H   :    0.004313167   -0.002737559    0.004031640
 106   H   :   -0.006661341   -0.002039264    0.002683491
 107   H   :    0.003757631   -0.003321535    0.004709179
 108   H   :    0.002107310   -0.002108243   -0.006334352
 109   H   :   -0.006879166   -0.002640970    0.002224070
 110   H   :    0.003971254   -0.003274840    0.004983840
 111   H   :    0.003100235   -0.001287584   -0.006287176
 112   H   :   -0.006409652   -0.003478985    0.001217961
 113   H   :    0.002459803   -0.001353932   -0.006600613
 114   H   :    0.004085826   -0.003021778    0.003847040
 115   H   :    0.000565820    0.007548910    0.000514475

Difference to translation invariance:
           :    0.0000000001   -0.0000000000   -0.0000000000

Norm of the cartesian gradient     ...    0.2459954734
RMS gradient                       ...    0.0132439511
MAX gradient                       ...    0.0695727027

-------
TIMINGS
-------

Total CIS gradient time            ...    21336.299 sec

Fock matrix formation       ....    1619.609 sec  (  7.6%)
  Coulomb formation         ....    1619.609 sec  (100.0% of F)
Z-vector equation           ....   17719.178 sec  ( 83.0%)
One electron gradient       ....      15.122 sec  (  0.1%)
Prescreening matrices       ....       1.109 sec  (  0.0%)
Two electron gradient       ....    1978.577 sec  (  9.3%)

                            ***************************************
                            *     ORCA property calculations      *
                            ***************************************

                                    ---------------------
                                    Active property flags
                                    ---------------------
   (+) Dipole Moment


------------------------------------------------------------------------------
                       ORCA ELECTRIC PROPERTIES CALCULATION
------------------------------------------------------------------------------

Dipole Moment Calculation                       ... on
Quadrupole Moment Calculation                   ... off
Polarizability Calculation                      ... off
GBWName                                         ... F-2F.gbw
Electron density file                           ... F-2F.scfp
The origin for moment calculation is the CENTER OF MASS  = (19.232308,  9.638548 -1.028531)

-------------
DIPOLE MOMENT
-------------
                                X             Y             Z
Electronic contribution:    -26.87899      32.70240      22.03110
Nuclear contribution   :     27.18265     -31.67482     -21.57984
                        -----------------------------------------
Total Dipole Moment    :      0.30366       1.02759       0.45126
                        -----------------------------------------
Magnitude (a.u.)       :      1.16266
Magnitude (Debye)      :      2.95524



--------------------
Rotational spectrum 
--------------------
 
Rotational constants in cm-1:     0.002732     0.000215     0.000205 
Rotational constants in MHz :    81.899464     6.441340     6.152679 

 Dipole components along the rotational axes: 
x,y,z [a.u.] :    -0.853476    -0.650868    -0.446907 
x,y,z [Debye]:    -2.169362    -1.654375    -1.135946 

 

                        *** CIS RELAXED DENSITY ***

------------------------------------------------------------------------------
                       ORCA ELECTRIC PROPERTIES CALCULATION
------------------------------------------------------------------------------

Dipole Moment Calculation                       ... on
Quadrupole Moment Calculation                   ... off
Polarizability Calculation                      ... off
GBWName                                         ... F-2F.gbw
Electron density file                           ... F-2F.cisp
The origin for moment calculation is the CENTER OF MASS  = (19.232308,  9.638548 -1.028531)

-------------
DIPOLE MOMENT
-------------
                                X             Y             Z
Electronic contribution:    -27.10414      32.37997      22.02344
Nuclear contribution   :     27.18265     -31.67482     -21.57984
                        -----------------------------------------
Total Dipole Moment    :      0.07851       0.70515       0.44360
                        -----------------------------------------
Magnitude (a.u.)       :      0.83677
Magnitude (Debye)      :      2.12691



--------------------
Rotational spectrum 
--------------------
 
Rotational constants in cm-1:     0.002732     0.000215     0.000205 
Rotational constants in MHz :    81.899464     6.441340     6.152679 

 Dipole components along the rotational axes: 
x,y,z [a.u.] :    -0.472927    -0.572843    -0.385201 
x,y,z [Debye]:    -1.202084    -1.456051    -0.979103 

 

Timings for individual modules:

Sum of individual times         ...    55544.276 sec (= 925.738 min)
GTO integral calculation        ...        3.775 sec (=   0.063 min)   0.0 %
SCF iterations                  ...     6914.642 sec (= 115.244 min)  12.4 %
CIS module                      ...    27289.031 sec (= 454.817 min)  49.1 %
SCF Gradient evaluation         ...    21336.827 sec (= 355.614 min)  38.4 %
                             ****ORCA TERMINATED NORMALLY****
TOTAL RUN TIME: 0 days 15 hours 25 minutes 46 seconds 446 msec
