
                                 *****************
                                 * O   R   C   A *
                                 *****************

           --- An Ab Initio, DFT and Semiempirical electronic structure package ---

                  #######################################################
                  #                        -***-                        #
                  #          Department of theory and spectroscopy      #
                  #               Directorship: Frank Neese             #
                  #        Max Planck Institute fuer Kohlenforschung    #
                  #                Kaiser Wilhelm Platz 1               #
                  #                 D-45470 Muelheim/Ruhr               #
                  #                      Germany                        #
                  #                                                     #
                  #                  All rights reserved                #
                  #                        -***-                        #
                  #######################################################


                         Program Version 4.2.0 -  RELEASE  -


 With contributions from (in alphabetic order):
   Daniel Aravena         : Magnetic Suceptibility
   Michael Atanasov       : Ab Initio Ligand Field Theory (pilot matlab implementation)
   Alexander A. Auer      : GIAO ZORA, VPT2
   Ute Becker             : Parallelization
   Giovanni Bistoni       : ED, misc. LED, open-shell LED, HFLED
   Martin Brehm           : Molecular dynamics
   Dmytro Bykov           : SCF Hessian
   Vijay G. Chilkuri      : MRCI spin determinant printing, contributions to CSF-ICE
   Dipayan Datta          : RHF DLPNO-CCSD density
   Achintya Kumar Dutta   : EOM-CC, STEOM-CC
   Dmitry Ganyushin       : Spin-Orbit,Spin-Spin,Magnetic field MRCI
   Miquel Garcia          : C-PCM Hessian, Gaussian charge scheme
   Yang Guo               : DLPNO-NEVPT2, CIM, IAO-localization
   Andreas Hansen         : Spin unrestricted coupled pair/coupled cluster methods
   Benjamin Helmich-Paris : CASSCF linear response (MC-RPA)
   Lee Huntington         : MR-EOM, pCC
   Robert Izsak           : Overlap fitted RIJCOSX, COSX-SCS-MP3, EOM
   Christian Kollmar      : KDIIS, OOCD, Brueckner-CCSD(T), CCSD density
   Simone Kossmann        : Meta GGA functionals, TD-DFT gradient, OOMP2, MP2 Hessian
   Martin Krupicka        : AUTO-CI
   Lucas Lang             : DCDCAS
   Dagmar Lenk            : GEPOL surface, SMD
   Dimitrios Liakos       : Extrapolation schemes; Compound Job, initial MDCI parallelization
   Dimitrios Manganas     : Further ROCIS development; embedding schemes
   Dimitrios Pantazis     : SARC Basis sets
   Taras Petrenko         : DFT Hessian,TD-DFT gradient, ASA, ECA, R-Raman, ABS, FL, XAS/XES, NRVS
   Peter Pinski           : DLPNO-MP2, DLPNO-MP2 Gradient
   Christoph Reimann      : Effective Core Potentials
   Marius Retegan         : Local ZFS, SOC
   Christoph Riplinger    : Optimizer, TS searches, QM/MM, DLPNO-CCSD(T), (RO)-DLPNO pert. Triples
   Tobias Risthaus        : Range-separated hybrids, TD-DFT gradient, RPA, STAB
   Michael Roemelt        : Original ROCIS implementation
   Masaaki Saitow         : Open-shell DLPNO-CCSD energy and density
   Barbara Sandhoefer     : DKH picture change effects
   Avijit Sen             : IP-ROCIS
   Kantharuban Sivalingam : CASSCF convergence, NEVPT2, FIC-MRCI
   Bernardo de Souza      : ESD, SOC TD-DFT
   Georgi Stoychev        : AutoAux, RI-MP2 NMR
   Willem Van den Heuvel  : Paramagnetic NMR
   Boris Wezisla          : Elementary symmetry handling
   Frank Wennmohs         : Technical directorship


 We gratefully acknowledge several colleagues who have allowed us to
 interface, adapt or use parts of their codes:
   Stefan Grimme, W. Hujo, H. Kruse,             : VdW corrections, initial TS optimization,
                  C. Bannwarth                     DFT functionals, gCP, sTDA/sTD-DF
   Ed Valeev, F. Pavosevic, A. Kumar             : LibInt (2-el integral package), F12 methods
   Garnet Chan, S. Sharma, J. Yang, R. Olivares  : DMRG
   Ulf Ekstrom                                   : XCFun DFT Library
   Mihaly Kallay                                 : mrcc  (arbitrary order and MRCC methods)
   Andreas Klamt, Michael Diedenhofen            : otool_cosmo (COSMO solvation model)
   Jiri Pittner, Ondrej Demel                    : Mk-CCSD
   Frank Weinhold                                : gennbo (NPA and NBO analysis)
   Christopher J. Cramer and Donald G. Truhlar   : smd solvation model
   Lars Goerigk                                  : TD-DFT with DH, B97 family of functionals
   V. Asgeirsson, H. Jonsson                     : NEB implementation
   FAccTs GmbH                                   : IRC, NEB, NEB-TS, Multilevel, MM, QM/MM, CI optimization
   S Lehtola, MJT Oliveira, MAL Marques          : LibXC Library


 Your calculation uses the libint2 library for the computation of 2-el integrals
 For citations please refer to: http://libint.valeyev.net

 Your ORCA version has been built with support for libXC version: 4.2.3
 For citations please refer to: https://tddft.org/programs/libxc/

 This ORCA versions uses:
   CBLAS   interface :  Fast vector & matrix operations
   LAPACKE interface :  Fast linear algebra routines
   SCALAPACK package :  Parallel linear algebra routines


----- Orbital basis set information -----
Your calculation utilizes the basis: def2-SVP
   F. Weigend and R. Ahlrichs, Phys. Chem. Chem. Phys. 7, 3297 (2005).

================================================================================
                                        WARNINGS
                       Please study these warnings very carefully!
================================================================================

INFO   : Checking CIS options ...

WARNING: CIS/ROCIS methods need fully converged wavefunctions
  ===> : Setting SCFConvForced true
         You can overwrite this default with %scf ConvForced false 


INFO   : the flag for use of LIBINT has been found!

================================================================================
                                       INPUT FILE
================================================================================
NAME = FDICTF.inp
|  1> # ORCA input file
|  2> # FDICTF.out
|  3> ! Engrad Keepdens
|  4> %maxcore 1000
|  5> %tddft
|  6>   nroots 3 
|  7>   # nroots is the number of states to be computed
|  8>   Iroot 1
|  9>   end
| 10> * xyz 0 1
| 11>    C        0.07759        -1.52869         0.93688
| 12>    O        0.48555        -1.65927         2.06911
| 13>    C        0.37228        -0.43876        -0.01512
| 14>    C        1.12046         0.70580         0.17670
| 15>    C        1.23074         1.60199        -0.87766
| 16>    C        0.59696         1.34976        -2.08554
| 17>    C       -0.15051         0.19610        -2.28561
| 18>    C       -0.25864        -0.70905        -1.24287
| 19>    C       -0.92348        -2.01126        -1.15458
| 20>    C       -1.27562        -2.77974        -2.23586
| 21>    C       -1.65469        -4.13344        -2.16044
| 22>    N       -1.94455        -5.24479        -2.16997
| 23>    C       -1.22616        -2.33334        -3.57183
| 24>    N       -1.23665        -2.02161        -4.67696
| 25>    C       -0.87739        -2.42213         0.22766
| 26>    C       -1.54716        -3.36406         0.95649
| 27>    C       -2.72105        -4.07795         0.65803
| 28>    C       -3.71448        -3.83011        -0.28565
| 29>    C       -4.72576        -4.77448        -0.24657
| 30>    C       -4.52112        -5.75173         0.71862
| 31>    S       -3.09798        -5.49733         1.62570
| 32>    C       -5.56603        -6.72237         0.67563
| 33>    C       -6.45030        -6.34224        -0.36392
| 34>    C       -5.97698        -5.06435        -1.04042
| 35>    C       -6.94934        -3.88386        -0.82271
| 36>    C       -8.26583        -3.93167        -1.58523
| 37>    C       -5.55249        -5.24516        -2.52023
| 38>    C       -6.37024        -6.21576        -3.36287
| 39>    C       -7.55397        -7.12449        -0.62586
| 40>    C       -7.75194        -8.26484         0.14853
| 41>    C       -6.87526        -8.62457         1.18974
| 42>    C       -5.76149        -7.85989         1.45313
| 43>    C       -7.33376        -9.90252         1.85141
| 44>    C       -6.23829       -10.97883         1.85679
| 45>    C       -5.76617       -11.33305         0.45126
| 46>    C       -7.88928        -9.64560         3.27302
| 47>    C       -6.90362        -9.05729         4.27362
| 48>    C       -8.51070       -10.28729         0.98196
| 49>    C       -8.76694        -9.28873         0.02484
| 50>    C       -9.82976        -9.38579        -0.86960
| 51>    C      -10.61623       -10.51469        -0.81565
| 52>    C      -10.35753       -11.50850         0.15765
| 53>    C       -9.30916       -11.40477         1.06680
| 54>    C      -11.35075       -12.51911        -0.00984
| 55>    C      -12.23553       -12.18502        -1.02663
| 56>    C      -11.82484       -10.88111        -1.66377
| 57>    C      -11.44206       -11.19661        -3.12673
| 58>    C      -10.90262       -10.02858        -3.94095
| 59>    C      -12.88910        -9.77728        -1.51570
| 60>    C      -14.20234       -10.03978        -2.24068
| 61>    C      -13.20314       -13.15835        -1.23287
| 62>    C      -13.04662       -14.25410        -0.39405
| 63>    S      -11.69216       -14.03511         0.70353
| 64>    C      -13.88910       -15.38654        -0.34416
| 65>    C      -13.63148       -16.62433         0.16211
| 66>    C      -12.39501       -17.28954         0.50915
| 67>    C      -11.18614       -17.11930        -0.11350
| 68>    C      -10.03256       -17.86849         0.19037
| 69>    N       -9.06100       -18.43832         0.41286
| 70>    C      -10.99470       -16.23986        -1.19945
| 71>    N      -10.81884       -15.57537        -2.11910
| 72>    C      -12.73586       -18.39332         1.40442
| 73>    C      -11.93971       -19.24179         2.15536
| 74>    C      -12.55546       -20.24799         2.88822
| 75>    C      -13.93287       -20.41543         2.87248
| 76>    C      -14.73962       -19.56572         2.12815
| 77>    C      -14.13369       -18.55796         1.40360
| 78>    C      -14.75357       -17.51596         0.55769
| 79>    O      -15.92350       -17.37849         0.27990
| 80>    H        1.60249         0.88447         1.12548
| 81>    H        1.81210         2.50372        -0.75752
| 82>    H        0.68559         2.06279        -2.89149
| 83>    H       -0.63788         0.02707        -3.23230
| 84>    H       -1.13090        -3.53640         1.94534
| 85>    H       -3.69909        -2.97210        -0.93372
| 86>    H       -6.41891        -2.97009        -1.10298
| 87>    H       -7.16279        -3.82362         0.24840
| 88>    H       -8.09758        -3.95390        -2.65802
| 89>    H       -8.84336        -3.03840        -1.35479
| 90>    H       -8.85695        -4.79517        -1.29592
| 91>    H       -4.51710        -5.59623        -2.52715
| 92>    H       -5.56088        -4.25943        -2.99072
| 93>    H       -6.30695        -7.22389        -2.96157
| 94>    H       -5.96461        -6.22904        -4.37245
| 95>    H       -7.41519        -5.92650        -3.42381
| 96>    H       -8.24689        -6.89094        -1.41685
| 97>    H       -5.04148        -8.12193         2.21262
| 98>    H       -6.62674       -11.87404         2.34659
| 99>    H       -5.38764       -10.62009         2.43727
|100>    H       -6.58824       -11.72138        -0.14595
|101>    H       -4.98815       -12.09115         0.49814
|102>    H       -5.36213       -10.45621        -0.05017
|103>    H       -8.26454       -10.59644         3.65777
|104>    H       -8.74235        -8.96757         3.18174
|105>    H       -6.02943        -9.69192         4.39030
|106>    H       -7.38721        -8.96986         5.24427
|107>    H       -6.58318        -8.06548         3.96672
|108>    H      -10.02149        -8.59201        -1.57412
|109>    H       -9.14120       -12.18128         1.79775
|110>    H      -12.32530       -11.60324        -3.62169
|111>    H      -10.69076       -11.98988        -3.10541
|112>    H      -11.60357        -9.19795        -3.96078
|113>    H      -10.73808       -10.35456        -4.96566
|114>    H       -9.95221        -9.68285        -3.54442
|115>    H      -12.46203        -8.83932        -1.87335
|116>    H      -13.09104        -9.65543        -0.44788
|117>    H      -14.87566        -9.19957        -2.08440
|118>    H      -14.68587       -10.93326        -1.85655
|119>    H      -14.04886       -10.15435        -3.31012
|120>    H      -13.97332       -13.13141        -1.98229
|121>    H      -14.90681       -15.23081        -0.69087
|122>    H      -10.86815       -19.12521         2.18626
|123>    H      -11.94602       -20.91372         3.48086
|124>    H      -14.37986       -21.21320         3.44640
|125>    H      -15.81256       -19.67911         2.10583
|126> *
|127> 
|128>                          ****END OF INPUT****
================================================================================

                     *******************************
                     * Energy+Gradient Calculation *
                     *******************************

---------------------------------
CARTESIAN COORDINATES (ANGSTROEM)
---------------------------------
  C      0.077590   -1.528690    0.936880
  O      0.485550   -1.659270    2.069110
  C      0.372280   -0.438760   -0.015120
  C      1.120460    0.705800    0.176700
  C      1.230740    1.601990   -0.877660
  C      0.596960    1.349760   -2.085540
  C     -0.150510    0.196100   -2.285610
  C     -0.258640   -0.709050   -1.242870
  C     -0.923480   -2.011260   -1.154580
  C     -1.275620   -2.779740   -2.235860
  C     -1.654690   -4.133440   -2.160440
  N     -1.944550   -5.244790   -2.169970
  C     -1.226160   -2.333340   -3.571830
  N     -1.236650   -2.021610   -4.676960
  C     -0.877390   -2.422130    0.227660
  C     -1.547160   -3.364060    0.956490
  C     -2.721050   -4.077950    0.658030
  C     -3.714480   -3.830110   -0.285650
  C     -4.725760   -4.774480   -0.246570
  C     -4.521120   -5.751730    0.718620
  S     -3.097980   -5.497330    1.625700
  C     -5.566030   -6.722370    0.675630
  C     -6.450300   -6.342240   -0.363920
  C     -5.976980   -5.064350   -1.040420
  C     -6.949340   -3.883860   -0.822710
  C     -8.265830   -3.931670   -1.585230
  C     -5.552490   -5.245160   -2.520230
  C     -6.370240   -6.215760   -3.362870
  C     -7.553970   -7.124490   -0.625860
  C     -7.751940   -8.264840    0.148530
  C     -6.875260   -8.624570    1.189740
  C     -5.761490   -7.859890    1.453130
  C     -7.333760   -9.902520    1.851410
  C     -6.238290  -10.978830    1.856790
  C     -5.766170  -11.333050    0.451260
  C     -7.889280   -9.645600    3.273020
  C     -6.903620   -9.057290    4.273620
  C     -8.510700  -10.287290    0.981960
  C     -8.766940   -9.288730    0.024840
  C     -9.829760   -9.385790   -0.869600
  C    -10.616230  -10.514690   -0.815650
  C    -10.357530  -11.508500    0.157650
  C     -9.309160  -11.404770    1.066800
  C    -11.350750  -12.519110   -0.009840
  C    -12.235530  -12.185020   -1.026630
  C    -11.824840  -10.881110   -1.663770
  C    -11.442060  -11.196610   -3.126730
  C    -10.902620  -10.028580   -3.940950
  C    -12.889100   -9.777280   -1.515700
  C    -14.202340  -10.039780   -2.240680
  C    -13.203140  -13.158350   -1.232870
  C    -13.046620  -14.254100   -0.394050
  S    -11.692160  -14.035110    0.703530
  C    -13.889100  -15.386540   -0.344160
  C    -13.631480  -16.624330    0.162110
  C    -12.395010  -17.289540    0.509150
  C    -11.186140  -17.119300   -0.113500
  C    -10.032560  -17.868490    0.190370
  N     -9.061000  -18.438320    0.412860
  C    -10.994700  -16.239860   -1.199450
  N    -10.818840  -15.575370   -2.119100
  C    -12.735860  -18.393320    1.404420
  C    -11.939710  -19.241790    2.155360
  C    -12.555460  -20.247990    2.888220
  C    -13.932870  -20.415430    2.872480
  C    -14.739620  -19.565720    2.128150
  C    -14.133690  -18.557960    1.403600
  C    -14.753570  -17.515960    0.557690
  O    -15.923500  -17.378490    0.279900
  H      1.602490    0.884470    1.125480
  H      1.812100    2.503720   -0.757520
  H      0.685590    2.062790   -2.891490
  H     -0.637880    0.027070   -3.232300
  H     -1.130900   -3.536400    1.945340
  H     -3.699090   -2.972100   -0.933720
  H     -6.418910   -2.970090   -1.102980
  H     -7.162790   -3.823620    0.248400
  H     -8.097580   -3.953900   -2.658020
  H     -8.843360   -3.038400   -1.354790
  H     -8.856950   -4.795170   -1.295920
  H     -4.517100   -5.596230   -2.527150
  H     -5.560880   -4.259430   -2.990720
  H     -6.306950   -7.223890   -2.961570
  H     -5.964610   -6.229040   -4.372450
  H     -7.415190   -5.926500   -3.423810
  H     -8.246890   -6.890940   -1.416850
  H     -5.041480   -8.121930    2.212620
  H     -6.626740  -11.874040    2.346590
  H     -5.387640  -10.620090    2.437270
  H     -6.588240  -11.721380   -0.145950
  H     -4.988150  -12.091150    0.498140
  H     -5.362130  -10.456210   -0.050170
  H     -8.264540  -10.596440    3.657770
  H     -8.742350   -8.967570    3.181740
  H     -6.029430   -9.691920    4.390300
  H     -7.387210   -8.969860    5.244270
  H     -6.583180   -8.065480    3.966720
  H    -10.021490   -8.592010   -1.574120
  H     -9.141200  -12.181280    1.797750
  H    -12.325300  -11.603240   -3.621690
  H    -10.690760  -11.989880   -3.105410
  H    -11.603570   -9.197950   -3.960780
  H    -10.738080  -10.354560   -4.965660
  H     -9.952210   -9.682850   -3.544420
  H    -12.462030   -8.839320   -1.873350
  H    -13.091040   -9.655430   -0.447880
  H    -14.875660   -9.199570   -2.084400
  H    -14.685870  -10.933260   -1.856550
  H    -14.048860  -10.154350   -3.310120
  H    -13.973320  -13.131410   -1.982290
  H    -14.906810  -15.230810   -0.690870
  H    -10.868150  -19.125210    2.186260
  H    -11.946020  -20.913720    3.480860
  H    -14.379860  -21.213200    3.446400
  H    -15.812560  -19.679110    2.105830

----------------------------
CARTESIAN COORDINATES (A.U.)
----------------------------
  NO LB      ZA    FRAG     MASS         X           Y           Z
   0 C     6.0000    0    12.011    0.146624   -2.888805    1.770447
   1 O     8.0000    0    15.999    0.917557   -3.135566    3.910051
   2 C     6.0000    0    12.011    0.703507   -0.829136   -0.028573
   3 C     6.0000    0    12.011    2.117363    1.333769    0.333915
   4 C     6.0000    0    12.011    2.325762    3.027322   -1.658537
   5 C     6.0000    0    12.011    1.128091    2.550677   -3.941099
   6 C     6.0000    0    12.011   -0.284423    0.370575   -4.319177
   7 C     6.0000    0    12.011   -0.488759   -1.339910   -2.348684
   8 C     6.0000    0    12.011   -1.745124   -3.800731   -2.181840
   9 C     6.0000    0    12.011   -2.410572   -5.252947   -4.225163
  10 C     6.0000    0    12.011   -3.126911   -7.811070   -4.082640
  11 N     7.0000    0    14.007   -3.674667   -9.911217   -4.100649
  12 C     6.0000    0    12.011   -2.317107   -4.409374   -6.749780
  13 N     7.0000    0    14.007   -2.336930   -3.820289   -8.838174
  14 C     6.0000    0    12.011   -1.658027   -4.577162    0.430215
  15 C     6.0000    0    12.011   -2.923709   -6.357152    1.807504
  16 C     6.0000    0    12.011   -5.142039   -7.706209    1.243496
  17 C     6.0000    0    12.011   -7.019350   -7.237859   -0.539800
  18 C     6.0000    0    12.011   -8.930392   -9.022460   -0.465950
  19 C     6.0000    0    12.011   -8.543679  -10.869194    1.357995
  20 S    16.0000    0    32.060   -5.854334  -10.388448    3.072128
  21 C     6.0000    0    12.011  -10.518272  -12.703438    1.276756
  22 C     6.0000    0    12.011  -12.189300  -11.985097   -0.687709
  23 C     6.0000    0    12.011  -11.294855   -9.570235   -1.966109
  24 C     6.0000    0    12.011  -13.132349   -7.339432   -1.554697
  25 C     6.0000    0    12.011  -15.620155   -7.429780   -2.995651
  26 C     6.0000    0    12.011  -10.492685   -9.911916   -4.762544
  27 C     6.0000    0    12.011  -12.038009  -11.746084   -6.354903
  28 C     6.0000    0    12.011  -14.274935  -13.463335   -1.182704
  29 C     6.0000    0    12.011  -14.649044  -15.618284    0.280681
  30 C     6.0000    0    12.011  -12.992358  -16.298075    2.248283
  31 C     6.0000    0    12.011  -10.887638  -14.853040    2.746018
  32 C     6.0000    0    12.011  -13.858798  -18.713051    3.498658
  33 C     6.0000    0    12.011  -11.788660  -20.746982    3.508825
  34 C     6.0000    0    12.011  -10.896482  -21.416361    0.852758
  35 C     6.0000    0    12.011  -14.908579  -18.227542    6.185111
  36 C     6.0000    0    12.011  -13.045951  -17.115798    8.075971
  37 C     6.0000    0    12.011  -16.082892  -19.440161    1.855635
  38 C     6.0000    0    12.011  -16.567116  -17.553156    0.046941
  39 C     6.0000    0    12.011  -18.575554  -17.736573   -1.643306
  40 C     6.0000    0    12.011  -20.061767  -19.869884   -1.541355
  41 C     6.0000    0    12.011  -19.572895  -21.747913    0.297915
  42 C     6.0000    0    12.011  -17.591763  -21.551892    2.015960
  43 C     6.0000    0    12.011  -21.449809  -23.657689   -0.018595
  44 C     6.0000    0    12.011  -23.121801  -23.026351   -1.940050
  45 C     6.0000    0    12.011  -22.345709  -20.562318   -3.144070
  46 C     6.0000    0    12.011  -21.622360  -21.158527   -5.908663
  47 C     6.0000    0    12.011  -20.602966  -18.951270   -7.447316
  48 C     6.0000    0    12.011  -24.356869  -18.476382   -2.864258
  49 C     6.0000    0    12.011  -26.838533  -18.972435   -4.234272
  50 C     6.0000    0    12.011  -24.950319  -24.865678   -2.329787
  51 C     6.0000    0    12.011  -24.654539  -26.936345   -0.744647
  52 S    16.0000    0    32.060  -22.094980  -26.522514    1.329479
  53 C     6.0000    0    12.011  -26.246595  -29.076347   -0.650368
  54 C     6.0000    0    12.011  -25.759764  -31.415431    0.306344
  55 C     6.0000    0    12.011  -23.423174  -32.672496    0.962154
  56 C     6.0000    0    12.011  -21.138741  -32.350789   -0.214484
  57 C     6.0000    0    12.011  -18.958791  -33.766553    0.359747
  58 N     7.0000    0    14.007  -17.122808  -34.843375    0.780192
  59 C     6.0000    0    12.011  -20.776972  -30.688888   -2.266632
  60 N     7.0000    0    14.007  -20.444645  -29.433184   -4.004519
  61 C     6.0000    0    12.011  -24.067287  -34.758337    2.653969
  62 C     6.0000    0    12.011  -22.562782  -36.361713    4.073040
  63 C     6.0000    0    12.011  -23.726381  -38.263156    5.457945
  64 C     6.0000    0    12.011  -26.329309  -38.579572    5.428201
  65 C     6.0000    0    12.011  -27.853845  -36.973852    4.021621
  66 C     6.0000    0    12.011  -26.708803  -35.069462    2.652420
  67 C     6.0000    0    12.011  -27.880207  -33.100367    1.053881
  68 O     8.0000    0    15.999  -30.091054  -32.840587    0.528934
  69 H     1.0000    0     1.008    3.028267    1.671406    2.126849
  70 H     1.0000    0     1.008    3.424373    4.731345   -1.431505
  71 H     1.0000    0     1.008    1.295577    3.898108   -5.464124
  72 H     1.0000    0     1.008   -1.205419    0.051155   -6.108162
  73 H     1.0000    0     1.008   -2.137091   -6.682827    3.676160
  74 H     1.0000    0     1.008   -6.990267   -5.616455   -1.764475
  75 H     1.0000    0     1.008  -12.129982   -5.612657   -2.084330
  76 H     1.0000    0     1.008  -13.535711   -7.225595    0.469408
  77 H     1.0000    0     1.008  -15.302209   -7.471788   -5.022930
  78 H     1.0000    0     1.008  -16.711529   -5.741744   -2.560182
  79 H     1.0000    0     1.008  -16.737210   -9.061558   -2.448934
  80 H     1.0000    0     1.008   -8.536082  -10.575342   -4.775621
  81 H     1.0000    0     1.008  -10.508540   -8.049156   -5.651642
  82 H     1.0000    0     1.008  -11.918408  -13.651174   -5.596556
  83 H     1.0000    0     1.008  -11.271479  -11.771180   -8.262733
  84 H     1.0000    0     1.008  -14.012678  -11.199462   -6.470063
  85 H     1.0000    0     1.008  -15.584364  -13.021989   -2.677458
  86 H     1.0000    0     1.008   -9.527017  -15.348223    4.181246
  87 H     1.0000    0     1.008  -12.522724  -22.438684    4.434412
  88 H     1.0000    0     1.008  -10.181164  -20.069062    4.605773
  89 H     1.0000    0     1.008  -12.449969  -22.150198   -0.275806
  90 H     1.0000    0     1.008   -9.426237  -22.848962    0.941348
  91 H     1.0000    0     1.008  -10.132957  -19.759373   -0.094808
  92 H     1.0000    0     1.008  -15.617717  -20.024370    6.912184
  93 H     1.0000    0     1.008  -16.520647  -16.946251    6.012617
  94 H     1.0000    0     1.008  -11.393971  -18.315075    8.296465
  95 H     1.0000    0     1.008  -13.959804  -16.950579    9.910234
  96 H     1.0000    0     1.008  -12.440407  -15.241548    7.496014
  97 H     1.0000    0     1.008  -18.937872  -16.236546   -2.974656
  98 H     1.0000    0     1.008  -17.274365  -23.019283    3.397255
  99 H     1.0000    0     1.008  -23.291442  -21.926946   -6.844002
 100 H     1.0000    0     1.008  -20.202609  -22.657590   -5.868374
 101 H     1.0000    0     1.008  -21.927569  -17.381606   -7.484789
 102 H     1.0000    0     1.008  -20.292030  -19.567283   -9.383737
 103 H     1.0000    0     1.008  -18.806951  -18.297935   -6.697983
 104 H     1.0000    0     1.008  -23.549824  -16.703894   -3.540118
 105 H     1.0000    0     1.008  -24.738480  -18.246118   -0.846371
 106 H     1.0000    0     1.008  -28.110923  -17.384668   -3.938945
 107 H     1.0000    0     1.008  -27.752272  -20.660867   -3.508371
 108 H     1.0000    0     1.008  -26.548498  -19.188941   -6.255220
 109 H     1.0000    0     1.008  -26.405748  -24.814769   -3.745985
 110 H     1.0000    0     1.008  -28.169788  -28.782060   -1.305555
 111 H     1.0000    0     1.008  -20.537827  -36.141409    4.131433
 112 H     1.0000    0     1.008  -22.574706  -39.521203    6.577872
 113 H     1.0000    0     1.008  -27.173997  -40.087138    6.512752
 114 H     1.0000    0     1.008  -29.881408  -37.188128    3.979442

--------------------------------
INTERNAL COORDINATES (ANGSTROEM)
--------------------------------
 C      0   0   0     0.000000000000     0.00000000     0.00000000
 O      1   0   0     1.210548334805     0.00000000     0.00000000
 C      1   2   0     1.476852599619   127.97169143     0.00000000
 C      3   1   2     1.380791736070   129.07351683   356.63028318
 C      4   3   1     1.388161807607   118.20806143   181.23082386
 C      5   4   3     1.387181010431   120.50929435     0.34171175
 C      6   5   4     1.389125912724   121.48400077   359.27854108
 C      7   6   5     1.385025388576   118.44569165     0.24622382
 C      8   7   6     1.464772417067   131.43817331   182.29029706
 C      9   8   7     1.372490629622   124.52343194    19.49136936
 C     10   9   8     1.407794704955   124.42178717   166.17261056
 N     11  10   9     1.148568005388   176.30843997   202.82728005
 C     10   9   8     1.409444959018   124.08437848   350.12072124
 N     13  10   9     1.148302203211   176.27960373   203.41624662
 C      9   8   7     1.442749410882   107.24299778   188.15740826
 C     15   9   8     1.366388358667   133.76370745   163.82993267
 C     16  15   9     1.405964094776   130.24530608   344.94445770
 C     17  16  15     1.392429449882   130.47958732   342.55772853
 C     18  17  16     1.384214283159   112.37496401   180.87257898
 C     19  18  17     1.388699689710   113.08327145   359.91130999
 S     20  19  18     1.706704703808   112.79141760     1.63223100
 C     20  19  18     1.426824115930   110.47908777   182.26584816
 C     22  20  19     1.416720315482   107.25804689     0.51108519
 C     19  18  17     1.509892025212   136.18279627   183.95978982
 C     24  19  18     1.544810102828   107.50575270   294.57034972
 C     25  24  19     1.522126297848   116.73076564   177.33455079
 C     24  19  18     1.550071499093   107.30102456    56.79290714
 C     27  24  19     1.523424298119   117.08864282   148.21281673
 C     23  22  20     1.377902425791   119.15069654   179.57654183
 C     29  23  22     1.392576789804   118.23191088   359.91875763
 C     30  29  23     1.407867806081   122.13876473     0.85735047
 C     31  30  29     1.376442300789   120.22768813   358.45214258
 C     31  30  29     1.510359441127   110.55813078   180.13989971
 C     33  31  30     1.535749550350   112.20914232   124.67030675
 C     34  33  31     1.524428969713   112.36671835   301.32932401
 C     33  31  30     1.547767860146   111.77018404   250.99724901
 C     36  33  31     1.522772028801   115.80709057   298.34832958
 C     33  31  30     1.513003310968   101.51185818     4.63378390
 C     38  33  31     1.406719483621   110.61960084   355.03961240
 C     39  38  33     1.392490542015   121.77519640   182.11579094
 C     40  39  38     1.376902637589   117.90064330   358.42945628
 C     41  40  39     1.414884057476   119.89420498     2.06331771
 C     38  33  31     1.376044238969   128.49640974   177.32351923
 C     42  41  40     1.426839668849   106.82636418   178.24775539
 C     44  42  41     1.388637346682   111.04311405   358.70551855
 C     45  44  42     1.508242335900   110.10958866     2.24381190
 C     46  45  44     1.544769477948   106.91612757   115.47244367
 C     47  46  45     1.522578012090   115.94801922   183.92041101
 C     46  45  44     1.540459263142   113.00143409   241.84531897
 C     49  46  45     1.522859661295   115.24558863   294.81199504
 C     45  44  42     1.387867190548   112.60045048   178.95693609
 C     51  45  44     1.388807245553   112.64367551   358.73724695
 S     44  42  41     1.709886997728   135.88853033   177.09575256
 C     52  51  45     1.412332084214   125.92563291   178.41880849
 C     54  52  51     1.361910959424   128.97937345   160.62272853
 C     55  54  52     1.446305350401   131.98485021   343.30973960
 C     56  55  54     1.370416490342   126.01384322   327.70757074
 C     57  56  55     1.408676488552   123.93824637   185.30159843
 N     58  57  56     1.148101416513   177.14152308   198.79062927
 C     57  56  55     1.410443685405   123.16197348     0.36754986
 N     60  57  56     1.148141899854   176.72182642   238.75970544
 C     56  55  54     1.461512019725   107.15527821   161.28260595
 C     62  56  55     1.384798558275   131.36308635   188.89847017
 C     63  62  56     1.388765740541   118.37064698   182.35036870
 C     64  63  62     1.387639077462   121.43632136     0.33381523
 C     65  64  63     1.388120958526   120.60500108   359.33253475
 C     66  65  64     1.381196613448   118.22603098     0.25845800
 C     67  66  65     1.478370367161   129.08541153   181.15618361
 O     68  67  66     1.210289837146   128.07598563   356.10177160
 H      4   3   1     1.079101189972   120.09469755     1.35556114
 H      5   4   3     1.079597175848   119.83393810   180.20702735
 H      6   5   4     1.079732587403   119.49679207   179.39046274
 H      7   6   5     1.078110668670   119.99497018   179.63904143
 H     16  15   9     1.086645197707   114.01365010   169.08455003
 H     18  17  16     1.075366326932   122.69956430   358.45131784
 H     25  24  19     1.093106980446   107.29111358    55.38992296
 H     25  24  19     1.093831062002   107.63277920   300.02811288
 H     26  25  24     1.086131032381   111.19030274   299.88569799
 H     26  25  24     1.088381728715   109.09279481   180.94547084
 H     26  25  24     1.085705015416   111.24720754    62.02191724
 H     27  24  19     1.093311704593   107.62838719    27.12139073
 H     27  24  19     1.092288819452   107.68857246   271.93915907
 H     28  27  24     1.086910028935   110.82180747   297.96339160
 H     28  27  24     1.088101020908   108.71596041   179.37580259
 H     28  27  24     1.085958348050   112.20045299    59.92637785
 H     29  23  22     1.077194926186   122.12341353   181.20341817
 H     32  31  30     1.078844021071   122.67029635   182.69201400
 H     34  33  31     1.091878375370   108.80835572   179.93937941
 H     34  33  31     1.090530531668   109.13079489    62.35675557
 H     35  34  33     1.087777117750   110.79936940   299.51747307
 H     35  34  33     1.087303299360   110.11251829   179.61360656
 H     35  34  33     1.087901076431   110.65286152    59.76182797
 H     36  33  31     1.092222200699   107.59931833   176.02156725
 H     36  33  31     1.093519613084   107.83337503    60.30354910
 H     37  36  33     1.086543885630   111.44965827   302.18263457
 H     37  36  33     1.087963563498   109.24295834   182.94011062
 H     37  36  33     1.086534159472   110.97466807    63.91680142
 H     40  39  38     1.078515420242   120.26333662   178.17596245
 H     43  38  33     1.079567619096   122.38403936   358.12936521
 H     47  46  45     1.091075733439   107.76695898    61.13894775
 H     47  46  45     1.092787044808   107.46606311   305.96213144
 H     48  47  46     1.087046608154   111.56048153   303.31854295
 H     48  47  46     1.087826712349   109.11365789   184.04796692
 H     48  47  46     1.086298504970   111.03407359    65.28139287
 H     49  46  45     1.090903877067   108.30773946   172.12861965
 H     49  46  45     1.093556920558   107.53450727    56.52130595
 H     50  49  46     1.087996371731   109.40107577   180.75783070
 H     50  49  46     1.086123210414   110.93684372    61.71459041
 H     50  49  46     1.086454927229   111.40542354   300.18750592
 H     51  45  44     1.074957363061   125.84146763   181.87649419
 H     54  52  51     1.086367019520   115.63288910   335.67354169
 H     63  62  56     1.078325804198   121.37334546     3.06619018
 H     64  63  62     1.079738725850   119.08491761   180.23626660
 H     65  64  63     1.079639383961   119.61032353   179.44841028
 H     66  65  64     1.079145828005   121.64205048   180.15497566

---------------------------
INTERNAL COORDINATES (A.U.)
---------------------------
 C      0   0   0     0.000000000000     0.00000000     0.00000000
 O      1   0   0     2.287604824657     0.00000000     0.00000000
 C      1   2   0     2.790846953449   127.97169143     0.00000000
 C      3   1   2     2.609318229155   129.07351683   356.63028318
 C      4   3   1     2.623245645947   118.20806143   181.23082386
 C      5   4   3     2.621392207890   120.50929435     0.34171175
 C      6   5   4     2.625067540581   121.48400077   359.27854108
 C      7   6   5     2.617318672936   118.44569165     0.24622382
 C      8   7   6     2.768018716778   131.43817331   182.29029706
 C      9   8   7     2.593631411359   124.52343194    19.49136936
 C     10   9   8     2.660346445150   124.42178717   166.17261056
 N     11  10   9     2.170478976367   176.30843997   202.82728005
 C     10   9   8     2.663464973379   124.08437848   350.12072124
 N     13  10   9     2.169976683048   176.27960373   203.41624662
 C      9   8   7     2.726401266443   107.24299778   188.15740826
 C     15   9   8     2.582099790458   133.76370745   163.82993267
 C     16  15   9     2.656887093254   130.24530608   344.94445770
 C     17  16  15     2.631310321084   130.47958732   342.55772853
 C     18  17  16     2.615785905832   112.37496401   180.87257898
 C     19  18  17     2.624262095813   113.08327145   359.91130999
 S     20  19  18     3.225204481672   112.79141760     1.63223100
 C     20  19  18     2.696306820382   110.47908777   182.26584816
 C     22  20  19     2.677213404624   107.25804689     0.51108519
 C     19  18  17     2.853282419443   136.18279627   183.95978982
 C     24  19  18     2.919268023260   107.50575270   294.57034972
 C     25  24  19     2.876401844172   116.73076564   177.33455079
 C     24  19  18     2.929210621282   107.30102456    56.79290714
 C     27  24  19     2.878854709207   117.08864282   148.21281673
 C     23  22  20     2.603858224010   119.15069654   179.57654183
 C     29  23  22     2.631588753184   118.23191088   359.91875763
 C     30  29  23     2.660484586258   122.13876473     0.85735047
 C     31  30  29     2.601098987635   120.22768813   358.45214258
 C     31  30  29     2.854165707511   110.55813078   180.13989971
 C     33  31  30     2.902146060454   112.20914232   124.67030675
 C     34  33  31     2.880753263373   112.36671835   301.32932401
 C     33  31  30     2.924857374561   111.77018404   250.99724901
 C     36  33  31     2.877622098830   115.80709057   298.34832958
 C     33  31  30     2.859161897446   101.51185818     4.63378390
 C     38  33  31     2.658314571296   110.61960084   355.03961240
 C     39  38  33     2.631425768483   121.77519640   182.11579094
 C     40  39  38     2.601968898117   117.90064330   358.42945628
 C     41  40  39     2.673743379881   119.89420498     2.06331771
 C     38  33  31     2.600346759812   128.49640974   177.32351923
 C     42  41  40     2.696336211139   106.82636418   178.24775539
 C     44  42  41     2.624144284564   111.04311405   358.70551855
 C     45  44  42     2.850164958436   110.10958866     2.24381190
 C     46  45  44     2.919191253362   106.91612757   115.47244367
 C     47  46  45     2.877255460380   115.94801922   183.92041101
 C     46  45  44     2.911046127801   113.00143409   241.84531897
 C     49  46  45     2.877787700244   115.24558863   294.81199504
 C     45  44  42     2.622688900391   112.60045048   178.95693609
 C     51  45  44     2.624465346900   112.64367551   358.73724695
 S     44  42  41     3.231218145659   135.88853033   177.09575256
 C     52  51  45     2.668920849314   125.92563291   178.41880849
 C     54  52  51     2.573638732098   128.97937345   160.62272853
 C     55  54  52     2.733121018284   131.98485021   343.30973960
 C     56  55  54     2.589711856155   126.01384322   327.70757074
 C     57  56  55     2.662012774658   123.93824637   185.30159843
 N     58  57  56     2.169597251177   177.14152308   198.79062927
 C     57  56  55     2.665352292735   123.16197348     0.36754986
 N     60  57  56     2.169673753604   176.72182642   238.75970544
 C     56  55  54     2.761857458714   107.15527821   161.28260595
 C     62  56  55     2.616890025788   131.36308635   188.89847017
 C     63  62  56     2.624386913795   118.37064698   182.35036870
 C     64  63  62     2.622257829131   121.43632136     0.33381523
 C     65  64  63     2.623168452371   120.60500108   359.33253475
 C     66  65  64     2.610083336516   118.22603098     0.25845800
 C     67  66  65     2.793715118439   129.08541153   181.15618361
 O     68  67  66     2.287116334875   128.07598563   356.10177160
 H      4   3   1     2.039205719836   120.09469755     1.35556114
 H      5   4   3     2.040142997308   119.83393810   180.20702735
 H      6   5   4     2.040398888062   119.49679207   179.39046274
 H      7   6   5     2.037333905845   119.99497018   179.63904143
 H     16  15   9     2.053461828407   114.01365010   169.08455003
 H     18  17  16     2.032147851543   122.69956430   358.45131784
 H     25  24  19     2.065672828121   107.29111358    55.38992296
 H     25  24  19     2.067041143960   107.63277920   300.02811288
 H     26  25  24     2.052490196752   111.19030274   299.88569799
 H     26  25  24     2.056743396435   109.09279481   180.94547084
 H     26  25  24     2.051685141361   111.24720754    62.02191724
 H     27  24  19     2.066059700691   107.62838719    27.12139073
 H     27  24  19     2.064126727909   107.68857246   271.93915907
 H     28  27  24     2.053962286900   110.82180747   297.96339160
 H     28  27  24     2.056212935555   108.71596041   179.37580259
 H     28  27  24     2.052163870660   112.20045299    59.92637785
 H     29  23  22     2.035603403340   122.12341353   181.20341817
 H     32  31  30     2.038719741042   122.67029635   182.69201400
 H     34  33  31     2.063351101000   108.80835572   179.93937941
 H     34  33  31     2.060804045532   109.13079489    62.35675557
 H     35  34  33     2.055600847293   110.79936940   299.51747307
 H     35  34  33     2.054705460300   110.11251829   179.61360656
 H     35  34  33     2.055835095253   110.65286152    59.76182797
 H     36  33  31     2.064000836710   107.59931833   176.02156725
 H     36  33  31     2.066452590801   107.83337503    60.30354910
 H     37  36  33     2.053270376327   111.44965827   302.18263457
 H     37  36  33     2.055953178697   109.24295834   182.94011062
 H     37  36  33     2.053251996553   110.97466807    63.91680142
 H     40  39  38     2.038098775469   120.26333662   178.17596245
 H     43  38  33     2.040087143140   122.38403936   358.12936521
 H     47  46  45     2.061834327567   107.76695898    61.13894775
 H     47  46  45     2.065068237384   107.46606311   305.96213144
 H     48  47  46     2.054220384220   111.56048153   303.31854295
 H     48  47  46     2.055694567504   109.11365789   184.04796692
 H     48  47  46     2.052806674081   111.03407359    65.28139287
 H     49  46  45     2.061509566090   108.30773946   172.12861965
 H     49  46  45     2.066523091709   107.53450727    56.52130595
 H     50  49  46     2.056015177272   109.40107577   180.75783070
 H     50  49  46     2.052475415378   110.93684372    61.71459041
 H     50  49  46     2.053102269312   111.40542354   300.18750592
 H     51  45  44     2.031375021828   125.84146763   181.87649419
 H     54  52  51     2.052936147816   115.63288910   335.67354169
 H     63  62  56     2.037740453075   121.37334546     3.06619018
 H     64  63  62     2.040410488045   119.08491761   180.23626660
 H     65  64  63     2.040222759082   119.61032353   179.44841028
 H     66  65  64     2.039290073493   121.64205048   180.15497566

---------------------
BASIS SET INFORMATION
---------------------
There are 5 groups of distinct atoms

 Group   1 Type C   : 7s4p1d contracted to 3s2p1d pattern {511/31/1}
 Group   2 Type O   : 7s4p1d contracted to 3s2p1d pattern {511/31/1}
 Group   3 Type N   : 7s4p1d contracted to 3s2p1d pattern {511/31/1}
 Group   4 Type S   : 10s7p1d contracted to 4s3p1d pattern {5311/511/1}
 Group   5 Type H   : 4s1p contracted to 2s1p pattern {31/1}

Atom   0C    basis set group =>   1
Atom   1O    basis set group =>   2
Atom   2C    basis set group =>   1
Atom   3C    basis set group =>   1
Atom   4C    basis set group =>   1
Atom   5C    basis set group =>   1
Atom   6C    basis set group =>   1
Atom   7C    basis set group =>   1
Atom   8C    basis set group =>   1
Atom   9C    basis set group =>   1
Atom  10C    basis set group =>   1
Atom  11N    basis set group =>   3
Atom  12C    basis set group =>   1
Atom  13N    basis set group =>   3
Atom  14C    basis set group =>   1
Atom  15C    basis set group =>   1
Atom  16C    basis set group =>   1
Atom  17C    basis set group =>   1
Atom  18C    basis set group =>   1
Atom  19C    basis set group =>   1
Atom  20S    basis set group =>   4
Atom  21C    basis set group =>   1
Atom  22C    basis set group =>   1
Atom  23C    basis set group =>   1
Atom  24C    basis set group =>   1
Atom  25C    basis set group =>   1
Atom  26C    basis set group =>   1
Atom  27C    basis set group =>   1
Atom  28C    basis set group =>   1
Atom  29C    basis set group =>   1
Atom  30C    basis set group =>   1
Atom  31C    basis set group =>   1
Atom  32C    basis set group =>   1
Atom  33C    basis set group =>   1
Atom  34C    basis set group =>   1
Atom  35C    basis set group =>   1
Atom  36C    basis set group =>   1
Atom  37C    basis set group =>   1
Atom  38C    basis set group =>   1
Atom  39C    basis set group =>   1
Atom  40C    basis set group =>   1
Atom  41C    basis set group =>   1
Atom  42C    basis set group =>   1
Atom  43C    basis set group =>   1
Atom  44C    basis set group =>   1
Atom  45C    basis set group =>   1
Atom  46C    basis set group =>   1
Atom  47C    basis set group =>   1
Atom  48C    basis set group =>   1
Atom  49C    basis set group =>   1
Atom  50C    basis set group =>   1
Atom  51C    basis set group =>   1
Atom  52S    basis set group =>   4
Atom  53C    basis set group =>   1
Atom  54C    basis set group =>   1
Atom  55C    basis set group =>   1
Atom  56C    basis set group =>   1
Atom  57C    basis set group =>   1
Atom  58N    basis set group =>   3
Atom  59C    basis set group =>   1
Atom  60N    basis set group =>   3
Atom  61C    basis set group =>   1
Atom  62C    basis set group =>   1
Atom  63C    basis set group =>   1
Atom  64C    basis set group =>   1
Atom  65C    basis set group =>   1
Atom  66C    basis set group =>   1
Atom  67C    basis set group =>   1
Atom  68O    basis set group =>   2
Atom  69H    basis set group =>   5
Atom  70H    basis set group =>   5
Atom  71H    basis set group =>   5
Atom  72H    basis set group =>   5
Atom  73H    basis set group =>   5
Atom  74H    basis set group =>   5
Atom  75H    basis set group =>   5
Atom  76H    basis set group =>   5
Atom  77H    basis set group =>   5
Atom  78H    basis set group =>   5
Atom  79H    basis set group =>   5
Atom  80H    basis set group =>   5
Atom  81H    basis set group =>   5
Atom  82H    basis set group =>   5
Atom  83H    basis set group =>   5
Atom  84H    basis set group =>   5
Atom  85H    basis set group =>   5
Atom  86H    basis set group =>   5
Atom  87H    basis set group =>   5
Atom  88H    basis set group =>   5
Atom  89H    basis set group =>   5
Atom  90H    basis set group =>   5
Atom  91H    basis set group =>   5
Atom  92H    basis set group =>   5
Atom  93H    basis set group =>   5
Atom  94H    basis set group =>   5
Atom  95H    basis set group =>   5
Atom  96H    basis set group =>   5
Atom  97H    basis set group =>   5
Atom  98H    basis set group =>   5
Atom  99H    basis set group =>   5
Atom 100H    basis set group =>   5
Atom 101H    basis set group =>   5
Atom 102H    basis set group =>   5
Atom 103H    basis set group =>   5
Atom 104H    basis set group =>   5
Atom 105H    basis set group =>   5
Atom 106H    basis set group =>   5
Atom 107H    basis set group =>   5
Atom 108H    basis set group =>   5
Atom 109H    basis set group =>   5
Atom 110H    basis set group =>   5
Atom 111H    basis set group =>   5
Atom 112H    basis set group =>   5
Atom 113H    basis set group =>   5
Atom 114H    basis set group =>   5
------------------------------------------------------------------------------
                           ORCA GTO INTEGRAL CALCULATION
------------------------------------------------------------------------------

                         BASIS SET STATISTICS AND STARTUP INFO

 # of primitive gaussian shells          ... 1070
 # of primitive gaussian functions       ... 2002
 # of contracted shells                  ...  556
 # of contracted basis functions         ... 1204
 Highest angular momentum                ...    2
 Maximum contraction depth               ...    5
 Integral package used                   ... LIBINT
 Integral threshhold            Thresh   ...  2.500e-11
 Primitive cut-off              TCut     ...  2.500e-12


------------------------------ INTEGRAL EVALUATION ----------------------------


 * One electron integrals 
 Pre-screening matrix                    ... done
 Shell pair data                         ... done (   0.023 sec)

-------------------------------------------------------------------------------
                                 ORCA SCF
-------------------------------------------------------------------------------

------------
SCF SETTINGS
------------
Hamiltonian:
 Ab initio Hamiltonian  Method          .... Hartree-Fock(GTOs)


General Settings:
 Integral files         IntName         .... FDICTF
 Hartree-Fock type      HFTyp           .... RHF
 Total Charge           Charge          ....    0
 Multiplicity           Mult            ....    1
 Number of Electrons    NEL             ....  488
 Basis Dimension        Dim             .... 1204
 Nuclear Repulsion      ENuc            ....   9836.9561239553 Eh

Convergence Acceleration:
 DIIS                   CNVDIIS         .... on
   Start iteration      DIISMaxIt       ....    12
   Startup error        DIISStart       ....  0.200000
   # of expansion vecs  DIISMaxEq       ....     5
   Bias factor          DIISBfac        ....   1.050
   Max. coefficient     DIISMaxC        ....  10.000
 Newton-Raphson         CNVNR           .... off
 SOSCF                  CNVSOSCF        .... on
   Start iteration      SOSCFMaxIt      ....   150
   Startup grad/error   SOSCFStart      ....  0.003300
 Level Shifting         CNVShift        .... on
   Level shift para.    LevelShift      ....    0.2500
   Turn off err/grad.   ShiftErr        ....    0.0010
 Zerner damping         CNVZerner       .... off
 Static damping         CNVDamp         .... on
   Fraction old density DampFac         ....    0.7000
   Max. Damping (<1)    DampMax         ....    0.9800
   Min. Damping (>=0)   DampMin         ....    0.0000
   Turn off err/grad.   DampErr         ....    0.1000
 Fernandez-Rico         CNVRico         .... off

SCF Procedure:
 Maximum # iterations   MaxIter         ....   125
 SCF integral mode      SCFMode         .... Direct
   Integral package                     .... LIBINT
 Reset frequency        DirectResetFreq ....    20
 Integral Threshold     Thresh          ....  2.500e-11 Eh
 Primitive CutOff       TCut            ....  2.500e-12 Eh

Convergence Tolerance:
 Convergence Check Mode ConvCheckMode   .... Total+1el-Energy
 Convergence forced     ConvForced      .... 1
 Energy Change          TolE            ....  1.000e-08 Eh
 1-El. energy change                    ....  1.000e-05 Eh
 Orbital Gradient       TolG            ....  1.000e-05
 Orbital Rotation angle TolX            ....  1.000e-05
 DIIS Error             TolErr          ....  5.000e-07


Diagonalization of the overlap matrix:
Smallest eigenvalue                        ... 1.774e-04
Time for diagonalization                   ...    0.420 sec
Threshold for overlap eigenvalues          ... 1.000e-08
Number of eigenvalues below threshold      ... 0
Time for construction of square roots      ...    0.165 sec
Total time needed                          ...    0.590 sec

-------------------
DFT GRID GENERATION
-------------------

General Integration Accuracy     IntAcc      ...  4.340
Radial Grid Type                 RadialGrid  ... Gauss-Chebyshev
Angular Grid (max. acc.)         AngularGrid ... Lebedev-110
Angular grid pruning method      GridPruning ... 3 (G Style)
Weight generation scheme         WeightScheme... Becke
Basis function cutoff            BFCut       ...    1.0000e-11
Integration weight cutoff        WCut        ...    1.0000e-14
Grids for H and He will be reduced by one unit

# of grid points (after initial pruning)     ... 151392 (   0.3 sec)
# of grid points (after weights+screening)   ... 130589 (   8.0 sec)
nearest neighbour list constructed           ...    0.0 sec
Grid point re-assignment to atoms done       ...    0.0 sec
Grid point division into batches done        ...    0.1 sec
Reduced shell lists constructed in    3.1 sec

Total number of grid points                  ...   130589
Total number of batches                      ...     2094
Average number of points per batch           ...       62
Average number of grid points per atom       ...     1136
Average number of shells per batch           ...   124.47 (22.39%)
Average number of basis functions per batch  ...   249.02 (20.68%)
Average number of large shells per batch     ...    73.02 (58.66%)
Average number of large basis fcns per batch ...   148.75 (59.73%)
Maximum spatial batch extension              ...  21.99, 24.06, 25.60 au
Average spatial batch extension              ...   3.24,  3.18,  3.31 au

Time for grid setup =   11.503 sec

------------------------------
INITIAL GUESS: MODEL POTENTIAL
------------------------------
Loading Hartree-Fock densities                     ... done
Calculating cut-offs                               ... done
Setting up the integral package                    ... done
Initializing the effective Hamiltonian             ... done
Starting the Coulomb interaction                   ... done (  11.1 sec)
Reading the grid                                   ... done
Mapping shells                                     ... done
Starting the XC term evaluation                    ... done (   2.6 sec)
Transforming the Hamiltonian                       ... done (   0.2 sec)
Diagonalizing the Hamiltonian                      ... done (   0.4 sec)
Back transforming the eigenvectors                 ... done (   0.1 sec)
Now organizing SCF variables                       ... done
                      ------------------
                      INITIAL GUESS DONE (  26.1 sec)
                      ------------------
--------------
SCF ITERATIONS
--------------
ITER       Energy         Delta-E        Max-DP      RMS-DP      [F,P]     Damp
               ***  Starting incremental Fock matrix formation  ***
  0  -3494.6199746487   0.000000000000 0.18814557  0.00154511  0.2337700 0.7000
  1  -3495.4296510043  -0.809676355550 0.13555419  0.00118525  0.1407246 0.7000
                               ***Turning on DIIS***
  2  -3495.9160304166  -0.486379412267 0.29510130  0.00274793  0.0781687 0.0000
  3  -3492.8104313496   3.105599066963 0.06865779  0.00056670  0.0524191 0.0000
  4  -3497.1611628360  -4.350731486367 0.01489940  0.00020787  0.0210091 0.0000
  5  -3497.1434770491   0.017685786843 0.00732888  0.00010344  0.0084995 0.0000
  6  -3496.9208700068   0.222607042277 0.00550891  0.00005865  0.0024866 0.0000
                      *** Initiating the SOSCF procedure ***
                           *** Shutting down DIIS ***
                      *** Re-Reading the Fockian *** 
                      *** Removing any level shift *** 
ITER      Energy       Delta-E        Grad      Rot      Max-DP    RMS-DP
  7  -3496.97625159  -0.0553815874  0.003184  0.003184  0.003037  0.000035
               *** Restarting incremental Fock matrix formation ***
  8  -3496.95753348   0.0187181161  0.001906  0.007642  0.001946  0.000025
  9  -3496.95773179  -0.0001983076  0.000816  0.009038  0.004094  0.000039
 10  -3496.95782954  -0.0000977545  0.000232  0.000843  0.000833  0.000008
 11  -3496.95783771  -0.0000081716  0.000109  0.000531  0.000303  0.000003
 12  -3496.95783988  -0.0000021651  0.000035  0.000206  0.000125  0.000002
 13  -3496.95784028  -0.0000004071  0.000025  0.000214  0.000124  0.000001
 14  -3496.95784044  -0.0000001599  0.000019  0.000125  0.000063  0.000001
 15  -3496.95784049  -0.0000000484  0.000006  0.000062  0.000028  0.000000
 16  -3496.95784049   0.0000000016  0.000003  0.000018  0.000013  0.000000
                  ***Gradient check signals convergence***
              ***Rediagonalizing the Fockian in SOSCF/NRSCF***

               *****************************************************
               *                     SUCCESS                       *
               *           SCF CONVERGED AFTER  17 CYCLES          *
               *****************************************************


----------------
TOTAL SCF ENERGY
----------------

Total Energy       :        -3496.95784048 Eh          -95157.06053 eV

Components:
Nuclear Repulsion  :         9836.95612396 Eh          267677.18458 eV
Electronic Energy  :       -13333.91396443 Eh         -362834.24511 eV
One Electron Energy:       -24364.72558103 Eh         -662997.88922 eV
Two Electron Energy:        11030.81161660 Eh          300163.64411 eV

Virial components:
Potential Energy   :        -6982.83254609 Eh         -190012.53363 eV
Kinetic Energy     :         3485.87470561 Eh           94855.47310 eV
Virial Ratio       :            2.00317944


---------------
SCF CONVERGENCE
---------------

  Last Energy change         ...    1.3211e-08  Tolerance :   1.0000e-08
  Last MAX-Density change    ...    8.5208e-06  Tolerance :   1.0000e-07
  Last RMS-Density change    ...    6.5789e-08  Tolerance :   5.0000e-09
  Last Orbital Gradient      ...    2.3276e-06  Tolerance :   1.0000e-05
  Last Orbital Rotation      ...    8.0762e-06  Tolerance :   1.0000e-05

             **** THE GBW FILE WAS UPDATED (FDICTF.gbw) ****
             **** DENSITY FILE WAS UPDATED (FDICTF.scfp) ****
             **** ENERGY FILE WAS UPDATED (FDICTF.en.tmp) ****
             **** THE GBW FILE WAS UPDATED (FDICTF.gbw) ****
             **** DENSITY FILE WAS UPDATED (FDICTF.scfp) ****
----------------
ORBITAL ENERGIES
----------------

  NO   OCC          E(Eh)            E(eV) 
   0   2.0000     -91.974023     -2502.7404 
   1   2.0000     -91.971999     -2502.6853 
   2   2.0000     -20.553874      -559.2994 
   3   2.0000     -20.553488      -559.2889 
   4   2.0000     -15.583246      -424.0417 
   5   2.0000     -15.582745      -424.0281 
   6   2.0000     -15.581303      -423.9888 
   7   2.0000     -15.577238      -423.8782 
   8   2.0000     -11.351845      -308.8994 
   9   2.0000     -11.350869      -308.8728 
  10   2.0000     -11.333441      -308.3986 
  11   2.0000     -11.329769      -308.2987 
  12   2.0000     -11.312046      -307.8164 
  13   2.0000     -11.311268      -307.7953 
  14   2.0000     -11.309619      -307.7504 
  15   2.0000     -11.308513      -307.7203 
  16   2.0000     -11.294359      -307.3351 
  17   2.0000     -11.293174      -307.3029 
  18   2.0000     -11.292045      -307.2722 
  19   2.0000     -11.291310      -307.2522 
  20   2.0000     -11.290712      -307.2359 
  21   2.0000     -11.287800      -307.1567 
  22   2.0000     -11.286829      -307.1302 
  23   2.0000     -11.286532      -307.1221 
  24   2.0000     -11.283686      -307.0447 
  25   2.0000     -11.282946      -307.0246 
  26   2.0000     -11.279834      -306.9399 
  27   2.0000     -11.278838      -306.9128 
  28   2.0000     -11.272540      -306.7414 
  29   2.0000     -11.272100      -306.7294 
  30   2.0000     -11.271733      -306.7195 
  31   2.0000     -11.271611      -306.7161 
  32   2.0000     -11.271054      -306.7010 
  33   2.0000     -11.270466      -306.6850 
  34   2.0000     -11.270024      -306.6730 
  35   2.0000     -11.269339      -306.6543 
  36   2.0000     -11.267844      -306.6136 
  37   2.0000     -11.267638      -306.6080 
  38   2.0000     -11.263814      -306.5040 
  39   2.0000     -11.263498      -306.4954 
  40   2.0000     -11.263192      -306.4870 
  41   2.0000     -11.262810      -306.4767 
  42   2.0000     -11.262545      -306.4694 
  43   2.0000     -11.262495      -306.4681 
  44   2.0000     -11.259519      -306.3871 
  45   2.0000     -11.257606      -306.3350 
  46   2.0000     -11.257329      -306.3275 
  47   2.0000     -11.256862      -306.3148 
  48   2.0000     -11.256383      -306.3018 
  49   2.0000     -11.255376      -306.2744 
  50   2.0000     -11.254796      -306.2586 
  51   2.0000     -11.254068      -306.2387 
  52   2.0000     -11.253996      -306.2368 
  53   2.0000     -11.251385      -306.1658 
  54   2.0000     -11.250727      -306.1478 
  55   2.0000     -11.250227      -306.1342 
  56   2.0000     -11.250082      -306.1303 
  57   2.0000     -11.242946      -305.9361 
  58   2.0000     -11.242250      -305.9172 
  59   2.0000     -11.238963      -305.8277 
  60   2.0000     -11.237694      -305.7932 
  61   2.0000     -11.236447      -305.7593 
  62   2.0000     -11.233633      -305.6827 
  63   2.0000     -11.232356      -305.6479 
  64   2.0000     -11.230856      -305.6071 
  65   2.0000     -11.227153      -305.5064 
  66   2.0000     -11.226541      -305.4897 
  67   2.0000     -11.222487      -305.3794 
  68   2.0000     -11.217348      -305.2395 
  69   2.0000      -9.009470      -245.1602 
  70   2.0000      -9.007388      -245.1035 
  71   2.0000      -6.696959      -182.2335 
  72   2.0000      -6.695981      -182.2069 
  73   2.0000      -6.694915      -182.1779 
  74   2.0000      -6.694132      -182.1566 
  75   2.0000      -6.693913      -182.1506 
  76   2.0000      -6.692062      -182.1003 
  77   2.0000      -1.385720       -37.7074 
  78   2.0000      -1.385658       -37.7057 
  79   2.0000      -1.244295       -33.8590 
  80   2.0000      -1.241620       -33.7862 
  81   2.0000      -1.232171       -33.5291 
  82   2.0000      -1.228191       -33.4208 
  83   2.0000      -1.219534       -33.1852 
  84   2.0000      -1.216077       -33.0911 
  85   2.0000      -1.215577       -33.0775 
  86   2.0000      -1.213879       -33.0313 
  87   2.0000      -1.204420       -32.7739 
  88   2.0000      -1.170326       -31.8462 
  89   2.0000      -1.160402       -31.5762 
  90   2.0000      -1.150999       -31.3203 
  91   2.0000      -1.144880       -31.1538 
  92   2.0000      -1.116652       -30.3856 
  93   2.0000      -1.101648       -29.9774 
  94   2.0000      -1.095901       -29.8210 
  95   2.0000      -1.094920       -29.7943 
  96   2.0000      -1.086427       -29.5632 
  97   2.0000      -1.078364       -29.3438 
  98   2.0000      -1.065436       -28.9920 
  99   2.0000      -1.047389       -28.5009 
 100   2.0000      -1.046570       -28.4786 
 101   2.0000      -1.040626       -28.3169 
 102   2.0000      -1.027951       -27.9720 
 103   2.0000      -1.025656       -27.9095 
 104   2.0000      -1.021149       -27.7869 
 105   2.0000      -1.019960       -27.7545 
 106   2.0000      -1.018726       -27.7210 
 107   2.0000      -1.016250       -27.6536 
 108   2.0000      -1.012635       -27.5552 
 109   2.0000      -1.004076       -27.3223 
 110   2.0000      -0.975627       -26.5482 
 111   2.0000      -0.962994       -26.2044 
 112   2.0000      -0.940372       -25.5888 
 113   2.0000      -0.936208       -25.4755 
 114   2.0000      -0.928063       -25.2539 
 115   2.0000      -0.922976       -25.1155 
 116   2.0000      -0.917899       -24.9773 
 117   2.0000      -0.909705       -24.7543 
 118   2.0000      -0.883992       -24.0546 
 119   2.0000      -0.859736       -23.3946 
 120   2.0000      -0.857546       -23.3350 
 121   2.0000      -0.854067       -23.2404 
 122   2.0000      -0.845383       -23.0040 
 123   2.0000      -0.844775       -22.9875 
 124   2.0000      -0.842468       -22.9247 
 125   2.0000      -0.839749       -22.8507 
 126   2.0000      -0.826012       -22.4769 
 127   2.0000      -0.823819       -22.4173 
 128   2.0000      -0.809529       -22.0284 
 129   2.0000      -0.808883       -22.0108 
 130   2.0000      -0.803205       -21.8563 
 131   2.0000      -0.790495       -21.5105 
 132   2.0000      -0.780186       -21.2299 
 133   2.0000      -0.774813       -21.0837 
 134   2.0000      -0.768090       -20.9008 
 135   2.0000      -0.760803       -20.7025 
 136   2.0000      -0.751342       -20.4451 
 137   2.0000      -0.747671       -20.3452 
 138   2.0000      -0.743830       -20.2407 
 139   2.0000      -0.735300       -20.0085 
 140   2.0000      -0.728264       -19.8171 
 141   2.0000      -0.723569       -19.6893 
 142   2.0000      -0.707570       -19.2540 
 143   2.0000      -0.704561       -19.1721 
 144   2.0000      -0.693333       -18.8665 
 145   2.0000      -0.690728       -18.7957 
 146   2.0000      -0.685999       -18.6670 
 147   2.0000      -0.674558       -18.3557 
 148   2.0000      -0.672385       -18.2965 
 149   2.0000      -0.664464       -18.0810 
 150   2.0000      -0.661121       -17.9900 
 151   2.0000      -0.657022       -17.8785 
 152   2.0000      -0.650637       -17.7047 
 153   2.0000      -0.645927       -17.5766 
 154   2.0000      -0.643448       -17.5091 
 155   2.0000      -0.642241       -17.4763 
 156   2.0000      -0.638887       -17.3850 
 157   2.0000      -0.636689       -17.3252 
 158   2.0000      -0.635441       -17.2912 
 159   2.0000      -0.634414       -17.2633 
 160   2.0000      -0.633904       -17.2494 
 161   2.0000      -0.633434       -17.2366 
 162   2.0000      -0.627332       -17.0706 
 163   2.0000      -0.626158       -17.0386 
 164   2.0000      -0.621197       -16.9036 
 165   2.0000      -0.619066       -16.8456 
 166   2.0000      -0.614665       -16.7259 
 167   2.0000      -0.610486       -16.6122 
 168   2.0000      -0.606988       -16.5170 
 169   2.0000      -0.603571       -16.4240 
 170   2.0000      -0.600204       -16.3324 
 171   2.0000      -0.595925       -16.2159 
 172   2.0000      -0.591957       -16.1080 
 173   2.0000      -0.588390       -16.0109 
 174   2.0000      -0.586279       -15.9535 
 175   2.0000      -0.581754       -15.8303 
 176   2.0000      -0.580139       -15.7864 
 177   2.0000      -0.578874       -15.7519 
 178   2.0000      -0.576397       -15.6846 
 179   2.0000      -0.571799       -15.5595 
 180   2.0000      -0.570982       -15.5372 
 181   2.0000      -0.568576       -15.4717 
 182   2.0000      -0.567685       -15.4475 
 183   2.0000      -0.566359       -15.4114 
 184   2.0000      -0.564302       -15.3555 
 185   2.0000      -0.562330       -15.3018 
 186   2.0000      -0.560439       -15.2503 
 187   2.0000      -0.558176       -15.1887 
 188   2.0000      -0.554390       -15.0857 
 189   2.0000      -0.550503       -14.9800 
 190   2.0000      -0.548171       -14.9165 
 191   2.0000      -0.544768       -14.8239 
 192   2.0000      -0.539281       -14.6746 
 193   2.0000      -0.538122       -14.6430 
 194   2.0000      -0.536422       -14.5968 
 195   2.0000      -0.536023       -14.5859 
 196   2.0000      -0.534042       -14.5320 
 197   2.0000      -0.531281       -14.4569 
 198   2.0000      -0.530055       -14.4235 
 199   2.0000      -0.527913       -14.3652 
 200   2.0000      -0.525064       -14.2877 
 201   2.0000      -0.524484       -14.2719 
 202   2.0000      -0.523712       -14.2509 
 203   2.0000      -0.518050       -14.0969 
 204   2.0000      -0.515876       -14.0377 
 205   2.0000      -0.513625       -13.9765 
 206   2.0000      -0.512011       -13.9325 
 207   2.0000      -0.507469       -13.8089 
 208   2.0000      -0.506298       -13.7771 
 209   2.0000      -0.501201       -13.6384 
 210   2.0000      -0.498562       -13.5666 
 211   2.0000      -0.493597       -13.4315 
 212   2.0000      -0.492392       -13.3987 
 213   2.0000      -0.490604       -13.3500 
 214   2.0000      -0.486481       -13.2378 
 215   2.0000      -0.484188       -13.1754 
 216   2.0000      -0.482069       -13.1178 
 217   2.0000      -0.476591       -12.9687 
 218   2.0000      -0.472440       -12.8557 
 219   2.0000      -0.470738       -12.8094 
 220   2.0000      -0.468578       -12.7507 
 221   2.0000      -0.467677       -12.7261 
 222   2.0000      -0.465199       -12.6587 
 223   2.0000      -0.463444       -12.6109 
 224   2.0000      -0.459669       -12.5082 
 225   2.0000      -0.459018       -12.4905 
 226   2.0000      -0.457858       -12.4590 
 227   2.0000      -0.455743       -12.4014 
 228   2.0000      -0.439814       -11.9679 
 229   2.0000      -0.437392       -11.9020 
 230   2.0000      -0.423910       -11.5352 
 231   2.0000      -0.405716       -11.0401 
 232   2.0000      -0.384148       -10.4532 
 233   2.0000      -0.372406       -10.1337 
 234   2.0000      -0.371716       -10.1149 
 235   2.0000      -0.367112        -9.9896 
 236   2.0000      -0.365117        -9.9353 
 237   2.0000      -0.355794        -9.6817 
 238   2.0000      -0.350336        -9.5331 
 239   2.0000      -0.347366        -9.4523 
 240   2.0000      -0.344410        -9.3719 
 241   2.0000      -0.335193        -9.1211 
 242   2.0000      -0.293263        -7.9801 
 243   2.0000      -0.257653        -7.0111 
 244   0.0000      -0.017674        -0.4809 
 245   0.0000      -0.006762        -0.1840 
 246   0.0000       0.025502         0.6939 
 247   0.0000       0.031910         0.8683 
 248   0.0000       0.061427         1.6715 
 249   0.0000       0.086262         2.3473 
 250   0.0000       0.102844         2.7985 
 251   0.0000       0.110293         3.0012 
 252   0.0000       0.125306         3.4098 
 253   0.0000       0.130817         3.5597 
 254   0.0000       0.145121         3.9489 
 255   0.0000       0.149304         4.0628 
 256   0.0000       0.154699         4.2096 
 257   0.0000       0.157796         4.2938 
 258   0.0000       0.160339         4.3631 
 259   0.0000       0.161324         4.3898 
 260   0.0000       0.165055         4.4914 
 261   0.0000       0.169305         4.6070 
 262   0.0000       0.170498         4.6395 
 263   0.0000       0.174329         4.7437 
 264   0.0000       0.178970         4.8700 
 265   0.0000       0.180238         4.9045 
 266   0.0000       0.181556         4.9404 
 267   0.0000       0.187791         5.1101 
 268   0.0000       0.194209         5.2847 
 269   0.0000       0.197002         5.3607 
 270   0.0000       0.198552         5.4029 
 271   0.0000       0.201927         5.4947 
 272   0.0000       0.205317         5.5870 
 273   0.0000       0.206517         5.6196 
 274   0.0000       0.208747         5.6803 
 275   0.0000       0.209800         5.7090 
 276   0.0000       0.214311         5.8317 
 277   0.0000       0.216357         5.8874 
 278   0.0000       0.218708         5.9513 
 279   0.0000       0.219360         5.9691 
 280   0.0000       0.221395         6.0245 
 281   0.0000       0.225530         6.1370 
 282   0.0000       0.231032         6.2867 
 283   0.0000       0.236900         6.4464 
 284   0.0000       0.239615         6.5203 
 285   0.0000       0.240420         6.5422 
 286   0.0000       0.241678         6.5764 
 287   0.0000       0.244068         6.6414 
 288   0.0000       0.248308         6.7568 
 289   0.0000       0.248881         6.7724 
 290   0.0000       0.250741         6.8230 
 291   0.0000       0.252409         6.8684 
 292   0.0000       0.253607         6.9010 
 293   0.0000       0.254022         6.9123 
 294   0.0000       0.254755         6.9322 
 295   0.0000       0.257648         7.0110 
 296   0.0000       0.260223         7.0810 
 297   0.0000       0.260442         7.0870 
 298   0.0000       0.262539         7.1440 
 299   0.0000       0.264028         7.1846 
 300   0.0000       0.266282         7.2459 
 301   0.0000       0.269590         7.3359 
 302   0.0000       0.271863         7.3978 
 303   0.0000       0.274142         7.4598 
 304   0.0000       0.276156         7.5146 
 305   0.0000       0.280037         7.6202 
 306   0.0000       0.283951         7.7267 
 307   0.0000       0.286811         7.8045 
 308   0.0000       0.287083         7.8119 
 309   0.0000       0.292803         7.9676 
 310   0.0000       0.294795         8.0218 
 311   0.0000       0.297268         8.0891 
 312   0.0000       0.299128         8.1397 
 313   0.0000       0.310337         8.4447 
 314   0.0000       0.314267         8.5516 
 315   0.0000       0.316737         8.6188 
 316   0.0000       0.325277         8.8512 
 317   0.0000       0.326602         8.8873 
 318   0.0000       0.327095         8.9007 
 319   0.0000       0.332171         9.0388 
 320   0.0000       0.338458         9.2099 
 321   0.0000       0.340788         9.2733 
 322   0.0000       0.343927         9.3587 
 323   0.0000       0.346998         9.4423 
 324   0.0000       0.347985         9.4691 
 325   0.0000       0.353472         9.6185 
 326   0.0000       0.354562         9.6481 
 327   0.0000       0.357589         9.7305 
 328   0.0000       0.358815         9.7638 
 329   0.0000       0.361033         9.8242 
 330   0.0000       0.365123         9.9355 
 331   0.0000       0.367089         9.9890 
 332   0.0000       0.367717        10.0061 
 333   0.0000       0.370858        10.0916 
 334   0.0000       0.373521        10.1640 
 335   0.0000       0.375296        10.2123 
 336   0.0000       0.378277        10.2935 
 337   0.0000       0.382119        10.3980 
 338   0.0000       0.386103        10.5064 
 339   0.0000       0.387581        10.5466 
 340   0.0000       0.389999        10.6124 
 341   0.0000       0.391562        10.6549 
 342   0.0000       0.395913        10.7733 
 343   0.0000       0.399699        10.8764 
 344   0.0000       0.402564        10.9543 
 345   0.0000       0.404291        11.0013 
 346   0.0000       0.409942        11.1551 
 347   0.0000       0.415266        11.3000 
 348   0.0000       0.417438        11.3591 
 349   0.0000       0.421117        11.4592 
 350   0.0000       0.422214        11.4890 
 351   0.0000       0.423545        11.5252 
 352   0.0000       0.424417        11.5490 
 353   0.0000       0.429206        11.6793 
 354   0.0000       0.431733        11.7481 
 355   0.0000       0.434469        11.8225 
 356   0.0000       0.437969        11.9177 
 357   0.0000       0.442701        12.0465 
 358   0.0000       0.443663        12.0727 
 359   0.0000       0.448809        12.2127 
 360   0.0000       0.452728        12.3194 
 361   0.0000       0.453541        12.3415 
 362   0.0000       0.456519        12.4225 
 363   0.0000       0.459114        12.4931 
 364   0.0000       0.461294        12.5524 
 365   0.0000       0.462107        12.5746 
 366   0.0000       0.466869        12.7042 
 367   0.0000       0.470581        12.8052 
 368   0.0000       0.473511        12.8849 
 369   0.0000       0.479022        13.0348 
 370   0.0000       0.480550        13.0764 
 371   0.0000       0.484157        13.1746 
 372   0.0000       0.485154        13.2017 
 373   0.0000       0.487168        13.2565 
 374   0.0000       0.491546        13.3757 
 375   0.0000       0.494675        13.4608 
 376   0.0000       0.495524        13.4839 
 377   0.0000       0.498877        13.5751 
 378   0.0000       0.500351        13.6153 
 379   0.0000       0.506404        13.7799 
 380   0.0000       0.508379        13.8337 
 381   0.0000       0.512733        13.9522 
 382   0.0000       0.514679        14.0051 
 383   0.0000       0.518786        14.1169 
 384   0.0000       0.520221        14.1559 
 385   0.0000       0.525567        14.3014 
 386   0.0000       0.527703        14.3595 
 387   0.0000       0.532703        14.4956 
 388   0.0000       0.540391        14.7048 
 389   0.0000       0.542900        14.7731 
 390   0.0000       0.546507        14.8712 
 391   0.0000       0.556371        15.1396 
 392   0.0000       0.562093        15.2953 
 393   0.0000       0.568572        15.4716 
 394   0.0000       0.569903        15.5079 
 395   0.0000       0.573385        15.6026 
 396   0.0000       0.574721        15.6390 
 397   0.0000       0.580236        15.7890 
 398   0.0000       0.582915        15.8619 
 399   0.0000       0.587836        15.9958 
 400   0.0000       0.592170        16.1138 
 401   0.0000       0.599592        16.3157 
 402   0.0000       0.605122        16.4662 
 403   0.0000       0.608618        16.5613 
 404   0.0000       0.609844        16.5947 
 405   0.0000       0.611498        16.6397 
 406   0.0000       0.612691        16.6722 
 407   0.0000       0.613516        16.6946 
 408   0.0000       0.614046        16.7090 
 409   0.0000       0.617394        16.8001 
 410   0.0000       0.621428        16.9099 
 411   0.0000       0.623754        16.9732 
 412   0.0000       0.626928        17.0596 
 413   0.0000       0.627618        17.0784 
 414   0.0000       0.632967        17.2239 
 415   0.0000       0.639127        17.3915 
 416   0.0000       0.643144        17.5008 
 417   0.0000       0.645937        17.5768 
 418   0.0000       0.646816        17.6008 
 419   0.0000       0.649428        17.6718 
 420   0.0000       0.653094        17.7716 
 421   0.0000       0.657543        17.8927 
 422   0.0000       0.659857        17.9556 
 423   0.0000       0.660259        17.9666 
 424   0.0000       0.662201        18.0194 
 425   0.0000       0.663363        18.0510 
 426   0.0000       0.664500        18.0820 
 427   0.0000       0.665099        18.0983 
 428   0.0000       0.667509        18.1638 
 429   0.0000       0.668510        18.1911 
 430   0.0000       0.670743        18.2519 
 431   0.0000       0.672816        18.3083 
 432   0.0000       0.675389        18.3783 
 433   0.0000       0.680274        18.5112 
 434   0.0000       0.681328        18.5399 
 435   0.0000       0.684967        18.6389 
 436   0.0000       0.686546        18.6819 
 437   0.0000       0.688512        18.7354 
 438   0.0000       0.690763        18.7966 
 439   0.0000       0.692099        18.8330 
 440   0.0000       0.694725        18.9044 
 441   0.0000       0.698280        19.0012 
 442   0.0000       0.705107        19.1869 
 443   0.0000       0.706582        19.2271 
 444   0.0000       0.709434        19.3047 
 445   0.0000       0.710531        19.3345 
 446   0.0000       0.714195        19.4342 
 447   0.0000       0.715634        19.4734 
 448   0.0000       0.719059        19.5666 
 449   0.0000       0.720371        19.6023 
 450   0.0000       0.722047        19.6479 
 451   0.0000       0.728920        19.8349 
 452   0.0000       0.729175        19.8419 
 453   0.0000       0.731529        19.9059 
 454   0.0000       0.738508        20.0958 
 455   0.0000       0.742505        20.2046 
 456   0.0000       0.744679        20.2637 
 457   0.0000       0.745937        20.2980 
 458   0.0000       0.750350        20.4181 
 459   0.0000       0.752939        20.4885 
 460   0.0000       0.755554        20.5597 
 461   0.0000       0.763025        20.7630 
 462   0.0000       0.763576        20.7780 
 463   0.0000       0.764828        20.8120 
 464   0.0000       0.766503        20.8576 
 465   0.0000       0.770142        20.9566 
 466   0.0000       0.772816        21.0294 
 467   0.0000       0.778883        21.1945 
 468   0.0000       0.780965        21.2511 
 469   0.0000       0.785572        21.3765 
 470   0.0000       0.788492        21.4560 
 471   0.0000       0.792821        21.5738 
 472   0.0000       0.795875        21.6569 
 473   0.0000       0.799096        21.7445 
 474   0.0000       0.801004        21.7964 
 475   0.0000       0.805852        21.9283 
 476   0.0000       0.808159        21.9911 
 477   0.0000       0.812575        22.1113 
 478   0.0000       0.814557        22.1652 
 479   0.0000       0.817408        22.2428 
 480   0.0000       0.818776        22.2800 
 481   0.0000       0.821254        22.3475 
 482   0.0000       0.823937        22.4205 
 483   0.0000       0.827973        22.5303 
 484   0.0000       0.832487        22.6531 
 485   0.0000       0.835067        22.7233 
 486   0.0000       0.838588        22.8191 
 487   0.0000       0.839272        22.8377 
 488   0.0000       0.841186        22.8898 
 489   0.0000       0.844043        22.9676 
 490   0.0000       0.847125        23.0514 
 491   0.0000       0.848190        23.0804 
 492   0.0000       0.850243        23.1363 
 493   0.0000       0.854609        23.2551 
 494   0.0000       0.856179        23.2978 
 495   0.0000       0.857288        23.3280 
 496   0.0000       0.860098        23.4044 
 497   0.0000       0.861697        23.4480 
 498   0.0000       0.864424        23.5222 
 499   0.0000       0.865056        23.5394 
 500   0.0000       0.866842        23.5880 
 501   0.0000       0.867582        23.6081 
 502   0.0000       0.869107        23.6496 
 503   0.0000       0.871669        23.7193 
 504   0.0000       0.871891        23.7254 
 505   0.0000       0.874159        23.7871 
 506   0.0000       0.876950        23.8630 
 507   0.0000       0.879291        23.9267 
 508   0.0000       0.879871        23.9425 
 509   0.0000       0.881993        24.0003 
 510   0.0000       0.883374        24.0378 
[...]
   Time for J+K (Direct):  1919.156
   Time for Sigma-Completion:    12.475
   Size of expansion space: 24
   Lowest Energy          :     0.102257040269
   Maximum Energy change  :     0.000101283293 (vector 2)
   Maximum residual norm  :     0.000012954855

                       ****Iteration    6****
   Time for densities:     1.343
   Using LibInt in JK Direct
   Time for J+K (Direct):  2001.567
   Time for Sigma-Completion:    13.025
   Size of expansion space: 27
   Lowest Energy          :     0.102255752384
   Maximum Energy change  :     0.000033068127 (vector 2)
   Maximum residual norm  :     0.000005325023

                       ****Iteration    7****
   Time for densities:     1.429
   Using LibInt in JK Direct
   Time for J+K (Direct):  2012.024
   Time for Sigma-Completion:    12.935
   Size of expansion space: 30
   Lowest Energy          :     0.102255359237
   Maximum Energy change  :     0.000012994677 (vector 2)
   Maximum residual norm  :     0.000001954533
   Rebuilding the expansion space

                       ****Iteration    8****
   Time for densities:     2.811
   Using LibInt in JK Direct
   Time for J+K (Direct):  3914.824
   Time for Sigma-Completion:    22.075
   Size of expansion space: 6
   Lowest Energy          :     0.102255275896
   Maximum Energy change  :     0.000003663093 (vector 2)
   Maximum residual norm  :     0.000000750089

                       ****Iteration    9****
   Time for densities:     1.230
   Using LibInt in JK Direct
   Time for J+K (Direct):  1765.550
   Time for Sigma-Completion:     7.909
   Size of expansion space: 9
   Lowest Energy          :     0.102255236964
   Maximum Energy change  :     0.000002307071 (vector 2)
   Maximum residual norm  :     0.000000401071

                       ****Iteration   10****
   Time for densities:     1.262
   Using LibInt in JK Direct
   Time for J+K (Direct):  2030.323
   Time for Sigma-Completion:    12.412
   Size of expansion space: 12
   Lowest Energy          :     0.102255223120
   Maximum Energy change  :     0.000001271483 (vector 2)
   Maximum residual norm  :     0.000000216724

      *** CONVERGENCE OF RESIDUAL NORM REACHED ***

Storing the converged CI vectors               ... FDICTF.cis1

                 *** DAVIDSON DONE ***

Total time for solving the CIS problem: 29880.654sec

-----------------------------
CIS-EXCITED STATES (SINGLETS)
-----------------------------

the weight of the individual excitations are printed if larger than 1.0e-02

STATE  1:  E=   0.102255 au      2.783 eV    22442.4 cm**-1
   241a -> 244a  :     0.020618 (c= -0.14359005)
   241a -> 248a  :     0.011133 (c= -0.10551472)
   242a -> 245a  :     0.247145 (c=  0.49713714)
   242a -> 247a  :     0.012193 (c= -0.11042303)
   243a -> 244a  :     0.591357 (c=  0.76899722)
   243a -> 246a  :     0.018942 (c= -0.13763082)
   243a -> 248a  :     0.013945 (c= -0.11808819)

STATE  2:  E=   0.115469 au      3.142 eV    25342.5 cm**-1
   241a -> 245a  :     0.071281 (c=  0.26698415)
   242a -> 244a  :     0.396378 (c= -0.62958552)
   243a -> 245a  :     0.399244 (c= -0.63185778)
   243a -> 247a  :     0.012622 (c=  0.11234556)
   243a -> 249a  :     0.011115 (c=  0.10542930)

STATE  3:  E=   0.157000 au      4.272 eV    34457.5 cm**-1
   232a -> 245a  :     0.022883 (c=  0.15127152)
   240a -> 245a  :     0.020132 (c= -0.14188695)
   241a -> 244a  :     0.147296 (c= -0.38379126)
   241a -> 246a  :     0.014436 (c= -0.12014948)
   242a -> 245a  :     0.132184 (c=  0.36357137)
   242a -> 246a  :     0.019218 (c= -0.13862895)
   242a -> 247a  :     0.040251 (c=  0.20062760)
   242a -> 249a  :     0.011239 (c=  0.10601353)
   243a -> 244a  :     0.020368 (c= -0.14271574)
   243a -> 246a  :     0.277166 (c=  0.52646584)
   243a -> 248a  :     0.125824 (c=  0.35471629)
   243a -> 251a  :     0.019892 (c= -0.14103857)


----------------------
CIS-EXCITATION SPECTRA
----------------------

Center of mass = (-14.1676,-17.4153, -0.2926)
Calculating the Dipole integrals                  ... done
Transforming integrals                            ... done
Calculating the Linear Momentum integrals         ... done
Transforming integrals                            ... done
Calculating angular momentum integrals            ... done
Transforming integrals                            ... done

-----------------------------------------------------------------------------
         ABSORPTION SPECTRUM VIA TRANSITION ELECTRIC DIPOLE MOMENTS
-----------------------------------------------------------------------------
State   Energy    Wavelength  fosc         T2        TX        TY        TZ  
        (cm-1)      (nm)                 (au**2)    (au)      (au)      (au) 
-----------------------------------------------------------------------------
   1   22442.4    445.6   2.127001006  31.20135   3.24715   4.50462  -0.60482
   2   25342.5    394.6   0.192395052   2.49931   1.32963  -0.52254  -0.67700
   3   34457.5    290.2   0.764486058   7.30402  -2.14865  -1.52432  -0.60314

-----------------------------------------------------------------------------
         ABSORPTION SPECTRUM VIA TRANSITION VELOCITY DIPOLE MOMENTS
-----------------------------------------------------------------------------
State   Energy    Wavelength   fosc        P2         PX        PY        PZ  
        (cm-1)      (nm)                 (au**2)     (au)      (au)      (au) 
-----------------------------------------------------------------------------
   1   22442.4    445.6   1.360830916   0.20873  -0.25222  -0.37630   0.05924
   2   25342.5    394.6   0.038720486   0.00671  -0.07857   0.01718  -0.01545
   3   34457.5    290.2   0.147222167   0.03467   0.12396   0.13859  -0.00983

-------------------------------------------------------------------
                             CD SPECTRUM
-------------------------------------------------------------------
State  Energy     Wavelength     R         MX        MY        MZ   
       (cm-1)       (nm)     (1e40*cgs)   (au)      (au)      (au)  
-------------------------------------------------------------------
   1   22442.4    445.6    791.38164  -0.23987   0.40169  -1.07143
   2   25342.5    394.6    -973.52535  -0.69858   0.82987   1.03761
   3   34457.5    290.2     54.37188   0.03536   0.04562  -0.43250

Total run time:    29949.907 sec

           *** ORCA-CIS/TD-DFT FINISHED WITHOUT ERROR ***

-----------------------
CIS/TD-DFT TOTAL ENERGY
-----------------------

    E(SCF)  =  -3496.957840478 Eh
    DE(CIS) =      0.102255223 Eh (Root  1)
    ----------------------------- ---------
    E(tot)  =  -3496.855585254 Eh


-------------------------   --------------------
FINAL SINGLE POINT ENERGY     -3496.855585254382
-------------------------   --------------------

------------------------------------------------------------------------------
                         ORCA SCF GRADIENT CALCULATION
------------------------------------------------------------------------------


------------
CIS GRADIENT
------------

Reference wavefunction             ... RHF
State of interest                  ... 1
Basis dimension                    ... 1204
DFT-XC contribution needed         ... NO
RI-approximation                   ... OFF
CIS-vectors being read from        ... FDICTF.cis

 => Number of Vectors found: 3
 => Orbital Window: 77...243 -> 244...1203

Reading the CIS file                     ... done
Norm of the CI vector                    ... 1.000000000
Making the CIS (pseudo)densities         ... done
Making operators G(D) and Q(T)           ... done
Transforming the Fock operators          ... done
Making the frozen-core relaxed density   ... done
Constructing the G(H) operator           ... done
Transforming the G(H) operator           ... done
Calculating the CIS Lagrangian           ... done
Solving the Z-vector equations           ... done
Finalizing the relaxed density           ... done
Storing the relaxed density              ... done
Constructing the G(Z) operator           ... done
Transforming the G(Z) operator           ... done
Making the W-matrix                      ... done
Finalizing the W-matrix                  ... done
Transforming the W-matrix                ... done
Nuclear repulsion gradient               ... done
One-Electron gradient                    ... done
Prescreening matrices                    ... done
Two-Electron gradient (4-center)         ... done
                 ---------------------------
                 EXCITED STATE GRADIENT DONE
                 ---------------------------


------------------
CARTESIAN GRADIENT
------------------

   1   C   :   -0.009027952    0.006631350   -0.037495958
   2   O   :    0.012389034   -0.005522604    0.037342643
   3   C   :   -0.001363515   -0.007441735    0.010468490
   4   C   :    0.000943445    0.004994730   -0.002566237
   5   C   :   -0.000782064   -0.002087991    0.000737895
   6   C   :   -0.000835765   -0.001877099   -0.000012490
   7   C   :    0.002881909    0.001262250    0.002272823
   8   C   :   -0.010780846   -0.014663506   -0.009551399
   9   C   :    0.001241446    0.017266513    0.003566487
  10   C   :    0.000418167   -0.010974695   -0.014677582
  11   C   :    0.007924627    0.057984798    0.000437206
  12   N   :   -0.012088112   -0.032048119    0.002433902
  13   C   :    0.000647429   -0.018848019    0.054419540
  14   N   :   -0.001225785    0.008293862   -0.031387135
  15   C   :   -0.002200024   -0.004906903   -0.001869764
  16   C   :    0.002596028    0.004876562   -0.005660123
  17   C   :   -0.001260050    0.002606494   -0.008530462
  18   C   :    0.009282950   -0.002318602   -0.003864340
  19   C   :   -0.003486458    0.006221480   -0.009139693
  20   C   :    0.002053037   -0.003361969    0.002931615
  21   S   :   -0.001062144    0.001436682   -0.000438410
  22   C   :   -0.006254495   -0.007239035    0.000778286
  23   C   :    0.005557918    0.005432249   -0.000619121
  24   C   :   -0.002071736   -0.010612552    0.003169701
  25   C   :    0.004436857    0.001053489   -0.000138222
  26   C   :   -0.002990436   -0.002858493   -0.002376179
  27   C   :   -0.000970095    0.006611399    0.003203301
  28   C   :   -0.003031803   -0.003254534    0.001838787
  29   C   :   -0.002679913   -0.007618270    0.000917671
  30   C   :    0.003411657    0.005942537   -0.002039094
  31   C   :   -0.004918524   -0.005948552   -0.000229048
  32   C   :    0.005127883    0.007227174   -0.000940435
  33   C   :    0.001582212    0.005638990   -0.009489654
  34   C   :   -0.001184795   -0.000346498    0.007573681
  35   C   :   -0.001433463    0.001974991   -0.003603502
  36   C   :   -0.002435168   -0.003986231   -0.002277469
  37   C   :    0.003985972    0.001929636    0.000328441
  38   C   :    0.005214758    0.004425259    0.000184348
  39   C   :   -0.006279473   -0.002370500   -0.003491591
  40   C   :    0.007886237    0.003601635    0.003313012
  41   C   :   -0.004535122   -0.005117755   -0.000530456
  42   C   :    0.007444479    0.005860779    0.003593014
  43   C   :   -0.008057091   -0.005089466   -0.003133036
  44   C   :   -0.000448556    0.002023571   -0.000991910
  45   C   :   -0.001359461    0.002711432   -0.007217953
  46   C   :    0.003361541   -0.002793712    0.005573393
  47   C   :   -0.003656765   -0.002893321    0.001861627
  48   C   :    0.001606539    0.004389039    0.000429628
  49   C   :    0.003590318    0.001266986    0.000251106
  50   C   :   -0.003054696   -0.003327445   -0.002166820
  51   C   :   -0.000643383   -0.003233133    0.001117216
  52   C   :    0.001586833    0.002718360   -0.006471083
  53   S   :    0.000413140   -0.007471040   -0.005793641
  54   C   :    0.004213041   -0.007307064    0.005527758
  55   C   :    0.002816373    0.002015310   -0.004299569
  56   C   :   -0.006740748   -0.005378747    0.017538485
  57   C   :    0.016412879   -0.001870366   -0.011123886
  58   C   :   -0.047754547    0.028701631   -0.013911252
  59   N   :    0.027825453   -0.015405141    0.005978606
  60   C   :   -0.007535357   -0.028801228    0.049891741
  61   N   :    0.003175113    0.020873381   -0.025349038
  62   C   :    0.014636516    0.011809937   -0.009417407
  63   C   :   -0.002918136   -0.002445930    0.000124566
  64   C   :    0.000690341    0.001498236   -0.001337464
  65   C   :   -0.000051243    0.001850602   -0.001631498
  66   C   :    0.001220771   -0.003583409    0.004054132
  67   C   :   -0.008273761    0.008407736   -0.005954020
  68   C   :    0.036900201   -0.009475425    0.008894013
  69   O   :   -0.037959687    0.005657121   -0.009596856
  70   H   :   -0.000805548   -0.000329483   -0.001376155
  71   H   :   -0.000678255   -0.001574191   -0.000140420
  72   H   :   -0.000143265   -0.001099329    0.001121632
  73   H   :   -0.001418778   -0.001537174   -0.000331524
  74   H   :   -0.001002943   -0.000849872    0.001833424
  75   H   :   -0.000396130   -0.001227940    0.001620023
  76   H   :    0.000460198   -0.000023961   -0.001487201
  77   H   :   -0.001249674   -0.002382507    0.001021913
  78   H   :    0.002213118   -0.000336675    0.002399635
  79   H   :    0.002322126   -0.001010344    0.000475172
  80   H   :    0.003123846    0.000347322    0.001032600
  81   H   :    0.003554719   -0.002201177    0.001997657
  82   H   :   -0.002307303   -0.000331896    0.000368248
  83   H   :    0.000252024    0.001252989    0.002383210
  84   H   :    0.000445117    0.000882925    0.002526597
  85   H   :    0.002657900    0.001562112    0.001980907
  86   H   :   -0.000764742   -0.000193391    0.000137237
  87   H   :    0.000143910    0.000885765   -0.000989713
  88   H   :   -0.001472659   -0.000097984   -0.002446559
  89   H   :    0.000470608    0.002368857   -0.002002537
  90   H   :   -0.001086347    0.001551828    0.002137559
  91   H   :   -0.002062935    0.001771973    0.001639554
  92   H   :   -0.001783869    0.000594554    0.002239148
  93   H   :    0.001744774   -0.000751751   -0.000014556
  94   H   :    0.000393968    0.002232400   -0.001337502
  95   H   :   -0.002852065    0.000111896   -0.002290299
  96   H   :   -0.000457014   -0.000787469   -0.002702777
  97   H   :   -0.000968072   -0.001324743   -0.002427314
  98   H   :    0.000273354    0.000101215    0.000748917
  99   H   :   -0.000977699    0.000615610   -0.001289305
 100   H   :   -0.001679140    0.001647814    0.000697377
 101   H   :    0.002646922    0.000826391    0.001350603
 102   H   :    0.000181915   -0.003209980    0.001820885
 103   H   :   -0.000932924   -0.000951223    0.002494281
 104   H   :   -0.001326851   -0.001688157    0.001825374
 105   H   :    0.001037971   -0.000845108   -0.001914986
 106   H   :   -0.000848917   -0.002107782    0.001278425
 107   H   :    0.002643892   -0.000722258    0.000599701
 108   H   :    0.003019715    0.000703093    0.000578418
 109   H   :    0.002159764    0.000208299    0.002812805
 110   H   :    0.002633035   -0.000104249    0.001991491
 111   H   :   -0.001334250    0.001222702    0.000958858
 112   H   :    0.000706270    0.001670376   -0.000775196
 113   H   :   -0.000830305    0.000992418   -0.000913979
 114   H   :    0.000582845    0.001130359   -0.001131542
 115   H   :    0.001587759    0.000290636    0.000070595

Difference to translation invariance:
           :   -0.0000000000    0.0000000004    0.0000000000

Norm of the cartesian gradient     ...    0.1712928664
RMS gradient                       ...    0.0092220979
MAX gradient                       ...    0.0579847977

-------
TIMINGS
-------

Total CIS gradient time            ...    29339.213 sec

Fock matrix formation       ....    2296.499 sec  (  7.8%)
  Coulomb formation         ....    2296.499 sec  (100.0% of F)
Z-vector equation           ....   24704.494 sec  ( 84.2%)
One electron gradient       ....      16.797 sec  (  0.1%)
Prescreening matrices       ....       1.237 sec  (  0.0%)
Two electron gradient       ....    2316.990 sec  (  7.9%)

                            ***************************************
                            *     ORCA property calculations      *
                            ***************************************

                                    ---------------------
                                    Active property flags
                                    ---------------------
   (+) Dipole Moment


------------------------------------------------------------------------------
                       ORCA ELECTRIC PROPERTIES CALCULATION
------------------------------------------------------------------------------

Dipole Moment Calculation                       ... on
Quadrupole Moment Calculation                   ... off
Polarizability Calculation                      ... off
GBWName                                         ... FDICTF.gbw
Electron density file                           ... FDICTF.scfp
The origin for moment calculation is the CENTER OF MASS  = (-14.167648, -17.415342 -0.292629)

-------------
DIPOLE MOMENT
-------------
                                X             Y             Z
Electronic contribution:     26.65352     -21.83336      14.72853
Nuclear contribution   :    -28.50590      23.76822     -12.96943
                        -----------------------------------------
Total Dipole Moment    :     -1.85238       1.93486       1.75910
                        -----------------------------------------
Magnitude (a.u.)       :      3.20459
Magnitude (Debye)      :      8.14543



--------------------
Rotational spectrum 
--------------------
 
Rotational constants in cm-1:     0.003035     0.000306     0.000293 
Rotational constants in MHz :    90.975137     9.185461     8.795122 

 Dipole components along the rotational axes: 
x,y,z [a.u.] :    -0.248453    -0.604761     3.137189 
x,y,z [Debye]:    -0.631517    -1.537181     7.974099 

 

                        *** CIS RELAXED DENSITY ***

------------------------------------------------------------------------------
                       ORCA ELECTRIC PROPERTIES CALCULATION
------------------------------------------------------------------------------

Dipole Moment Calculation                       ... on
Quadrupole Moment Calculation                   ... off
Polarizability Calculation                      ... off
GBWName                                         ... FDICTF.gbw
Electron density file                           ... FDICTF.cisp
The origin for moment calculation is the CENTER OF MASS  = (-14.167648, -17.415342 -0.292629)

-------------
DIPOLE MOMENT
-------------
                                X             Y             Z
Electronic contribution:     26.29028     -21.53256      14.80466
Nuclear contribution   :    -28.50590      23.76822     -12.96943
                        -----------------------------------------
Total Dipole Moment    :     -2.21562       2.23566       1.83522
                        -----------------------------------------
Magnitude (a.u.)       :      3.64351
Magnitude (Debye)      :      9.26108



--------------------
Rotational spectrum 
--------------------
 
Rotational constants in cm-1:     0.003035     0.000306     0.000293 
Rotational constants in MHz :    90.975137     9.185461     8.795122 

 Dipole components along the rotational axes: 
x,y,z [a.u.] :    -0.254058    -0.882411     3.525904 
x,y,z [Debye]:    -0.645765    -2.242910     8.962136 

 

Timings for individual modules:

Sum of individual times         ...    68727.452 sec (=1145.458 min)
GTO integral calculation        ...        1.663 sec (=   0.028 min)   0.0 %
SCF iterations                  ...     9434.674 sec (= 157.245 min)  13.7 %
CIS module                      ...    29949.975 sec (= 499.166 min)  43.6 %
SCF Gradient evaluation         ...    29341.140 sec (= 489.019 min)  42.7 %
                             ****ORCA TERMINATED NORMALLY****
TOTAL RUN TIME: 0 days 19 hours 5 minutes 29 seconds 760 msec
