
                                 *****************
                                 * O   R   C   A *
                                 *****************

           --- An Ab Initio, DFT and Semiempirical electronic structure package ---

                  #######################################################
                  #                        -***-                        #
                  #          Department of theory and spectroscopy      #
                  #               Directorship: Frank Neese             #
                  #        Max Planck Institute fuer Kohlenforschung    #
                  #                Kaiser Wilhelm Platz 1               #
                  #                 D-45470 Muelheim/Ruhr               #
                  #                      Germany                        #
                  #                                                     #
                  #                  All rights reserved                #
                  #                        -***-                        #
                  #######################################################


                         Program Version 4.2.0 -  RELEASE  -


 With contributions from (in alphabetic order):
   Daniel Aravena         : Magnetic Suceptibility
   Michael Atanasov       : Ab Initio Ligand Field Theory (pilot matlab implementation)
   Alexander A. Auer      : GIAO ZORA, VPT2
   Ute Becker             : Parallelization
   Giovanni Bistoni       : ED, misc. LED, open-shell LED, HFLED
   Martin Brehm           : Molecular dynamics
   Dmytro Bykov           : SCF Hessian
   Vijay G. Chilkuri      : MRCI spin determinant printing, contributions to CSF-ICE
   Dipayan Datta          : RHF DLPNO-CCSD density
   Achintya Kumar Dutta   : EOM-CC, STEOM-CC
   Dmitry Ganyushin       : Spin-Orbit,Spin-Spin,Magnetic field MRCI
   Miquel Garcia          : C-PCM Hessian, Gaussian charge scheme
   Yang Guo               : DLPNO-NEVPT2, CIM, IAO-localization
   Andreas Hansen         : Spin unrestricted coupled pair/coupled cluster methods
   Benjamin Helmich-Paris : CASSCF linear response (MC-RPA)
   Lee Huntington         : MR-EOM, pCC
   Robert Izsak           : Overlap fitted RIJCOSX, COSX-SCS-MP3, EOM
   Christian Kollmar      : KDIIS, OOCD, Brueckner-CCSD(T), CCSD density
   Simone Kossmann        : Meta GGA functionals, TD-DFT gradient, OOMP2, MP2 Hessian
   Martin Krupicka        : AUTO-CI
   Lucas Lang             : DCDCAS
   Dagmar Lenk            : GEPOL surface, SMD
   Dimitrios Liakos       : Extrapolation schemes; Compound Job, initial MDCI parallelization
   Dimitrios Manganas     : Further ROCIS development; embedding schemes
   Dimitrios Pantazis     : SARC Basis sets
   Taras Petrenko         : DFT Hessian,TD-DFT gradient, ASA, ECA, R-Raman, ABS, FL, XAS/XES, NRVS
   Peter Pinski           : DLPNO-MP2, DLPNO-MP2 Gradient
   Christoph Reimann      : Effective Core Potentials
   Marius Retegan         : Local ZFS, SOC
   Christoph Riplinger    : Optimizer, TS searches, QM/MM, DLPNO-CCSD(T), (RO)-DLPNO pert. Triples
   Tobias Risthaus        : Range-separated hybrids, TD-DFT gradient, RPA, STAB
   Michael Roemelt        : Original ROCIS implementation
   Masaaki Saitow         : Open-shell DLPNO-CCSD energy and density
   Barbara Sandhoefer     : DKH picture change effects
   Avijit Sen             : IP-ROCIS
   Kantharuban Sivalingam : CASSCF convergence, NEVPT2, FIC-MRCI
   Bernardo de Souza      : ESD, SOC TD-DFT
   Georgi Stoychev        : AutoAux, RI-MP2 NMR
   Willem Van den Heuvel  : Paramagnetic NMR
   Boris Wezisla          : Elementary symmetry handling
   Frank Wennmohs         : Technical directorship


 We gratefully acknowledge several colleagues who have allowed us to
 interface, adapt or use parts of their codes:
   Stefan Grimme, W. Hujo, H. Kruse,             : VdW corrections, initial TS optimization,
                  C. Bannwarth                     DFT functionals, gCP, sTDA/sTD-DF
   Ed Valeev, F. Pavosevic, A. Kumar             : LibInt (2-el integral package), F12 methods
   Garnet Chan, S. Sharma, J. Yang, R. Olivares  : DMRG
   Ulf Ekstrom                                   : XCFun DFT Library
   Mihaly Kallay                                 : mrcc  (arbitrary order and MRCC methods)
   Andreas Klamt, Michael Diedenhofen            : otool_cosmo (COSMO solvation model)
   Jiri Pittner, Ondrej Demel                    : Mk-CCSD
   Frank Weinhold                                : gennbo (NPA and NBO analysis)
   Christopher J. Cramer and Donald G. Truhlar   : smd solvation model
   Lars Goerigk                                  : TD-DFT with DH, B97 family of functionals
   V. Asgeirsson, H. Jonsson                     : NEB implementation
   FAccTs GmbH                                   : IRC, NEB, NEB-TS, Multilevel, MM, QM/MM, CI optimization
   S Lehtola, MJT Oliveira, MAL Marques          : LibXC Library


 Your calculation uses the libint2 library for the computation of 2-el integrals
 For citations please refer to: http://libint.valeyev.net

 Your ORCA version has been built with support for libXC version: 4.2.3
 For citations please refer to: https://tddft.org/programs/libxc/

 This ORCA versions uses:
   CBLAS   interface :  Fast vector & matrix operations
   LAPACKE interface :  Fast linear algebra routines
   SCALAPACK package :  Parallel linear algebra routines


----- Orbital basis set information -----
Your calculation utilizes the basis: def2-SVP
   F. Weigend and R. Ahlrichs, Phys. Chem. Chem. Phys. 7, 3297 (2005).

================================================================================
                                        WARNINGS
                       Please study these warnings very carefully!
================================================================================

INFO   : Checking CIS options ...

WARNING: CIS/ROCIS methods need fully converged wavefunctions
  ===> : Setting SCFConvForced true
         You can overwrite this default with %scf ConvForced false 


INFO   : the flag for use of LIBINT has been found!

================================================================================
                                       INPUT FILE
================================================================================
NAME = H2.inp
|  1> # ORCA input file
|  2> # H2.out
|  3> ! Engrad Keepdens
|  4> %maxcore 1000
|  5> %tddft
|  6>   nroots 3 
|  7>   # nroots is the number of states to be computed
|  8>   Iroot 1
|  9>   end
| 10> * xyz 0 1
| 11>    C        1.75640        -1.75825        -1.75321
| 12>    O        2.27973        -1.32069        -2.75288
| 13>    C        2.38931        -2.06271        -0.45189
| 14>    C        3.71959        -1.98277        -0.08604
| 15>    C        4.07804        -2.35402         1.20040
| 16>    C        3.10716        -2.79808         2.09140
| 17>   Cl        3.57918        -3.27108         3.67900
| 18>    C        1.76213        -2.87260         1.74206
| 19>    C        1.40829        -2.49761         0.45868
| 20>    C        0.10028        -2.41408        -0.19024
| 21>    C       -1.10195        -2.29907         0.45867
| 22>    C       -2.27948        -1.87127        -0.18990
| 23>    N       -3.23661        -1.46832        -0.67944
| 24>    C       -1.28077        -2.50724         1.83971
| 25>    N       -1.49237        -2.70020         2.95154
| 26>    C        0.33599        -2.16105        -1.59249
| 27>    C       -0.46150        -2.31340        -2.68873
| 28>    C       -1.65158        -3.05611        -2.81961
| 29>    S       -2.02732        -4.39309        -1.73011
| 30>    C       -3.50031        -4.69919        -2.57272
| 31>    C       -3.66072        -3.81789        -3.65081
| 32>    C       -2.61516        -2.90522        -3.81098
| 33>    C       -2.60929        -1.82432        -4.83732
| 34>    C       -3.10663        -0.51143        -4.22694
| 35>    S       -5.14755        -4.07116        -4.53579
| 36>    C       -5.54631        -5.34904        -3.44398
| 37>    C       -4.58273        -5.57308        -2.45292
| 38>    N       -4.98471        -6.58627        -1.62714
| 39>    C       -4.02602        -7.18107        -0.72814
| 40>    C       -6.21935        -7.03254        -2.06799
| 41>    C       -6.57168        -6.27820        -3.22861
| 42>    C       -7.72743        -6.55448        -3.99103
| 43>    N       -8.15052        -5.96219        -5.09673
| 44>    S       -9.49780        -6.70971        -5.59386
| 45>    N       -9.59226        -7.81674        -4.41640
| 46>    C       -8.57176        -7.63879        -3.59217
| 47>    C       -8.27148        -8.32820        -2.39723
| 48>    C       -7.13573        -8.01034        -1.59171
| 49>    N       -7.20055        -8.77778        -0.44125
| 50>    C       -6.50077        -8.66452         0.81519
| 51>    C       -6.74062        -7.32395         1.53167
| 52>    C       -8.32228        -9.55667        -0.51481
| 53>    C       -8.99533        -9.31573        -1.71788
| 54>    S      -10.44926       -10.23017        -1.90272
| 55>    C      -10.16440       -10.95628        -0.33591
| 56>    C       -8.99648       -10.48722         0.28177
| 57>    S       -8.81177       -11.16875         1.85216
| 58>    C      -10.27746       -12.13011         1.63954
| 59>    C      -10.89608       -11.88294         0.41885
| 60>    C      -12.25083       -12.35682         0.00255
| 61>    C      -12.21484       -13.13914        -1.31027
| 62>    C      -10.69301       -12.88508         2.75843
| 63>    C      -11.34526       -14.08737         2.74110
| 64>    C      -11.98010       -14.73701         3.86570
| 65>    C      -12.27732       -14.16366         5.07483
| 66>    C      -12.00673       -12.82099         5.41278
| 67>    N      -11.83786       -11.73548         5.74708
| 68>    C      -12.91546       -14.83699         6.13705
| 69>    N      -13.42348       -15.33000         7.04063
| 70>    C      -12.33681       -16.09259         3.44854
| 71>    C      -12.96121       -17.12145         4.13262
| 72>    C      -13.18221       -18.31540         3.45251
| 73>   Cl      -13.96122       -19.60871         4.28239
| 74>    C      -12.79359       -18.49643         2.12984
| 75>    C      -12.16029       -17.46799         1.45044
| 76>    C      -11.94235       -16.27414         2.11135
| 77>    C      -11.28818       -15.04782         1.61346
| 78>    O      -10.71212       -14.91188         0.55543
| 79>    C       -3.54087        -8.56611        -1.19009
| 80>    C       -2.82537        -8.48528        -2.54992
| 81>    C       -2.61706        -9.15027        -0.11089
| 82>    C       -2.46007       -10.66156        -0.23061
| 83>    C       -3.73135        -8.78649        -3.73936
| 84>    C       -8.22130        -7.14138         1.90507
| 85>    C       -9.03510        -6.39432         0.85343
| 86>    C       -5.84768        -7.26555         2.78086
| 87>    C       -5.62945        -5.84146         3.27828
| 88>    H        4.45678        -1.63628        -0.79347
| 89>    H        5.10725        -2.30353         1.51874
| 90>    H        1.03498        -3.22228         2.45692
| 91>    H       -0.08221        -1.86056        -3.60012
| 92>    H       -3.26809        -2.11765        -5.65690
| 93>    H       -1.60099        -1.68393        -5.23213
| 94>    H       -4.11183        -0.63651        -3.83310
| 95>    H       -3.12071         0.26937        -4.98249
| 96>    H       -2.45829        -0.20149        -3.41088
| 97>    H       -4.43126        -7.22354         0.28163
| 98>    H       -3.16789        -6.50406        -0.69510
| 99>    H       -5.43663        -8.84621         0.66631
|100>    H       -6.87320        -9.47074         1.45310
|101>    H       -6.45554        -6.50763         0.85890
|102>    H      -12.88189       -11.47191        -0.13133
|103>    H      -12.68906       -12.97049         0.79005
|104>    H      -11.84697       -12.51338        -2.11893
|105>    H      -13.21621       -13.47933        -1.56134
|106>    H      -11.56374       -14.00260        -1.21071
|107>    H      -10.42223       -12.46304         3.71984
|108>    H      -13.27143       -17.02375         5.15984
|109>    H      -12.98758       -19.43894         1.64285
|110>    H      -11.84537       -17.58532         0.42516
|111>    H       -4.41024        -9.22398        -1.29910
|112>    H       -2.00629        -9.20559        -2.56137
|113>    H       -2.37997        -7.49532        -2.67056
|114>    H       -3.01868        -8.92315         0.88025
|115>    H       -1.63992        -8.66856        -0.18096
|116>    H       -3.42236       -11.15581        -0.11344
|117>    H       -1.78994       -11.03143         0.54122
|118>    H       -2.05002       -10.94051        -1.19765
|119>    H       -4.17293        -9.77604        -3.63973
|120>    H       -3.15410        -8.76425        -4.66076
|121>    H       -4.53615        -8.06273        -3.83187
|122>    H       -8.28004        -6.57575         2.83568
|123>    H       -8.67323        -8.11700         2.09593
|124>    H       -8.60059        -5.41526         0.66167
|125>    H      -10.05298        -6.24959         1.20783
|126>    H       -9.08346        -6.93495        -0.08749
|127>    H       -4.87151        -7.70586         2.55931
|128>    H       -6.30144        -7.86897         3.56918
|129>    H       -5.13866        -5.23925         2.51631
|130>    H       -5.00045        -5.84532         4.16456
|131>    H       -6.57165        -5.36437         3.53377
|132> *
|133> 
|134>                          ****END OF INPUT****
================================================================================

                     *******************************
                     * Energy+Gradient Calculation *
                     *******************************

---------------------------------
CARTESIAN COORDINATES (ANGSTROEM)
---------------------------------
  C      1.756400   -1.758250   -1.753210
  O      2.279730   -1.320690   -2.752880
  C      2.389310   -2.062710   -0.451890
  C      3.719590   -1.982770   -0.086040
  C      4.078040   -2.354020    1.200400
  C      3.107160   -2.798080    2.091400
  Cl     3.579180   -3.271080    3.679000
  C      1.762130   -2.872600    1.742060
  C      1.408290   -2.497610    0.458680
  C      0.100280   -2.414080   -0.190240
  C     -1.101950   -2.299070    0.458670
  C     -2.279480   -1.871270   -0.189900
  N     -3.236610   -1.468320   -0.679440
  C     -1.280770   -2.507240    1.839710
  N     -1.492370   -2.700200    2.951540
  C      0.335990   -2.161050   -1.592490
  C     -0.461500   -2.313400   -2.688730
  C     -1.651580   -3.056110   -2.819610
  S     -2.027320   -4.393090   -1.730110
  C     -3.500310   -4.699190   -2.572720
  C     -3.660720   -3.817890   -3.650810
  C     -2.615160   -2.905220   -3.810980
  C     -2.609290   -1.824320   -4.837320
  C     -3.106630   -0.511430   -4.226940
  S     -5.147550   -4.071160   -4.535790
  C     -5.546310   -5.349040   -3.443980
  C     -4.582730   -5.573080   -2.452920
  N     -4.984710   -6.586270   -1.627140
  C     -4.026020   -7.181070   -0.728140
  C     -6.219350   -7.032540   -2.067990
  C     -6.571680   -6.278200   -3.228610
  C     -7.727430   -6.554480   -3.991030
  N     -8.150520   -5.962190   -5.096730
  S     -9.497800   -6.709710   -5.593860
  N     -9.592260   -7.816740   -4.416400
  C     -8.571760   -7.638790   -3.592170
  C     -8.271480   -8.328200   -2.397230
  C     -7.135730   -8.010340   -1.591710
  N     -7.200550   -8.777780   -0.441250
  C     -6.500770   -8.664520    0.815190
  C     -6.740620   -7.323950    1.531670
  C     -8.322280   -9.556670   -0.514810
  C     -8.995330   -9.315730   -1.717880
  S    -10.449260  -10.230170   -1.902720
  C    -10.164400  -10.956280   -0.335910
  C     -8.996480  -10.487220    0.281770
  S     -8.811770  -11.168750    1.852160
  C    -10.277460  -12.130110    1.639540
  C    -10.896080  -11.882940    0.418850
  C    -12.250830  -12.356820    0.002550
  C    -12.214840  -13.139140   -1.310270
  C    -10.693010  -12.885080    2.758430
  C    -11.345260  -14.087370    2.741100
  C    -11.980100  -14.737010    3.865700
  C    -12.277320  -14.163660    5.074830
  C    -12.006730  -12.820990    5.412780
  N    -11.837860  -11.735480    5.747080
  C    -12.915460  -14.836990    6.137050
  N    -13.423480  -15.330000    7.040630
  C    -12.336810  -16.092590    3.448540
  C    -12.961210  -17.121450    4.132620
  C    -13.182210  -18.315400    3.452510
  Cl   -13.961220  -19.608710    4.282390
  C    -12.793590  -18.496430    2.129840
  C    -12.160290  -17.467990    1.450440
  C    -11.942350  -16.274140    2.111350
  C    -11.288180  -15.047820    1.613460
  O    -10.712120  -14.911880    0.555430
  C     -3.540870   -8.566110   -1.190090
  C     -2.825370   -8.485280   -2.549920
  C     -2.617060   -9.150270   -0.110890
  C     -2.460070  -10.661560   -0.230610
  C     -3.731350   -8.786490   -3.739360
  C     -8.221300   -7.141380    1.905070
  C     -9.035100   -6.394320    0.853430
  C     -5.847680   -7.265550    2.780860
  C     -5.629450   -5.841460    3.278280
  H      4.456780   -1.636280   -0.793470
  H      5.107250   -2.303530    1.518740
  H      1.034980   -3.222280    2.456920
  H     -0.082210   -1.860560   -3.600120
  H     -3.268090   -2.117650   -5.656900
  H     -1.600990   -1.683930   -5.232130
  H     -4.111830   -0.636510   -3.833100
  H     -3.120710    0.269370   -4.982490
  H     -2.458290   -0.201490   -3.410880
  H     -4.431260   -7.223540    0.281630
  H     -3.167890   -6.504060   -0.695100
  H     -5.436630   -8.846210    0.666310
  H     -6.873200   -9.470740    1.453100
  H     -6.455540   -6.507630    0.858900
  H    -12.881890  -11.471910   -0.131330
  H    -12.689060  -12.970490    0.790050
  H    -11.846970  -12.513380   -2.118930
  H    -13.216210  -13.479330   -1.561340
  H    -11.563740  -14.002600   -1.210710
  H    -10.422230  -12.463040    3.719840
  H    -13.271430  -17.023750    5.159840
  H    -12.987580  -19.438940    1.642850
  H    -11.845370  -17.585320    0.425160
  H     -4.410240   -9.223980   -1.299100
  H     -2.006290   -9.205590   -2.561370
  H     -2.379970   -7.495320   -2.670560
  H     -3.018680   -8.923150    0.880250
  H     -1.639920   -8.668560   -0.180960
  H     -3.422360  -11.155810   -0.113440
  H     -1.789940  -11.031430    0.541220
  H     -2.050020  -10.940510   -1.197650
  H     -4.172930   -9.776040   -3.639730
  H     -3.154100   -8.764250   -4.660760
  H     -4.536150   -8.062730   -3.831870
  H     -8.280040   -6.575750    2.835680
  H     -8.673230   -8.117000    2.095930
  H     -8.600590   -5.415260    0.661670
  H    -10.052980   -6.249590    1.207830
  H     -9.083460   -6.934950   -0.087490
  H     -4.871510   -7.705860    2.559310
  H     -6.301440   -7.868970    3.569180
  H     -5.138660   -5.239250    2.516310
  H     -5.000450   -5.845320    4.164560
  H     -6.571650   -5.364370    3.533770

----------------------------
CARTESIAN COORDINATES (A.U.)
----------------------------
  NO LB      ZA    FRAG     MASS         X           Y           Z
   0 C     6.0000    0    12.011    3.319115   -3.322611   -3.313087
   1 O     8.0000    0    15.999    4.308065   -2.495742   -5.202189
   2 C     6.0000    0    12.011    4.515142   -3.897957   -0.853948
   3 C     6.0000    0    12.011    7.029006   -3.746892   -0.162592
   4 C     6.0000    0    12.011    7.706379   -4.448453    2.268427
   5 C     6.0000    0    12.011    5.871681   -5.287605    3.952173
   6 Cl   17.0000    0    35.453    6.763670   -6.181445    6.952302
   7 C     6.0000    0    12.011    3.329943   -5.428427    3.292016
   8 C     6.0000    0    12.011    2.661282   -4.719799    0.866780
   9 C     6.0000    0    12.011    0.189502   -4.561950   -0.359501
  10 C     6.0000    0    12.011   -2.082384   -4.344613    0.866761
  11 C     6.0000    0    12.011   -4.307593   -3.536188   -0.358859
  12 N     7.0000    0    14.007   -6.116307   -2.774723   -1.283956
  13 C     6.0000    0    12.011   -2.420305   -4.737997    3.476548
  14 N     7.0000    0    14.007   -2.820171   -5.102639    5.577602
  15 C     6.0000    0    12.011    0.634929   -4.083793   -3.009370
  16 C     6.0000    0    12.011   -0.872109   -4.371692   -5.080963
  17 C     6.0000    0    12.011   -3.121034   -5.775211   -5.328291
  18 S    16.0000    0    32.060   -3.831080   -8.301737   -3.269434
  19 C     6.0000    0    12.011   -6.614627   -8.880182   -4.861736
  20 C     6.0000    0    12.011   -6.917758   -7.214767   -6.899031
  21 C     6.0000    0    12.011   -4.941936   -5.490070   -7.201709
  22 C     6.0000    0    12.011   -4.930844   -3.447465   -9.141210
  23 C     6.0000    0    12.011   -5.870680   -0.966463   -7.987759
  24 S    16.0000    0    32.060   -9.727460   -7.693377   -8.571401
  25 C     6.0000    0    12.011  -10.481007  -10.108221   -6.508179
  26 C     6.0000    0    12.011   -8.660105  -10.531595   -4.635347
  27 N     7.0000    0    14.007   -9.419737  -12.446247   -3.074849
  28 C     6.0000    0    12.011   -7.608075  -13.570256   -1.375985
  29 C     6.0000    0    12.011  -11.752868  -13.289575   -3.907935
  30 C     6.0000    0    12.011  -12.418675  -11.864079   -6.101189
  31 C     6.0000    0    12.011  -14.602726  -12.386172   -7.541954
  32 N     7.0000    0    14.007  -15.402251  -11.266906   -9.631424
  33 S    16.0000    0    32.060  -17.948241  -12.679514  -10.570863
  34 N     7.0000    0    14.007  -18.126744  -14.771498   -8.345786
  35 C     6.0000    0    12.011  -16.198279  -14.435221   -6.788218
  36 C     6.0000    0    12.011  -15.630832  -15.738017   -4.530108
  37 C     6.0000    0    12.011  -13.484575  -15.137349   -3.007896
  38 N     7.0000    0    14.007  -13.607068  -16.587600   -0.833842
  39 C     6.0000    0    12.011  -12.284675  -16.373570    1.540486
  40 C     6.0000    0    12.011  -12.737926  -13.840260    2.894437
  41 C     6.0000    0    12.011  -15.726830  -18.059489   -0.972850
  42 C     6.0000    0    12.011  -16.998710  -17.604178   -3.246323
  43 S    16.0000    0    32.060  -19.746240  -19.332220   -3.595620
  44 C     6.0000    0    12.011  -19.207932  -20.704369   -0.634778
  45 C     6.0000    0    12.011  -17.000883  -19.817974    0.532468
  46 S    16.0000    0    32.060  -16.651832  -21.105879    3.500075
  47 C     6.0000    0    12.011  -19.421585  -22.922586    3.098282
  48 C     6.0000    0    12.011  -20.590607  -22.455502    0.791512
  49 C     6.0000    0    12.011  -23.150714  -23.351006    0.004819
  50 C     6.0000    0    12.011  -23.082702  -24.829376   -2.476051
  51 C     6.0000    0    12.011  -20.206860  -24.349272    5.212677
  52 C     6.0000    0    12.011  -21.439434  -26.621271    5.179928
  53 C     6.0000    0    12.011  -22.639108  -27.848913    7.305114
  54 C     6.0000    0    12.011  -23.200772  -26.765438    9.590039
  55 C     6.0000    0    12.011  -22.689431  -24.228160   10.228672
  56 N     7.0000    0    14.007  -22.370313  -22.176843   10.860407
  57 C     6.0000    0    12.011  -24.406682  -28.037848   11.597344
  58 N     7.0000    0    14.007  -25.366701  -28.969502   13.304863
  59 C     6.0000    0    12.011  -23.313192  -30.410588    6.516796
  60 C     6.0000    0    12.011  -24.493137  -32.354852    7.809520
  61 C     6.0000    0    12.011  -24.910767  -34.611090    6.524298
  62 Cl   17.0000    0    35.453  -26.382882  -37.055092    8.092544
  63 C     6.0000    0    12.011  -24.176381  -34.953187    4.024814
  64 C     6.0000    0    12.011  -22.979618  -33.009717    2.740934
  65 C     6.0000    0    12.011  -22.567771  -30.753668    3.989873
  66 C     6.0000    0    12.011  -21.331569  -28.436259    3.048998
  67 O     8.0000    0    15.999  -20.242973  -28.179369    1.049611
  68 C     6.0000    0    12.011   -6.691275  -16.187602   -2.248944
  69 C     6.0000    0    12.011   -5.339176  -16.034855   -4.818650
  70 C     6.0000    0    12.011   -4.945527  -17.291504   -0.209552
  71 C     6.0000    0    12.011   -4.648859  -20.147429   -0.435790
  72 C     6.0000    0    12.011   -7.051230  -16.604060   -7.066366
  73 C     6.0000    0    12.011  -15.536005  -13.495252    3.600061
  74 C     6.0000    0    12.011  -17.073865  -12.083514    1.612749
  75 C     6.0000    0    12.011  -11.050514  -13.729900    5.255064
  76 C     6.0000    0    12.011  -10.638119  -11.038760    6.195051
  77 H     1.0000    0     1.008    8.422094   -3.092121   -1.499441
  78 H     1.0000    0     1.008    9.651304   -4.353041    2.870003
  79 H     1.0000    0     1.008    1.955829   -6.089227    4.642906
  80 H     1.0000    0     1.008   -0.155354   -3.515949   -6.803241
  81 H     1.0000    0     1.008   -6.175795   -4.001779  -10.689992
  82 H     1.0000    0     1.008   -3.025433   -3.182167   -9.887293
  83 H     1.0000    0     1.008   -7.770233   -1.202830   -7.243509
  84 H     1.0000    0     1.008   -5.897287    0.509036   -9.415542
  85 H     1.0000    0     1.008   -4.645495   -0.380761   -6.445629
  86 H     1.0000    0     1.008   -8.373868  -13.650512    0.532204
  87 H     1.0000    0     1.008   -5.986445  -12.290892   -1.313549
  88 H     1.0000    0     1.008  -10.273742  -16.716914    1.259143
  89 H     1.0000    0     1.008  -12.988466  -17.897105    2.745961
  90 H     1.0000    0     1.008  -12.199203  -12.297638    1.623086
  91 H     1.0000    0     1.008  -24.343244  -21.678768   -0.248178
  92 H     1.0000    0     1.008  -23.978848  -24.510674    1.492978
  93 H     1.0000    0     1.008  -22.387529  -23.646861   -4.004197
  94 H     1.0000    0     1.008  -24.975017  -25.472242   -2.950505
  95 H     1.0000    0     1.008  -21.852302  -26.461079   -2.287910
  96 H     1.0000    0     1.008  -19.695160  -23.551732    7.029479
  97 H     1.0000    0     1.008  -25.079368  -32.170225    9.750684
  98 H     1.0000    0     1.008  -24.542969  -36.734273    3.104537
  99 H     1.0000    0     1.008  -22.384505  -33.231439    0.803436
 100 H     1.0000    0     1.008   -8.334146  -17.430796   -2.454943
 101 H     1.0000    0     1.008   -3.791339  -17.396044   -4.840288
 102 H     1.0000    0     1.008   -4.497492  -14.164102   -5.046627
 103 H     1.0000    0     1.008   -5.704478  -16.862310    1.663431
 104 H     1.0000    0     1.008   -3.099000  -16.381204   -0.341965
 105 H     1.0000    0     1.008   -6.467323  -21.081426   -0.214371
 106 H     1.0000    0     1.008   -3.382496  -20.846382    1.022758
 107 H     1.0000    0     1.008   -3.873976  -20.674568   -2.263231
 108 H     1.0000    0     1.008   -7.885695  -18.474038   -6.878093
 109 H     1.0000    0     1.008   -5.960385  -16.562032   -8.807560
 110 H     1.0000    0     1.008   -8.572081  -15.236352   -7.241185
 111 H     1.0000    0     1.008  -15.647008  -12.426367    5.358659
 112 H     1.0000    0     1.008  -16.390029  -15.338907    3.960734
 113 H     1.0000    0     1.008  -16.252760  -10.233358    1.250375
 114 H     1.0000    0     1.008  -18.997379  -11.810014    2.282468
 115 H     1.0000    0     1.008  -17.165252  -13.105156   -0.165332
 116 H     1.0000    0     1.008   -9.205820  -14.561965    4.836395
 117 H     1.0000    0     1.008  -11.907996  -14.870198    6.744773
 118 H     1.0000    0     1.008   -9.710660   -9.900748    4.755137
 119 H     1.0000    0     1.008   -9.449481  -11.046054    7.869878
 120 H     1.0000    0     1.008  -12.418619  -10.137190    6.677858

--------------------------------
INTERNAL COORDINATES (ANGSTROEM)
--------------------------------
 C      0   0   0     0.000000000000     0.00000000     0.00000000
 O      1   0   0     1.210236816247     0.00000000     0.00000000
 C      1   2   0     1.478751061572   128.04379048     0.00000000
 C      3   1   2     1.381984625276   129.27510107   356.65577586
 C      4   3   1     1.386088322799   118.62881530   181.42348603
 C      5   4   3     1.390567602815   119.97730084     0.12508318
 Cl     6   5   4     1.722499823048   119.13891416   179.30647258
 C      6   5   4     1.391652746521   122.07680963   359.27104338
 C      8   6   5     1.383070667067   117.75416010     0.53420279
 C      9   8   6     1.462519944274   130.99642062   182.61850044
 C     10   9   8     1.371010014952   125.38286705    21.64416833
 C     11  10   9     1.410756104293   122.66790094   162.69244626
 N     12  11  10     1.148092309442   176.66317760   246.14954485
 C     11  10   9     1.408042195000   124.27695904   346.89707283
 N     14  11  10     1.148117620499   176.44568888   211.34206958
 C     10   9   8     1.444260519262   107.14777144   188.50980220
 C     16  10   9     1.364163831877   131.70135969   161.57906429
 C     17  16  10     1.408913810316   128.85276275   343.44684428
 S     18  17  16     1.765136345442   121.44977108   337.61115428
 C     19  18  17     1.724351577318    90.84123580   181.06229092
 C     20  19  18     1.401677247515   111.22250078     1.03158044
 C     18  17  16     1.390707979915   126.46115360   161.21931945
 C     22  18  17     1.490554615739   124.52700781   353.60060792
 C     23  22  18     1.530879150064   110.24827885   282.11646843
 S     21  20  19     1.748713453428   113.29616853   180.54650097
 C     25  21  20     1.727436224033    89.05742287     0.41164170
 C     20  19  18     1.396305420923   137.00177565   182.44085008
 N     27  20  19     1.367499361938   138.02066629   359.89408630
 C     28  27  20     1.442592997384   119.10770299   345.30479931
 C     28  27  20     1.384861568894   107.97443256   178.80492062
 C     26  25  21     1.400395008346   139.20482666   180.11729097
 C     31  26  25     1.411868604828   130.25295921     4.97512858
 N     32  31  26     1.323776824922   128.69129274   357.75031249
 S     33  32  31     1.618977388879   108.41298410   177.63206813
 N     34  33  32     1.618904000891    98.10315067     0.02785685
 C     35  34  33     1.323798151306   108.41795758     0.03401665
 C     36  35  34     1.411855456518   128.70293911   177.16285469
 C     30  28  27     1.422212284717   133.58161189   182.69262876
 N     38  30  28     1.384458015831   133.59547891     7.98776472
 C     39  38  30     1.442623079533   131.10991939    14.51480664
 C     40  39  38     1.538830574755   113.47188359    59.51685820
 C     39  38  30     1.367610653147   108.02359183   179.76301677
 C     42  39  38     1.399437676712   110.03902879     0.52642519
 S     43  42  39     1.727506522158   113.93040604   181.06058231
 C     44  43  42     1.750221279667    89.24592548     0.10888441
 C     42  39  38     1.398216234672   138.06349269   182.80756127
 S     46  42  39     1.721837877705   136.99554277     1.70034948
 C     47  46  42     1.765691787969    90.95311119   178.96035710
 C     48  47  46     1.390635750080   112.22182061   357.85218154
 C     49  48  47     1.494394695822   126.25972662   190.03163415
 C     50  49  48     1.528664847146   112.34486621   235.01993398
 C     48  47  46     1.412294705612   116.09746158   184.40120333
 C     52  48  47     1.367929689531   126.87705618   211.59598395
 C     53  52  48     1.445606832856   126.47785514   192.06421272
 C     54  53  52     1.370790030530   126.40254609    13.90359250
 C     55  54  53     1.410741606213   124.59665254     0.20300892
 N     56  55  54     1.148305502469   176.06993546   162.59112380
 C     55  54  53     1.410286239350   124.24850278   179.10002105
 N     58  55  54     1.147867586832   176.58487299   173.06836887
 C     54  53  52     1.462484743886   107.56278343   189.90315720
 C     60  54  53     1.384338725168   131.14342598   180.15591210
 C     61  60  54     1.391728139616   117.88740649   179.28172654
 Cl    62  61  60     1.722848847288   118.71223929   180.14788473
 C     62  61  60     1.390414792139   122.15308734     0.23659678
 C     64  62  61     1.385764079344   119.83405588     0.21162151
 C     65  64  62     1.381874702786   118.60443558   359.38881849
 C     66  65  64     1.476378536623   128.77020737   179.53990723
 O     67  66  65     1.212333406328   126.72645586   352.85473715
 C     29  28  27     1.538539608395   113.18001712   255.47003340
 C     69  29  28     1.538704444590   111.38834535    61.61458431
 C     69  29  28     1.536014473141   108.72703674   184.46256447
 C     71  69  29     1.524131294410   112.57331294   160.72162727
 C     70  69  29     1.525219570455   113.74119154   264.76265408
 C     41  40  39     1.537911774875   111.50171862    62.63889902
 C     74  41  40     1.525226466201   113.85618654   267.26583537
 C     41  40  39     1.536628796977   108.72589387   185.27878304
 C     76  41  40     1.524166433629   112.58292567   159.73281855
 H      4   3   1     1.078870530277   120.18045283     1.49415874
 H      5   4   3     1.078500264163   120.54377358   180.01804477
 H      8   6   5     1.077983322923   120.18885762   179.94994422
 H     17  16  10     1.086073985417   115.06351123   168.60200309
 H     23  22  18     1.091682786023   108.64553554   162.12502712
 H     23  22  18     1.091903465605   110.23332586    43.13161888
 H     24  23  22     1.086821968862   110.25861788   301.23861541
 H     24  23  22     1.086601439765   110.07329522   181.16688512
 H     24  23  22     1.087364466405   110.48585115    60.79461835
 H     29  28  27     1.088879521067   110.28346718   130.26218247
 H     29  28  27     1.093536135023   106.56274023    14.76659642
 H     40  39  38     1.089757060129   109.97417399   294.30205751
 H     40  39  38     1.093445911511   106.55871444   178.88042701
 H     41  40  39     1.095567625343   108.82247352   303.45428913
 H     50  49  48     1.095091907604   107.47124810   115.38399859
 H     50  49  48     1.090317683889   109.97703040   357.87536253
 H     51  50  49     1.086662279690   110.63172966   298.73625980
 H     51  50  49     1.086971599399   109.68480920   178.86282880
 H     51  50  49     1.086004868866   110.01580478    59.04123384
 H     52  48  47     1.084319490787   114.89161030    29.19543229
 H     61  60  54     1.077479775587   122.24748398   359.07789039
 H     64  62  61     1.078478780644   119.54197545   180.12277197
 H     65  64  62     1.078953202739   121.23613289   179.73632554
 H     69  29  28     1.095664325375   108.67466478   302.48874350
 H     70  69  29     1.090811461711   108.89005388   144.39969443
 H     70  69  29     1.092225238309   109.56338737    27.77306133
 H     71  69  29     1.093270606209   109.69514923    39.97856278
 H     71  69  29     1.091676192193   108.99110514   282.91777036
 H     72  71  69     1.088124034979   110.53903860   298.92024201
 H     72  71  69     1.087014067388   110.18922247   179.23459234
 H     72  71  69     1.086793663305   111.30099829    59.23312587
 H     73  70  69     1.088176564625   110.44027009   302.27218294
 H     73  70  69     1.087515581544   109.96197042   182.98913133
 H     73  70  69     1.086319325843   112.01818554    63.00647976
 H     74  41  40     1.090606554446   108.69934046   147.10539999
 H     74  41  40     1.092017696239   109.56181663    30.53185158
 H     75  74  41     1.088177063395   110.43477458   302.59155020
 H     75  74  41     1.087486012462   109.87049353   183.37959822
 H     75  74  41     1.086255003625   112.16192644    63.41152716
 H     76  41  40     1.093556202259   109.79917715    38.95167482
 H     76  41  40     1.091541229821   108.93743336   281.90046784
 H     77  76  41     1.088177370239   110.67883267   299.22261838
 H     77  76  41     1.086806393982   110.22379789   179.59232830
 H     77  76  41     1.086568381741   111.27416689    59.60026248

---------------------------
INTERNAL COORDINATES (A.U.)
---------------------------
 C      0   0   0     0.000000000000     0.00000000     0.00000000
 O      1   0   0     2.287016139896     0.00000000     0.00000000
 C      1   2   0     2.794434526616   128.04379048     0.00000000
 C      3   1   2     2.611572463062   129.27510107   356.65577586
 C      4   3   1     2.619327327517   118.62881530   181.42348603
 C      5   4   3     2.627791940025   119.97730084     0.12508318
 Cl     6   5   4     3.255052931288   119.13891416   179.30647258
 C      6   5   4     2.629842564444   122.07680963   359.27104338
 C      8   6   5     2.613624784616   117.75416010     0.53420279
 C      9   8   6     2.763762160076   130.99642062   182.61850044
 C     10   9   8     2.590833455123   125.38286705    21.64416833
 C     11  10   9     2.665942678871   122.66790094   162.69244626
 N     12  11  10     2.169580041307   176.66317760   246.14954485
 C     11  10   9     2.660814133555   124.27695904   346.89707283
 N     14  11  10     2.169627872272   176.44568888   211.34206958
 C     10   9   8     2.729256847441   107.14777144   188.50980220
 C     16  10   9     2.577896044047   131.70135969   161.57906429
 C     17  16  10     2.662461247797   128.85276275   343.44684428
 S     18  17  16     3.335624281916   121.44977108   337.61115428
 C     19  18  17     3.258552239727    90.84123580   181.06229092
 C     20  19  18     2.648786125951   111.22250078     1.03158044
 C     18  17  16     2.628057214299   126.46115360   161.21931945
 C     22  18  17     2.816740011398   124.52700781   353.60060792
 C     23  22  18     2.892942337751   110.24827885   282.11646843
 S     21  20  19     3.304589513683   113.29616853   180.54650097
 C     25  21  20     3.264381377237    89.05742287     0.41164170
 C     20  19  18     2.638634844855   137.00177565   182.44085008
 N     27  20  19     2.584199282374   138.02066629   359.89408630
 C     28  27  20     2.726105687767   119.10770299   345.30479931
 C     28  27  20     2.617009098602   107.97443256   178.80492062
 C     26  25  21     2.646363045084   139.20482666   180.11729097
 C     31  26  25     2.668045000207   130.25295921     4.97512858
 N     32  31  26     2.501575661534   128.69129274   357.75031249
 S     33  32  31     3.059423881991   108.41298410   177.63206813
 N     34  33  32     3.059285198793    98.10315067     0.02785685
 C     35  34  33     2.501615962559   108.41795758     0.03401665
 C     36  35  34     2.668020153502   128.70293911   177.16285469
 C     30  28  27     2.687591722414   133.58161189   182.69262876
 N     38  30  28     2.616246493833   133.59547891     7.98776472
 C     39  38  30     2.726162534791   131.10991939    14.51480664
 C     40  39  38     2.907968352791   113.47188359    59.51685820
 C     39  38  30     2.584409592280   108.02359183   179.76301677
 C     42  39  38     2.644553950476   110.03902879     0.52642519
 S     43  42  39     3.264514221442   113.93040604   181.06058231
 C     44  43  42     3.307438892332    89.24592548     0.10888441
 C     42  39  38     2.642245759532   138.06349269   182.80756127
 S     46  42  39     3.253802035875   136.99554277     1.70034948
 C     47  46  42     3.336673916175    90.95311119   178.96035710
 C     48  47  46     2.627920719691   112.22182061   357.85218154
 C     49  48  47     2.823996711088   126.25972662   190.03163415
 C     50  49  48     2.888757911659   112.34486621   235.01993398
 C     48  47  46     2.668850213994   116.09746158   184.40120333
 C     52  48  47     2.585012483673   126.87705618   211.59598395
 C     53  52  48     2.731801011423   126.47785514   192.06421272
 C     54  53  52     2.590417744811   126.40254609    13.90359250
 C     55  54  53     2.665915281470   124.59665254     0.20300892
 N     56  55  54     2.169982917741   176.06993546   162.59112380
 C     55  54  53     2.665054762809   124.24850278   179.10002105
 N     58  55  54     2.169155377118   176.58487299   173.06836887
 C     54  53  52     2.763695640983   107.56278343   189.90315720
 C     60  54  53     2.616021067149   131.14342598   180.15591210
 C     61  60  54     2.629985036747   117.88740649   179.28172654
 Cl    62  61  60     3.255712491515   118.71223929   180.14788473
 C     62  61  60     2.627503169696   122.15308734     0.23659678
 C     64  62  61     2.618714596186   119.83405588     0.21162151
 C     65  64  62     2.611364739659   118.60443558   359.38881849
 C     66  65  64     2.789951104216   128.77020737   179.53990723
 O     67  66  65     2.290978120965   126.72645586   352.85473715
 C     29  28  27     2.907418506057   113.18001712   255.47003340
 C     69  29  28     2.907730001322   111.38834535    61.61458431
 C     69  29  28     2.902646691977   108.72703674   184.46256447
 C     71  69  29     2.880190738574   112.57331294   160.72162727
 C     70  69  29     2.882247282258   113.74119154   264.76265408
 C     41  40  39     2.906232072647   111.50171862    62.63889902
 C     74  41  40     2.882260313328   113.85618654   267.26583537
 C     41  40  39     2.903807595784   108.72589387   185.27878304
 C     76  41  40     2.880257142073   112.58292567   159.73281855
 H      4   3   1     2.038769836182   120.18045283     1.49415874
 H      5   4   3     2.038070134630   120.54377358   180.01804477
 H      8   6   5     2.037093257259   120.18885762   179.94994422
 H     17  16  10     2.052382393615   115.06351123   168.60200309
 H     23  22  18     2.062981490701   108.64553554   162.12502712
 H     23  22  18     2.063398514673   110.23332586    43.13161888
 H     24  23  22     2.053795877477   110.25861788   301.23861541
 H     24  23  22     2.053379137881   110.07329522   181.16688512
 H     24  23  22     2.054821049263   110.48585115    60.79461835
 H     29  28  27     2.057684087653   110.28346718   130.26218247
 H     29  28  27     2.066483812739   106.56274023    14.76659642
 H     40  39  38     2.059342396150   109.97417399   294.30205751
 H     40  39  38     2.066313315012   106.55871444   178.88042701
 H     41  40  39     2.070322773089   108.82247352   303.45428913
 H     50  49  48     2.069423796845   107.47124810   115.38399859
 H     50  49  48     2.060401821521   109.97703040   357.87536253
 H     51  50  49     2.053494108676   110.63172966   298.73625980
 H     51  50  49     2.054078638214   109.68480920   178.86282880
 H     51  50  49     2.052251782261   110.01580478    59.04123384
 H     52  48  47     2.049066879260   114.89161030    29.19543229
 H     61  60  54     2.036141690699   122.24748398   359.07789039
 H     64  62  61     2.038029536663   119.54197545   180.12277197
 H     65  64  62     2.038926064493   121.23613289   179.73632554
 H     69  29  28     2.070505509667   108.67466478   302.48874350
 H     70  69  29     2.061334926376   108.89005388   144.39969443
 H     70  69  29     2.064006576962   109.56338737    27.77306133
 H     71  69  29     2.065982036001   109.69514923    39.97856278
 H     71  69  29     2.062969030166   108.99110514   282.91777036
 H     72  71  69     2.056256425849   110.53903860   298.92024201
 H     72  71  69     2.054158891084   110.18922247   179.23459234
 H     72  71  69     2.053742387728   111.30099829    59.23312587
 H     73  70  69     2.056355692493   110.44027009   302.27218294
 H     73  70  69     2.055106615489   109.96197042   182.98913133
 H     73  70  69     2.052846019829   112.01818554    63.00647976
 H     74  41  40     2.060947707762   108.69934046   147.10539999
 H     74  41  40     2.063614379288   109.56181663    30.53185158
 H     75  74  41     2.056356635032   110.43477458   302.59155020
 H     75  74  41     2.055050738023   109.87049353   183.37959822
 H     75  74  41     2.052724468453   112.16192644    63.41152716
 H     76  41  40     2.066521734321   109.79917715    38.95167482
 H     76  41  40     2.062713988246   108.93743336   281.90046784
 H     77  76  41     2.056357214882   110.67883267   299.22261838
 H     77  76  41     2.053766445220   110.22379789   179.59232830
 H     77  76  41     2.053316667269   111.27416689    59.60026248

---------------------
BASIS SET INFORMATION
---------------------
There are 6 groups of distinct atoms

 Group   1 Type C   : 7s4p1d contracted to 3s2p1d pattern {511/31/1}
 Group   2 Type O   : 7s4p1d contracted to 3s2p1d pattern {511/31/1}
 Group   3 Type Cl  : 10s7p1d contracted to 4s3p1d pattern {5311/511/1}
 Group   4 Type N   : 7s4p1d contracted to 3s2p1d pattern {511/31/1}
 Group   5 Type S   : 10s7p1d contracted to 4s3p1d pattern {5311/511/1}
 Group   6 Type H   : 4s1p contracted to 2s1p pattern {31/1}

Atom   0C    basis set group =>   1
Atom   1O    basis set group =>   2
Atom   2C    basis set group =>   1
Atom   3C    basis set group =>   1
Atom   4C    basis set group =>   1
Atom   5C    basis set group =>   1
Atom   6Cl   basis set group =>   3
Atom   7C    basis set group =>   1
Atom   8C    basis set group =>   1
Atom   9C    basis set group =>   1
Atom  10C    basis set group =>   1
Atom  11C    basis set group =>   1
Atom  12N    basis set group =>   4
Atom  13C    basis set group =>   1
Atom  14N    basis set group =>   4
Atom  15C    basis set group =>   1
Atom  16C    basis set group =>   1
Atom  17C    basis set group =>   1
Atom  18S    basis set group =>   5
Atom  19C    basis set group =>   1
Atom  20C    basis set group =>   1
Atom  21C    basis set group =>   1
Atom  22C    basis set group =>   1
Atom  23C    basis set group =>   1
Atom  24S    basis set group =>   5
Atom  25C    basis set group =>   1
Atom  26C    basis set group =>   1
Atom  27N    basis set group =>   4
Atom  28C    basis set group =>   1
Atom  29C    basis set group =>   1
Atom  30C    basis set group =>   1
Atom  31C    basis set group =>   1
Atom  32N    basis set group =>   4
Atom  33S    basis set group =>   5
Atom  34N    basis set group =>   4
Atom  35C    basis set group =>   1
Atom  36C    basis set group =>   1
Atom  37C    basis set group =>   1
Atom  38N    basis set group =>   4
Atom  39C    basis set group =>   1
Atom  40C    basis set group =>   1
Atom  41C    basis set group =>   1
Atom  42C    basis set group =>   1
Atom  43S    basis set group =>   5
Atom  44C    basis set group =>   1
Atom  45C    basis set group =>   1
Atom  46S    basis set group =>   5
Atom  47C    basis set group =>   1
Atom  48C    basis set group =>   1
Atom  49C    basis set group =>   1
Atom  50C    basis set group =>   1
Atom  51C    basis set group =>   1
Atom  52C    basis set group =>   1
Atom  53C    basis set group =>   1
Atom  54C    basis set group =>   1
Atom  55C    basis set group =>   1
Atom  56N    basis set group =>   4
Atom  57C    basis set group =>   1
Atom  58N    basis set group =>   4
Atom  59C    basis set group =>   1
Atom  60C    basis set group =>   1
Atom  61C    basis set group =>   1
Atom  62Cl   basis set group =>   3
Atom  63C    basis set group =>   1
Atom  64C    basis set group =>   1
Atom  65C    basis set group =>   1
Atom  66C    basis set group =>   1
Atom  67O    basis set group =>   2
Atom  68C    basis set group =>   1
Atom  69C    basis set group =>   1
Atom  70C    basis set group =>   1
Atom  71C    basis set group =>   1
Atom  72C    basis set group =>   1
Atom  73C    basis set group =>   1
Atom  74C    basis set group =>   1
Atom  75C    basis set group =>   1
Atom  76C    basis set group =>   1
Atom  77H    basis set group =>   6
Atom  78H    basis set group =>   6
Atom  79H    basis set group =>   6
Atom  80H    basis set group =>   6
Atom  81H    basis set group =>   6
Atom  82H    basis set group =>   6
Atom  83H    basis set group =>   6
Atom  84H    basis set group =>   6
Atom  85H    basis set group =>   6
Atom  86H    basis set group =>   6
Atom  87H    basis set group =>   6
Atom  88H    basis set group =>   6
Atom  89H    basis set group =>   6
Atom  90H    basis set group =>   6
Atom  91H    basis set group =>   6
Atom  92H    basis set group =>   6
Atom  93H    basis set group =>   6
Atom  94H    basis set group =>   6
Atom  95H    basis set group =>   6
Atom  96H    basis set group =>   6
Atom  97H    basis set group =>   6
Atom  98H    basis set group =>   6
Atom  99H    basis set group =>   6
Atom 100H    basis set group =>   6
Atom 101H    basis set group =>   6
Atom 102H    basis set group =>   6
Atom 103H    basis set group =>   6
Atom 104H    basis set group =>   6
Atom 105H    basis set group =>   6
Atom 106H    basis set group =>   6
Atom 107H    basis set group =>   6
Atom 108H    basis set group =>   6
Atom 109H    basis set group =>   6
Atom 110H    basis set group =>   6
Atom 111H    basis set group =>   6
Atom 112H    basis set group =>   6
Atom 113H    basis set group =>   6
Atom 114H    basis set group =>   6
Atom 115H    basis set group =>   6
Atom 116H    basis set group =>   6
Atom 117H    basis set group =>   6
Atom 118H    basis set group =>   6
Atom 119H    basis set group =>   6
Atom 120H    basis set group =>   6
------------------------------------------------------------------------------
                           ORCA GTO INTEGRAL CALCULATION
------------------------------------------------------------------------------

                         BASIS SET STATISTICS AND STARTUP INFO

 # of primitive gaussian shells          ... 1186
 # of primitive gaussian functions       ... 2240
 # of contracted shells                  ...  608
 # of contracted basis functions         ... 1326
 Highest angular momentum                ...    2
 Maximum contraction depth               ...    5
 Integral package used                   ... LIBINT
 Integral threshhold            Thresh   ...  2.500e-11
 Primitive cut-off              TCut     ...  2.500e-12


------------------------------ INTEGRAL EVALUATION ----------------------------


 * One electron integrals 
 Pre-screening matrix                    ... done
 Shell pair data                         ... done (   0.026 sec)

-------------------------------------------------------------------------------
                                 ORCA SCF
-------------------------------------------------------------------------------

------------
SCF SETTINGS
------------
Hamiltonian:
 Ab initio Hamiltonian  Method          .... Hartree-Fock(GTOs)


General Settings:
 Integral files         IntName         .... H2
 Hartree-Fock type      HFTyp           .... RHF
 Total Charge           Charge          ....    0
 Multiplicity           Mult            ....    1
 Number of Electrons    NEL             ....  590
 Basis Dimension        Dim             .... 1326
 Nuclear Repulsion      ENuc            ....  13757.4809391746 Eh

Convergence Acceleration:
 DIIS                   CNVDIIS         .... on
   Start iteration      DIISMaxIt       ....    12
   Startup error        DIISStart       ....  0.200000
   # of expansion vecs  DIISMaxEq       ....     5
   Bias factor          DIISBfac        ....   1.050
   Max. coefficient     DIISMaxC        ....  10.000
 Newton-Raphson         CNVNR           .... off
 SOSCF                  CNVSOSCF        .... on
   Start iteration      SOSCFMaxIt      ....   150
   Startup grad/error   SOSCFStart      ....  0.003300
 Level Shifting         CNVShift        .... on
   Level shift para.    LevelShift      ....    0.2500
   Turn off err/grad.   ShiftErr        ....    0.0010
 Zerner damping         CNVZerner       .... off
 Static damping         CNVDamp         .... on
   Fraction old density DampFac         ....    0.7000
   Max. Damping (<1)    DampMax         ....    0.9800
   Min. Damping (>=0)   DampMin         ....    0.0000
   Turn off err/grad.   DampErr         ....    0.1000
 Fernandez-Rico         CNVRico         .... off

SCF Procedure:
 Maximum # iterations   MaxIter         ....   125
 SCF integral mode      SCFMode         .... Direct
   Integral package                     .... LIBINT
 Reset frequency        DirectResetFreq ....    20
 Integral Threshold     Thresh          ....  2.500e-11 Eh
 Primitive CutOff       TCut            ....  2.500e-12 Eh

Convergence Tolerance:
 Convergence Check Mode ConvCheckMode   .... Total+1el-Energy
 Convergence forced     ConvForced      .... 1
 Energy Change          TolE            ....  1.000e-08 Eh
 1-El. energy change                    ....  1.000e-05 Eh
 Orbital Gradient       TolG            ....  1.000e-05
 Orbital Rotation angle TolX            ....  1.000e-05
 DIIS Error             TolErr          ....  5.000e-07


Diagonalization of the overlap matrix:
Smallest eigenvalue                        ... 7.877e-05
Time for diagonalization                   ...    0.545 sec
Threshold for overlap eigenvalues          ... 1.000e-08
Number of eigenvalues below threshold      ... 0
Time for construction of square roots      ...    0.208 sec
Total time needed                          ...    0.759 sec

-------------------
DFT GRID GENERATION
-------------------

General Integration Accuracy     IntAcc      ...  4.340
Radial Grid Type                 RadialGrid  ... Gauss-Chebyshev
Angular Grid (max. acc.)         AngularGrid ... Lebedev-110
Angular grid pruning method      GridPruning ... 3 (G Style)
Weight generation scheme         WeightScheme... Becke
Basis function cutoff            BFCut       ...    1.0000e-11
Integration weight cutoff        WCut        ...    1.0000e-14
Grids for H and He will be reduced by one unit

# of grid points (after initial pruning)     ... 164062 (   0.3 sec)
# of grid points (after weights+screening)   ... 141495 (   9.6 sec)
nearest neighbour list constructed           ...    0.0 sec
Grid point re-assignment to atoms done       ...    0.0 sec
Grid point division into batches done        ...    0.1 sec
Reduced shell lists constructed in    3.5 sec

Total number of grid points                  ...   141495
Total number of batches                      ...     2272
Average number of points per batch           ...       62
Average number of grid points per atom       ...     1169
Average number of shells per batch           ...   129.77 (21.34%)
Average number of basis functions per batch  ...   259.57 (19.58%)
Average number of large shells per batch     ...    73.54 (56.67%)
Average number of large basis fcns per batch ...   150.35 (57.92%)
Maximum spatial batch extension              ...  25.60, 26.11, 23.22 au
Average spatial batch extension              ...   3.25,  3.27,  3.15 au

Time for grid setup =   13.451 sec

------------------------------
INITIAL GUESS: MODEL POTENTIAL
------------------------------
Loading Hartree-Fock densities                     ... done
Calculating cut-offs                               ... done
Setting up the integral package                    ... done
Initializing the effective Hamiltonian             ... done
Starting the Coulomb interaction                   ... done (  14.4 sec)
Reading the grid                                   ... done
Mapping shells                                     ... done
Starting the XC term evaluation                    ... done (   3.0 sec)
Transforming the Hamiltonian                       ... done (   0.2 sec)
Diagonalizing the Hamiltonian                      ... done (   0.5 sec)
Back transforming the eigenvectors                 ... done (   0.1 sec)
Now organizing SCF variables                       ... done
                      ------------------
                      INITIAL GUESS DONE (  32.0 sec)
                      ------------------
--------------
SCF ITERATIONS
--------------
ITER       Energy         Delta-E        Max-DP      RMS-DP      [F,P]     Damp
               ***  Starting incremental Fock matrix formation  ***
  0  -5783.8273047170   0.000000000000 0.12344596  0.00135403  0.2401105 0.7000
  1  -5784.7208598220  -0.893555104987 0.09125303  0.00103394  0.1463726 0.7000
                               ***Turning on DIIS***
  2  -5785.2548385228  -0.533978700834 0.21538669  0.00239126  0.0829494 0.0000
  3  -5781.9682805822   3.286557940584 0.07711579  0.00053317  0.0488965 0.0000
  4  -5786.6374475029  -4.669166920659 0.01590970  0.00020895  0.0166909 0.0000
  5  -5786.5498535753   0.087593927612 0.00796616  0.00010553  0.0089347 0.0000
  6  -5786.3439897238   0.205863851512 0.00735078  0.00006571  0.0034171 0.0000
  7  -5786.4154118680  -0.071422144229 0.00362815  0.00004180  0.0015935 0.0000
  8  -5786.3873156533   0.028096214646 0.00397769  0.00003140  0.0011717 0.0000
                      *** Initiating the SOSCF procedure ***
                           *** Shutting down DIIS ***
                      *** Re-Reading the Fockian *** 
                      *** Removing any level shift *** 
ITER      Energy       Delta-E        Grad      Rot      Max-DP    RMS-DP
  9  -5786.39483550  -0.0075198510  0.002625  0.002625  0.002704  0.000029
               *** Restarting incremental Fock matrix formation ***
 10  -5786.40760706  -0.0127715583  0.000482  0.001998  0.000828  0.000008
 11  -5786.40762004  -0.0000129745  0.000309  0.003248  0.000850  0.000010
 12  -5786.40762939  -0.0000093578  0.000088  0.000460  0.000162  0.000002
 13  -5786.40763019  -0.0000007938  0.000039  0.000260  0.000126  0.000001
 14  -5786.40763051  -0.0000003246  0.000013  0.000105  0.000054  0.000001
 15  -5786.40763060  -0.0000000858  0.000015  0.000076  0.000033  0.000000
 16  -5786.40763063  -0.0000000261  0.000005  0.000046  0.000018  0.000000
                  ***Gradient check signals convergence***
              ***Rediagonalizing the Fockian in SOSCF/NRSCF***

               *****************************************************
               *                     SUCCESS                       *
               *           SCF CONVERGED AFTER  17 CYCLES          *
               *****************************************************


----------------
TOTAL SCF ENERGY
----------------

Total Energy       :        -5786.40763062 Eh         -157456.15655 eV

Components:
Nuclear Repulsion  :        13757.48093917 Eh          374360.08845 eV
Electronic Energy  :       -19543.88856980 Eh         -531816.24500 eV
One Electron Energy:       -35356.32303357 Eh         -962094.46168 eV
Two Electron Energy:        15812.43446377 Eh          430278.21668 eV

Virial components:
Potential Energy   :       -11561.14950233 Eh         -314594.87165 eV
Kinetic Energy     :         5774.74187171 Eh          157138.71511 eV
Virial Ratio       :            2.00202014


---------------
SCF CONVERGENCE
---------------

  Last Energy change         ...    3.4015e-09  Tolerance :   1.0000e-08
  Last MAX-Density change    ...    6.8648e-06  Tolerance :   1.0000e-07
  Last RMS-Density change    ...    8.8442e-08  Tolerance :   5.0000e-09
  Last Orbital Gradient      ...    2.0525e-06  Tolerance :   1.0000e-05
  Last Orbital Rotation      ...    1.6797e-05  Tolerance :   1.0000e-05

             **** THE GBW FILE WAS UPDATED (H2.gbw) ****
             **** DENSITY FILE WAS UPDATED (H2.scfp) ****
             **** ENERGY FILE WAS UPDATED (H2.en.tmp) ****
             **** THE GBW FILE WAS UPDATED (H2.gbw) ****
             **** DENSITY FILE WAS UPDATED (H2.scfp) ****
----------------
ORBITAL ENERGIES
----------------

  NO   OCC          E(Eh)            E(eV) 
   0   2.0000    -104.817979     -2852.2422 
   1   2.0000    -104.817624     -2852.2326 
   2   2.0000     -92.020771     -2504.0125 
   3   2.0000     -91.980528     -2502.9174 
   4   2.0000     -91.980315     -2502.9116 
   5   2.0000     -91.974179     -2502.7446 
   6   2.0000     -91.972673     -2502.7037 
   7   2.0000     -20.565798      -559.6238 
   8   2.0000     -20.561820      -559.5156 
   9   2.0000     -15.653860      -425.9632 
  10   2.0000     -15.653691      -425.9586 
  11   2.0000     -15.609671      -424.7608 
  12   2.0000     -15.609609      -424.7591 
  13   2.0000     -15.590814      -424.2476 
  14   2.0000     -15.590454      -424.2378 
  15   2.0000     -15.588197      -424.1764 
  16   2.0000     -15.585553      -424.1044 
  17   2.0000     -11.364746      -309.2505 
  18   2.0000     -11.360311      -309.1298 
  19   2.0000     -11.340032      -308.5779 
  20   2.0000     -11.338892      -308.5469 
  21   2.0000     -11.336548      -308.4832 
  22   2.0000     -11.336324      -308.4771 
  23   2.0000     -11.331200      -308.3376 
  24   2.0000     -11.329708      -308.2970 
  25   2.0000     -11.321317      -308.0687 
  26   2.0000     -11.320877      -308.0567 
  27   2.0000     -11.320814      -308.0550 
  28   2.0000     -11.317098      -307.9539 
  29   2.0000     -11.312765      -307.8360 
  30   2.0000     -11.311509      -307.8018 
  31   2.0000     -11.306635      -307.6692 
  32   2.0000     -11.306159      -307.6562 
  33   2.0000     -11.306123      -307.6552 
  34   2.0000     -11.305432      -307.6364 
  35   2.0000     -11.305053      -307.6261 
  36   2.0000     -11.304455      -307.6099 
  37   2.0000     -11.300998      -307.5158 
  38   2.0000     -11.300751      -307.5091 
  39   2.0000     -11.299387      -307.4720 
  40   2.0000     -11.298650      -307.4519 
  41   2.0000     -11.298625      -307.4512 
  42   2.0000     -11.298175      -307.4390 
  43   2.0000     -11.297155      -307.4112 
  44   2.0000     -11.296403      -307.3907 
  45   2.0000     -11.293613      -307.3148 
  46   2.0000     -11.292652      -307.2887 
  47   2.0000     -11.289710      -307.2086 
  48   2.0000     -11.289664      -307.2074 
  49   2.0000     -11.289359      -307.1991 
  50   2.0000     -11.287992      -307.1619 
  51   2.0000     -11.287574      -307.1505 
  52   2.0000     -11.287402      -307.1458 
  53   2.0000     -11.286877      -307.1315 
  54   2.0000     -11.286650      -307.1254 
  55   2.0000     -11.286483      -307.1208 
  56   2.0000     -11.284570      -307.0687 
  57   2.0000     -11.280025      -306.9451 
  58   2.0000     -11.278382      -306.9004 
  59   2.0000     -11.275477      -306.8213 
  60   2.0000     -11.273096      -306.7565 
  61   2.0000     -11.272884      -306.7508 
  62   2.0000     -11.271263      -306.7067 
  63   2.0000     -11.262970      -306.4810 
  64   2.0000     -11.256021      -306.2919 
  65   2.0000     -11.254449      -306.2491 
  66   2.0000     -11.251989      -306.1822 
  67   2.0000     -11.247819      -306.0687 
  68   2.0000     -11.242555      -305.9255 
  69   2.0000     -11.240180      -305.8608 
  70   2.0000     -11.237564      -305.7897 
  71   2.0000     -11.237045      -305.7755 
  72   2.0000     -11.234909      -305.7174 
  73   2.0000     -11.229043      -305.5578 
  74   2.0000     -11.227878      -305.5261 
  75   2.0000     -11.225928      -305.4730 
  76   2.0000     -11.223049      -305.3947 
  77   2.0000     -10.581776      -287.9448 
  78   2.0000     -10.581402      -287.9346 
  79   2.0000      -9.052570      -246.3330 
  80   2.0000      -9.015329      -245.3196 
  81   2.0000      -9.015201      -245.3161 
  82   2.0000      -9.008593      -245.1363 
  83   2.0000      -9.007007      -245.0931 
  84   2.0000      -8.056878      -219.2388 
  85   2.0000      -8.056501      -219.2285 
  86   2.0000      -8.053179      -219.1381 
  87   2.0000      -8.053154      -219.1375 
  88   2.0000      -8.052796      -219.1277 
  89   2.0000      -8.052773      -219.1271 
  90   2.0000      -6.739875      -183.4013 
  91   2.0000      -6.738054      -183.3518 
  92   2.0000      -6.736401      -183.3068 
  93   2.0000      -6.702994      -182.3978 
  94   2.0000      -6.702891      -182.3949 
  95   2.0000      -6.701905      -182.3681 
  96   2.0000      -6.701794      -182.3651 
  97   2.0000      -6.699811      -182.3111 
  98   2.0000      -6.699729      -182.3089 
  99   2.0000      -6.696143      -182.2113 
 100   2.0000      -6.695338      -182.1894 
 101   2.0000      -6.694542      -182.1678 
 102   2.0000      -6.693724      -182.1455 
 103   2.0000      -6.693007      -182.1260 
 104   2.0000      -6.691398      -182.0822 
 105   2.0000      -1.399002       -38.0688 
 106   2.0000      -1.393834       -37.9281 
 107   2.0000      -1.360461       -37.0200 
 108   2.0000      -1.349079       -36.7103 
 109   2.0000      -1.342768       -36.5386 
 110   2.0000      -1.252099       -34.0713 
 111   2.0000      -1.252031       -34.0695 
 112   2.0000      -1.233339       -33.5608 
 113   2.0000      -1.232861       -33.5478 
 114   2.0000      -1.231389       -33.5078 
 115   2.0000      -1.230215       -33.4759 
 116   2.0000      -1.225355       -33.3436 
 117   2.0000      -1.223490       -33.2929 
 118   2.0000      -1.195792       -32.5392 
 119   2.0000      -1.195275       -32.5251 
 120   2.0000      -1.192666       -32.4541 
 121   2.0000      -1.175627       -31.9904 
 122   2.0000      -1.161022       -31.5930 
 123   2.0000      -1.152591       -31.3636 
 124   2.0000      -1.138147       -30.9705 
 125   2.0000      -1.135225       -30.8910 
 126   2.0000      -1.122206       -30.5368 
 127   2.0000      -1.116507       -30.3817 
 128   2.0000      -1.099698       -29.9243 
 129   2.0000      -1.097667       -29.8690 
 130   2.0000      -1.092056       -29.7163 
 131   2.0000      -1.086658       -29.5695 
 132   2.0000      -1.078855       -29.3571 
 133   2.0000      -1.071962       -29.1696 
 134   2.0000      -1.063375       -28.9359 
 135   2.0000      -1.052767       -28.6472 
 136   2.0000      -1.046466       -28.4758 
 137   2.0000      -1.046126       -28.4665 
 138   2.0000      -1.034635       -28.1538 
 139   2.0000      -1.027996       -27.9732 
 140   2.0000      -1.022337       -27.8192 
 141   2.0000      -1.017121       -27.6773 
 142   2.0000      -1.000693       -27.2302 
 143   2.0000      -0.992262       -27.0008 
 144   2.0000      -0.985946       -26.8289 
 145   2.0000      -0.981578       -26.7101 
 146   2.0000      -0.962602       -26.1937 
 147   2.0000      -0.957888       -26.0655 
 148   2.0000      -0.953396       -25.9432 
 149   2.0000      -0.937277       -25.5046 
 150   2.0000      -0.926648       -25.2154 
 151   2.0000      -0.914948       -24.8970 
 152   2.0000      -0.912090       -24.8192 
 153   2.0000      -0.905012       -24.6266 
 154   2.0000      -0.887169       -24.1411 
 155   2.0000      -0.875745       -23.8302 
 156   2.0000      -0.870186       -23.6790 
 157   2.0000      -0.868278       -23.6271 
 158   2.0000      -0.858890       -23.3716 
 159   2.0000      -0.850607       -23.1462 
 160   2.0000      -0.847402       -23.0590 
 161   2.0000      -0.844760       -22.9871 
 162   2.0000      -0.838188       -22.8083 
 163   2.0000      -0.834014       -22.6947 
 164   2.0000      -0.830016       -22.5859 
 165   2.0000      -0.820391       -22.3240 
 166   2.0000      -0.806908       -21.9571 
 167   2.0000      -0.802752       -21.8440 
 168   2.0000      -0.798959       -21.7408 
 169   2.0000      -0.793603       -21.5950 
 170   2.0000      -0.787924       -21.4405 
 171   2.0000      -0.779057       -21.1992 
 172   2.0000      -0.775381       -21.0992 
 173   2.0000      -0.768984       -20.9251 
 174   2.0000      -0.757518       -20.6131 
 175   2.0000      -0.751966       -20.4620 
 176   2.0000      -0.748358       -20.3639 
 177   2.0000      -0.738303       -20.0903 
 178   2.0000      -0.729133       -19.8407 
 179   2.0000      -0.725767       -19.7491 
 180   2.0000      -0.717047       -19.5118 
 181   2.0000      -0.709389       -19.3034 
 182   2.0000      -0.706351       -19.2208 
 183   2.0000      -0.695945       -18.9376 
 184   2.0000      -0.694735       -18.9047 
 185   2.0000      -0.692894       -18.8546 
 186   2.0000      -0.686563       -18.6823 
 187   2.0000      -0.683119       -18.5886 
 188   2.0000      -0.681585       -18.5469 
 189   2.0000      -0.676426       -18.4065 
 190   2.0000      -0.672221       -18.2921 
 191   2.0000      -0.660516       -17.9736 
 192   2.0000      -0.657048       -17.8792 
 193   2.0000      -0.655098       -17.8261 
 194   2.0000      -0.651098       -17.7173 
 195   2.0000      -0.649653       -17.6780 
 196   2.0000      -0.646639       -17.5959 
 197   2.0000      -0.645360       -17.5611 
 198   2.0000      -0.643204       -17.5025 
 199   2.0000      -0.641940       -17.4681 
 200   2.0000      -0.636310       -17.3149 
 201   2.0000      -0.635367       -17.2892 
 202   2.0000      -0.629253       -17.1229 
 203   2.0000      -0.626737       -17.0544 
 204   2.0000      -0.624487       -16.9932 
 205   2.0000      -0.622029       -16.9263 
 206   2.0000      -0.619638       -16.8612 
 207   2.0000      -0.618998       -16.8438 
 208   2.0000      -0.614393       -16.7185 
 209   2.0000      -0.611388       -16.6367 
 210   2.0000      -0.611157       -16.6304 
 211   2.0000      -0.602741       -16.4014 
 212   2.0000      -0.602382       -16.3917 
 213   2.0000      -0.601616       -16.3708 
 214   2.0000      -0.599443       -16.3117 
 215   2.0000      -0.595678       -16.2092 
 216   2.0000      -0.591456       -16.0943 
 217   2.0000      -0.591403       -16.0929 
 218   2.0000      -0.584021       -15.8920 
 219   2.0000      -0.581966       -15.8361 
 220   2.0000      -0.578754       -15.7487 
 221   2.0000      -0.576664       -15.6918 
 222   2.0000      -0.576435       -15.6856 
 223   2.0000      -0.575256       -15.6535 
 224   2.0000      -0.574156       -15.6236 
 225   2.0000      -0.572918       -15.5899 
 226   2.0000      -0.571757       -15.5583 
 227   2.0000      -0.571210       -15.5434 
 228   2.0000      -0.570190       -15.5157 
 229   2.0000      -0.568632       -15.4733 
 230   2.0000      -0.562272       -15.3002 
 231   2.0000      -0.561905       -15.2902 
 232   2.0000      -0.559878       -15.2351 
 233   2.0000      -0.558530       -15.1984 
 234   2.0000      -0.555636       -15.1196 
 235   2.0000      -0.554001       -15.0751 
 236   2.0000      -0.551688       -15.0122 
 237   2.0000      -0.549390       -14.9497 
 238   2.0000      -0.543252       -14.7826 
 239   2.0000      -0.542388       -14.7591 
 240   2.0000      -0.538236       -14.6461 
 241   2.0000      -0.537021       -14.6131 
 242   2.0000      -0.536174       -14.5900 
 243   2.0000      -0.532949       -14.5023 
 244   2.0000      -0.526312       -14.3217 
 245   2.0000      -0.520135       -14.1536 
 246   2.0000      -0.515948       -14.0396 
 247   2.0000      -0.514933       -14.0120 
 248   2.0000      -0.514510       -14.0005 
 249   2.0000      -0.511992       -13.9320 
 250   2.0000      -0.510634       -13.8951 
 251   2.0000      -0.508514       -13.8374 
 252   2.0000      -0.504098       -13.7172 
 253   2.0000      -0.503107       -13.6902 
 254   2.0000      -0.500767       -13.6266 
 255   2.0000      -0.499867       -13.6021 
 256   2.0000      -0.498550       -13.5662 
 257   2.0000      -0.497762       -13.5448 
 258   2.0000      -0.496631       -13.5140 
 259   2.0000      -0.494550       -13.4574 
 260   2.0000      -0.492356       -13.3977 
 261   2.0000      -0.490753       -13.3541 
 262   2.0000      -0.489644       -13.3239 
 263   2.0000      -0.488186       -13.2842 
 264   2.0000      -0.485436       -13.2094 
 265   2.0000      -0.483150       -13.1472 
 266   2.0000      -0.482029       -13.1167 
 267   2.0000      -0.479071       -13.0362 
 268   2.0000      -0.474869       -12.9219 
 269   2.0000      -0.474586       -12.9141 
 270   2.0000      -0.473761       -12.8917 
 271   2.0000      -0.472701       -12.8629 
 272   2.0000      -0.468462       -12.7475 
 273   2.0000      -0.467347       -12.7172 
 274   2.0000      -0.466274       -12.6880 
 275   2.0000      -0.463332       -12.6079 
 276   2.0000      -0.460368       -12.5273 
 277   2.0000      -0.453104       -12.3296 
 278   2.0000      -0.450465       -12.2578 
 279   2.0000      -0.446386       -12.1468 
 280   2.0000      -0.441601       -12.0166 
 281   2.0000      -0.411179       -11.1888 
 282   2.0000      -0.409835       -11.1522 
 283   2.0000      -0.388762       -10.5788 
 284   2.0000      -0.382049       -10.3961 
 285   2.0000      -0.377018       -10.2592 
 286   2.0000      -0.371446       -10.1076 
 287   2.0000      -0.358129        -9.7452 
 288   2.0000      -0.356496        -9.7008 
 289   2.0000      -0.351426        -9.5628 
 290   2.0000      -0.340975        -9.2784 
 291   2.0000      -0.329184        -8.9576 
 292   2.0000      -0.310806        -8.4575 
 293   2.0000      -0.305670        -8.3177 
 294   2.0000      -0.256459        -6.9786 
 295   0.0000      -0.028895        -0.7863 
 296   0.0000      -0.015561        -0.4234 
 297   0.0000       0.012449         0.3388 
 298   0.0000       0.020505         0.5580 
 299   0.0000       0.033988         0.9249 
 300   0.0000       0.068260         1.8574 
 301   0.0000       0.076803         2.0899 
 302   0.0000       0.108505         2.9526 
 303   0.0000       0.116858         3.1799 
 304   0.0000       0.134583         3.6622 
 305   0.0000       0.139031         3.7832 
 306   0.0000       0.144740         3.9386 
 307   0.0000       0.146283         3.9806 
 308   0.0000       0.150238         4.0882 
 309   0.0000       0.150545         4.0965 
 310   0.0000       0.152666         4.1543 
 311   0.0000       0.157397         4.2830 
 312   0.0000       0.161124         4.3844 
 313   0.0000       0.167951         4.5702 
 314   0.0000       0.169063         4.6004 
 315   0.0000       0.171908         4.6779 
 316   0.0000       0.174464         4.7474 
 317   0.0000       0.175997         4.7891 
 318   0.0000       0.176515         4.8032 
 319   0.0000       0.182218         4.9584 
 320   0.0000       0.186257         5.0683 
 321   0.0000       0.187557         5.1037 
 322   0.0000       0.191607         5.2139 
 323   0.0000       0.194154         5.2832 
 324   0.0000       0.194888         5.3032 
 325   0.0000       0.200486         5.4555 
 326   0.0000       0.201671         5.4877 
 327   0.0000       0.203962         5.5501 
 328   0.0000       0.206116         5.6087 
 329   0.0000       0.208032         5.6608 
 330   0.0000       0.208959         5.6861 
 331   0.0000       0.214362         5.8331 
 332   0.0000       0.219249         5.9661 
 333   0.0000       0.220235         5.9929 
 334   0.0000       0.223566         6.0835 
 335   0.0000       0.224276         6.1029 
 336   0.0000       0.225797         6.1442 
 337   0.0000       0.228769         6.2251 
 338   0.0000       0.230251         6.2655 
 339   0.0000       0.231351         6.2954 
 340   0.0000       0.234578         6.3832 
 341   0.0000       0.235938         6.4202 
 342   0.0000       0.238144         6.4802 
 343   0.0000       0.238551         6.4913 
 344   0.0000       0.239799         6.5253 
 345   0.0000       0.241456         6.5704 
 346   0.0000       0.244119         6.6428 
 347   0.0000       0.245011         6.6671 
 348   0.0000       0.247048         6.7225 
 349   0.0000       0.247500         6.7348 
 350   0.0000       0.249183         6.7806 
 351   0.0000       0.250923         6.8280 
 352   0.0000       0.255166         6.9434 
 353   0.0000       0.256951         6.9920 
 354   0.0000       0.258282         7.0282 
 355   0.0000       0.259621         7.0646 
 356   0.0000       0.262440         7.1413 
 357   0.0000       0.263030         7.1574 
 358   0.0000       0.266819         7.2605 
 359   0.0000       0.268975         7.3192 
 360   0.0000       0.274702         7.4750 
 361   0.0000       0.276125         7.5138 
 362   0.0000       0.279010         7.5923 
 363   0.0000       0.283017         7.7013 
 364   0.0000       0.286478         7.7955 
 365   0.0000       0.288683         7.8555 
 366   0.0000       0.293131         7.9765 
 367   0.0000       0.298811         8.1311 
 368   0.0000       0.301047         8.1919 
 369   0.0000       0.303284         8.2528 
 370   0.0000       0.305902         8.3240 
 371   0.0000       0.308841         8.4040 
 372   0.0000       0.316320         8.6075 
 373   0.0000       0.318426         8.6648 
 374   0.0000       0.322286         8.7698 
 375   0.0000       0.324792         8.8380 
 376   0.0000       0.327376         8.9083 
 377   0.0000       0.330226         8.9859 
 378   0.0000       0.331375         9.0172 
 379   0.0000       0.334217         9.0945 
 380   0.0000       0.337311         9.1787 
 381   0.0000       0.342187         9.3114 
 382   0.0000       0.344970         9.3871 
 383   0.0000       0.346019         9.4156 
 384   0.0000       0.349221         9.5028 
 385   0.0000       0.350353         9.5336 
 386   0.0000       0.353622         9.6226 
 387   0.0000       0.355227         9.6662 
 388   0.0000       0.358508         9.7555 
 389   0.0000       0.361137         9.8270 
 390   0.0000       0.363835         9.9005 
 391   0.0000       0.366623         9.9763 
 392   0.0000       0.368735        10.0338 
 393   0.0000       0.371424        10.1070 
 394   0.0000       0.373242        10.1564 
 395   0.0000       0.377379        10.2690 
 396   0.0000       0.382751        10.4152 
 397   0.0000       0.385075        10.4784 
 398   0.0000       0.386926        10.5288 
 399   0.0000       0.390187        10.6175 
 400   0.0000       0.392116        10.6700 
 401   0.0000       0.395479        10.7615 
 402   0.0000       0.396717        10.7952 
 403   0.0000       0.398529        10.8445 
 404   0.0000       0.399793        10.8789 
 405   0.0000       0.402347        10.9484 
 406   0.0000       0.405918        11.0456 
 407   0.0000       0.407405        11.0861 
 408   0.0000       0.409693        11.1483 
 409   0.0000       0.410126        11.1601 
 410   0.0000       0.414273        11.2729 
 411   0.0000       0.416129        11.3234 
 412   0.0000       0.417902        11.3717 
 413   0.0000       0.420115        11.4319 
 414   0.0000       0.426045        11.5933 
 415   0.0000       0.428677        11.6649 
 416   0.0000       0.431112        11.7312 
 417   0.0000       0.432954        11.7813 
 418   0.0000       0.433611        11.7992 
 419   0.0000       0.437299        11.8995 
 420   0.0000       0.440139        11.9768 
 421   0.0000       0.442300        12.0356 
 422   0.0000       0.447068        12.1653 
 423   0.0000       0.448636        12.2080 
 424   0.0000       0.454892        12.3782 
 425   0.0000       0.456832        12.4310 
 426   0.0000       0.458398        12.4736 
 427   0.0000       0.462740        12.5918 
 428   0.0000       0.465061        12.6549 
 429   0.0000       0.465960        12.6794 
 430   0.0000       0.466265        12.6877 
 431   0.0000       0.469810        12.7842 
 432   0.0000       0.473104        12.8738 
 433   0.0000       0.477447        12.9920 
 434   0.0000       0.484429        13.1820 
 435   0.0000       0.487064        13.2537 
 436   0.0000       0.493095        13.4178 
 437   0.0000       0.498087        13.5536 
 438   0.0000       0.499876        13.6023 
 439   0.0000       0.503234        13.6937 
 440   0.0000       0.507532        13.8107 
 441   0.0000       0.508848        13.8465 
 442   0.0000       0.511088        13.9074 
 443   0.0000       0.516830        14.0637 
 444   0.0000       0.520456        14.1623 
 445   0.0000       0.523757        14.2521 
 446   0.0000       0.529844        14.4178 
 447   0.0000       0.531494        14.4627 
 448   0.0000       0.535717        14.5776 
 449   0.0000       0.538641        14.6572 
 450   0.0000       0.539984        14.6937 
 451   0.0000       0.549071        14.9410 
 452   0.0000       0.551184        14.9985 
 453   0.0000       0.554242        15.0817 
 454   0.0000       0.555595        15.1185 
 455   0.0000       0.561227        15.2718 
 456   0.0000       0.566503        15.4153 
 457   0.0000       0.569009        15.4835 
 458   0.0000       0.574256        15.6263 
 459   0.0000       0.576226        15.6799 
 460   0.0000       0.579063        15.7571 
 461   0.0000       0.581530        15.8242 
 462   0.0000       0.584355        15.9011 
 463   0.0000       0.591220        16.0879 
[...]
   Time for densities:     1.632
   Using LibInt in JK Direct
   Time for J+K (Direct):  2301.146
   Time for Sigma-Completion:    19.210
   Size of expansion space: 30
   Lowest Energy          :     0.097932371592
   Maximum Energy change  :     0.000047573722 (vector 2)
   Maximum residual norm  :     0.000005843672
   Rebuilding the expansion space

                       ****Iteration    8****
   Time for densities:     3.272
   Using LibInt in JK Direct
   Time for J+K (Direct):  4242.275
   Time for Sigma-Completion:    38.267
   Size of expansion space: 6
   Lowest Energy          :     0.097932195080
   Maximum Energy change  :     0.000010134429 (vector 2)
   Maximum residual norm  :     0.000001665865

                       ****Iteration    9****
   Time for densities:     1.651
   Using LibInt in JK Direct
   Time for J+K (Direct):  2211.930
   Time for Sigma-Completion:    19.025
   Size of expansion space: 9
   Lowest Energy          :     0.097932132990
   Maximum Energy change  :     0.000004085088 (vector 2)
   Maximum residual norm  :     0.000000481645

                       ****Iteration   10****
   Time for densities:     1.637
   Using LibInt in JK Direct
   Time for J+K (Direct):  2219.420
   Time for Sigma-Completion:    19.039
   Size of expansion space: 12
   Lowest Energy          :     0.097932115444
   Maximum Energy change  :     0.000001737006 (vector 2)
   Maximum residual norm  :     0.000000322178

                       ****Iteration   11****
   Time for densities:     1.635
   Using LibInt in JK Direct
   Time for J+K (Direct):  2261.768
   Time for Sigma-Completion:    19.355
   Size of expansion space: 15
   Lowest Energy          :     0.097932110828
   Maximum Energy change  :     0.000000829449 (vector 2)
   Maximum residual norm  :     0.000000157946

      *** CONVERGENCE OF RESIDUAL NORM REACHED ***

Storing the converged CI vectors               ... H2.cis1

                 *** DAVIDSON DONE ***

Total time for solving the CIS problem: 33968.114sec

-----------------------------
CIS-EXCITED STATES (SINGLETS)
-----------------------------

the weight of the individual excitations are printed if larger than 1.0e-02

STATE  1:  E=   0.097932 au      2.665 eV    21493.6 cm**-1
   290a -> 295a  :     0.020868 (c= -0.14445648)
   290a -> 299a  :     0.011338 (c=  0.10648193)
   292a -> 296a  :     0.015606 (c=  0.12492324)
   293a -> 296a  :     0.155618 (c= -0.39448498)
   293a -> 298a  :     0.010212 (c= -0.10105339)
   294a -> 295a  :     0.645821 (c= -0.80362991)
   294a -> 297a  :     0.030591 (c=  0.17490163)

STATE  2:  E=   0.117164 au      3.188 eV    25714.5 cm**-1
   290a -> 296a  :     0.083063 (c= -0.28820659)
   292a -> 295a  :     0.023472 (c=  0.15320519)
   293a -> 295a  :     0.321636 (c= -0.56712929)
   293a -> 299a  :     0.011577 (c=  0.10759684)
   294a -> 296a  :     0.394276 (c= -0.62791390)
   294a -> 297a  :     0.018819 (c=  0.13718123)
   294a -> 298a  :     0.017239 (c= -0.13129703)
   294a -> 301a  :     0.014578 (c= -0.12073744)

STATE  3:  E=   0.148167 au      4.032 eV    32518.9 cm**-1
   289a -> 296a  :     0.013073 (c= -0.11433848)
   290a -> 295a  :     0.134425 (c=  0.36663985)
   290a -> 299a  :     0.010687 (c=  0.10337721)
   291a -> 295a  :     0.019436 (c=  0.13941176)
   293a -> 296a  :     0.147414 (c=  0.38394528)
   294a -> 295a  :     0.011410 (c= -0.10681767)
   294a -> 297a  :     0.152485 (c=  0.39049281)
   294a -> 298a  :     0.050877 (c=  0.22555958)
   294a -> 299a  :     0.288604 (c= -0.53721855)


----------------------
CIS-EXCITATION SPECTRA
----------------------

Center of mass = (-11.6993,-15.4423, -0.1281)
Calculating the Dipole integrals                  ... done
Transforming integrals                            ... done
Calculating the Linear Momentum integrals         ... done
Transforming integrals                            ... done
Calculating angular momentum integrals            ... done
Transforming integrals                            ... done

-----------------------------------------------------------------------------
         ABSORPTION SPECTRUM VIA TRANSITION ELECTRIC DIPOLE MOMENTS
-----------------------------------------------------------------------------
State   Energy    Wavelength  fosc         T2        TX        TY        TZ  
        (cm-1)      (nm)                 (au**2)    (au)      (au)      (au) 
-----------------------------------------------------------------------------
   1   21493.6    465.3   1.940143592  29.71666  -3.78854  -3.81639   0.89377
   2   25714.5    388.9   0.866956923  11.09929  -0.04273  -1.22704   3.09707
   3   32518.9    307.5   0.121714289   1.23220  -0.97177  -0.51591   0.14730

-----------------------------------------------------------------------------
         ABSORPTION SPECTRUM VIA TRANSITION VELOCITY DIPOLE MOMENTS
-----------------------------------------------------------------------------
State   Energy    Wavelength   fosc        P2         PX        PY        PZ  
        (cm-1)      (nm)                 (au**2)     (au)      (au)      (au) 
-----------------------------------------------------------------------------
   1   21493.6    465.3   0.936011768   0.13750   0.26920   0.24933  -0.05351
   2   25714.5    388.9   0.214103901   0.03763   0.06076   0.12665  -0.13377
   3   32518.9    307.5   0.036008458   0.00800  -0.02464  -0.06511   0.05618

-------------------------------------------------------------------
                             CD SPECTRUM
-------------------------------------------------------------------
State  Energy     Wavelength     R         MX        MY        MZ   
       (cm-1)       (nm)     (1e40*cgs)   (au)      (au)      (au)  
-------------------------------------------------------------------
   1   21493.6    465.3    -513.25382  -1.15128   1.59204   0.69986
   2   25714.5    388.9    163.53624   0.43937  -0.46467  -0.06603
   3   32518.9    307.5    -85.53762   0.48350  -0.57903  -0.07001

Total run time:    34079.591 sec

           *** ORCA-CIS/TD-DFT FINISHED WITHOUT ERROR ***

-----------------------
CIS/TD-DFT TOTAL ENERGY
-----------------------

    E(SCF)  =  -5786.407630622 Eh
    DE(CIS) =      0.097932111 Eh (Root  1)
    ----------------------------- ---------
    E(tot)  =  -5786.309698511 Eh


-------------------------   --------------------
FINAL SINGLE POINT ENERGY     -5786.309698510922
-------------------------   --------------------

------------------------------------------------------------------------------
                         ORCA SCF GRADIENT CALCULATION
------------------------------------------------------------------------------


------------
CIS GRADIENT
------------

Reference wavefunction             ... RHF
State of interest                  ... 1
Basis dimension                    ... 1326
DFT-XC contribution needed         ... NO
RI-approximation                   ... OFF
CIS-vectors being read from        ... H2.cis

 => Number of Vectors found: 3
 => Orbital Window: 105...294 -> 295...1325

Reading the CIS file                     ... done
Norm of the CI vector                    ... 1.000000000
Making the CIS (pseudo)densities         ... done
Making operators G(D) and Q(T)           ... done
Transforming the Fock operators          ... done
Making the frozen-core relaxed density   ... done
Constructing the G(H) operator           ... done
Transforming the G(H) operator           ... done
Calculating the CIS Lagrangian           ... done
Solving the Z-vector equations           ... done
Finalizing the relaxed density           ... done
Storing the relaxed density              ... done
Constructing the G(Z) operator           ... done
Transforming the G(Z) operator           ... done
Making the W-matrix                      ... done
Finalizing the W-matrix                  ... done
Transforming the W-matrix                ... done
Nuclear repulsion gradient               ... done
One-Electron gradient                    ... done
Prescreening matrices                    ... done
Two-Electron gradient (4-center)         ... done
                 ---------------------------
                 EXCITED STATE GRADIENT DONE
                 ---------------------------


------------------
CARTESIAN GRADIENT
------------------

   1   C   :   -0.013457395   -0.011217171    0.034365675
   2   O   :    0.015759563    0.014017150   -0.033382788
   3   C   :   -0.003008891    0.002815830   -0.012658030
   4   C   :    0.005221287   -0.001469276    0.004385606
   5   C   :   -0.000178634    0.001371482   -0.003791400
   6   C   :   -0.000216268   -0.001957947    0.006147905
   7   Cl  :   -0.001968710    0.001782588   -0.005949999
   8   C   :    0.000693738    0.001515482   -0.000829206
   9   C   :   -0.021503977   -0.002351219    0.001279861
  10   C   :    0.015929258   -0.010368786    0.003655773
  11   C   :   -0.014917011    0.004474800    0.010698670
  12   C   :    0.045596668   -0.025761617    0.021626372
  13   N   :   -0.026274301    0.010284041   -0.016492938
  14   C   :    0.008579031    0.011605234   -0.054485675
  15   N   :   -0.006972323   -0.005829973    0.030335396
  16   C   :   -0.005909946    0.002262654   -0.003043199
  17   C   :    0.005805609   -0.000644846    0.011697515
  18   C   :   -0.007387212    0.007584299   -0.006479796
  19   S   :   -0.001181523    0.007068905    0.003803708
  20   C   :    0.001066350    0.001145196   -0.003062693
  21   C   :   -0.008654486   -0.002298852   -0.000763458
  22   C   :    0.011119373    0.009277408    0.005822785
  23   C   :    0.001490518   -0.007590092    0.000004712
  24   C   :   -0.000877533    0.000393883    0.003162859
  25   S   :    0.003120655   -0.003083597    0.005760521
  26   C   :    0.008041988    0.014226284   -0.008028202
  27   C   :    0.006454874   -0.008217274    0.006617900
  28   N   :    0.001852058   -0.008751285    0.003870608
  29   C   :   -0.004273204    0.011687411   -0.007543154
  30   C   :    0.002143965   -0.001665889    0.000107612
  31   C   :   -0.029532425   -0.017111600   -0.005477681
  32   C   :    0.031729040   -0.005246177    0.035913698
  33   N   :   -0.013174392    0.009471540   -0.023583731
  34   S   :   -0.003618534    0.001049559   -0.004834696
  35   N   :   -0.019636261   -0.000017995   -0.020319630
  36   C   :    0.024610784   -0.010966727    0.038938626
  37   C   :    0.004577039    0.020795666   -0.023929141
  38   C   :    0.001519982    0.000688545    0.004359852
  39   N   :    0.006454616    0.008477521    0.003726964
  40   C   :   -0.008259299   -0.007954966   -0.008362267
  41   C   :   -0.001910499    0.007339615   -0.004929812
  42   C   :    0.003790364   -0.001006519    0.014910964
  43   C   :   -0.011593450   -0.009301486   -0.001623444
  44   S   :    0.002022656   -0.001342478    0.003678421
  45   C   :   -0.009271556   -0.001075879   -0.005120718
  46   C   :    0.005892756    0.002330207   -0.000487844
  47   S   :    0.000631940    0.003003689    0.000434951
  48   C   :   -0.010407533   -0.009159525   -0.001168886
  49   C   :    0.000043098   -0.004825048   -0.000271560
  50   C   :    0.004308847    0.006340265    0.004516430
  51   C   :    0.000145543    0.001416707   -0.001277356
  52   C   :    0.000034098    0.002421407   -0.003139550
  53   C   :   -0.002906560   -0.003457361    0.003786567
  54   C   :    0.002585207   -0.017664778   -0.015636528
  55   C   :   -0.006544250    0.012221876    0.020424235
  56   C   :   -0.007856692   -0.056404189   -0.013922241
  57   N   :    0.003478855    0.031951897    0.010477377
  58   C   :    0.025492892    0.028438754   -0.044618594
  59   N   :   -0.014447320   -0.013591696    0.027001998
  60   C   :   -0.000027734    0.015327466    0.015653727
  61   C   :    0.000757838    0.001075694   -0.001500067
  62   C   :   -0.002486581   -0.003511608    0.002921628
  63   Cl  :    0.002686319    0.004666802   -0.002638793
  64   C   :    0.001086204    0.001248564   -0.002168750
  65   C   :   -0.001699242   -0.005525167    0.000405540
  66   C   :    0.006113173    0.008081166   -0.008030892
  67   C   :   -0.025084952   -0.004744042    0.029677036
  68   O   :    0.022025706    0.008666718   -0.036322099
  69   C   :   -0.005422622   -0.005548281   -0.005167581
  70   C   :    0.004784132    0.003622229    0.003425794
  71   C   :    0.005093528    0.003825589    0.001577432
  72   C   :   -0.002019246   -0.004440877   -0.002078024
  73   C   :   -0.004532743   -0.001989036    0.000229767
  74   C   :    0.000969482   -0.005471370    0.004702923
  75   C   :    0.001817604    0.002334185   -0.003691717
  76   C   :   -0.000888370   -0.005040028    0.004093719
  77   C   :   -0.000456138    0.004948165   -0.001199049
  78   H   :   -0.001346024   -0.000562923    0.000962744
  79   H   :   -0.001164791    0.000329172   -0.000730117
  80   H   :   -0.002264009   -0.000474683   -0.000763864
  81   H   :    0.000455700   -0.001067930   -0.002355156
  82   H   :   -0.003933743   -0.000485566    0.001914292
  83   H   :    0.002186279    0.001729713    0.002753511
  84   H   :    0.001631714   -0.001506240   -0.001448207
  85   H   :    0.000333197   -0.003132676    0.001431199
  86   H   :    0.000833513   -0.002061480   -0.000845749
  87   H   :   -0.003323355   -0.002276995    0.005095773
  88   H   :    0.005810925    0.004552195   -0.003075818
  89   H   :    0.006102429    0.001240628   -0.001546836
  90   H   :   -0.005922216   -0.004040996    0.003682940
  91   H   :   -0.001065158    0.002065095   -0.001449584
  92   H   :    0.000459891    0.001272120   -0.003142716
  93   H   :    0.001016327   -0.004854237    0.002703975
  94   H   :    0.001729472    0.001459746    0.003314205
  95   H   :    0.002588944    0.000404729    0.002447830
  96   H   :    0.001647393   -0.001349980    0.003386680
  97   H   :    0.000652706    0.000624799    0.002992443
  98   H   :    0.000427156    0.002160586    0.001467165
  99   H   :    0.000301762    0.001346623    0.000174190
 100   H   :   -0.000488630    0.000465622    0.001460221
 101   H   :   -0.001396672   -0.001129525   -0.001866997
 102   H   :   -0.000979253   -0.002030519    0.000447343
 103   H   :   -0.002887901    0.001979281    0.000015330
 104   H   :   -0.002048752   -0.000730727   -0.000662238
 105   H   :   -0.000878570   -0.001482929   -0.001899212
 106   H   :    0.001691154    0.002475729   -0.000302870
 107   H   :   -0.001589230    0.002904132   -0.001182270
 108   H   :   -0.001027719    0.002649555    0.001601488
 109   H   :    0.001458217    0.002454164    0.001050986
 110   H   :    0.000108997    0.000371873    0.003362691
 111   H   :    0.000439059    0.000782735    0.001681078
 112   H   :    0.001178568    0.002027378   -0.000405490
 113   H   :    0.000337828   -0.001688005   -0.003185861
 114   H   :    0.000093135   -0.002810280    0.001011866
 115   H   :    0.003016623   -0.001306127    0.000742352
 116   H   :    0.001284264   -0.001161110    0.000784426
 117   H   :    0.000159188    0.001247776   -0.001848926
 118   H   :   -0.001152595    0.002234854   -0.000984369
 119   H   :   -0.001322671   -0.002395591    0.000710943
 120   H   :   -0.001333781   -0.002088063   -0.002414707
 121   H   :    0.001211802   -0.002793738   -0.001274620

Difference to translation invariance:
           :    0.0000000000   -0.0000000005    0.0000000004

Norm of the cartesian gradient     ...    0.2001393218
RMS gradient                       ...    0.0105045901
MAX gradient                       ...    0.0564041889

-------
TIMINGS
-------

Total CIS gradient time            ...    33450.498 sec

Fock matrix formation       ....    2543.613 sec  (  7.6%)
  Coulomb formation         ....    2543.613 sec  (100.0% of F)
Z-vector equation           ....   28242.334 sec  ( 84.4%)
One electron gradient       ....      18.254 sec  (  0.1%)
Prescreening matrices       ....       1.254 sec  (  0.0%)
Two electron gradient       ....    2641.176 sec  (  7.9%)

                            ***************************************
                            *     ORCA property calculations      *
                            ***************************************

                                    ---------------------
                                    Active property flags
                                    ---------------------
   (+) Dipole Moment


------------------------------------------------------------------------------
                       ORCA ELECTRIC PROPERTIES CALCULATION
------------------------------------------------------------------------------

Dipole Moment Calculation                       ... on
Quadrupole Moment Calculation                   ... off
Polarizability Calculation                      ... off
GBWName                                         ... H2.gbw
Electron density file                           ... H2.scfp
The origin for moment calculation is the CENTER OF MASS  = (-11.699348, -15.442333 -0.128057)

-------------
DIPOLE MOMENT
-------------
                                X             Y             Z
Electronic contribution:    -19.76704     -17.51357      14.63027
Nuclear contribution   :     21.96467      16.27616     -17.06025
                        -----------------------------------------
Total Dipole Moment    :      2.19763      -1.23741      -2.42998
                        -----------------------------------------
Magnitude (a.u.)       :      3.50222
Magnitude (Debye)      :      8.90194



--------------------
Rotational spectrum 
--------------------
 
Rotational constants in cm-1:     0.001363     0.000282     0.000251 
Rotational constants in MHz :    40.865089     8.452460     7.521912 

 Dipole components along the rotational axes: 
x,y,z [a.u.] :     1.138502    -0.888947    -3.190478 
x,y,z [Debye]:     2.893841    -2.259524    -8.109552 

 

                        *** CIS RELAXED DENSITY ***

------------------------------------------------------------------------------
                       ORCA ELECTRIC PROPERTIES CALCULATION
------------------------------------------------------------------------------

Dipole Moment Calculation                       ... on
Quadrupole Moment Calculation                   ... off
Polarizability Calculation                      ... off
GBWName                                         ... H2.gbw
Electron density file                           ... H2.cisp
The origin for moment calculation is the CENTER OF MASS  = (-11.699348, -15.442333 -0.128057)

-------------
DIPOLE MOMENT
-------------
                                X             Y             Z
Electronic contribution:    -20.46194     -17.68965      13.79440
Nuclear contribution   :     21.96467      16.27616     -17.06025
                        -----------------------------------------
Total Dipole Moment    :      1.50273      -1.41348      -3.26584
                        -----------------------------------------
Magnitude (a.u.)       :      3.86289
Magnitude (Debye)      :      9.81867



--------------------
Rotational spectrum 
--------------------
 
Rotational constants in cm-1:     0.001363     0.000282     0.000251 
Rotational constants in MHz :    40.865089     8.452460     7.521912 

 Dipole components along the rotational axes: 
x,y,z [a.u.] :     0.715569    -1.901190    -3.285623 
x,y,z [Debye]:     1.818833    -4.832440    -8.351391 

 

Timings for individual modules:

Sum of individual times         ...    79280.691 sec (=1321.345 min)
GTO integral calculation        ...        2.126 sec (=   0.035 min)   0.0 %
SCF iterations                  ...    11748.054 sec (= 195.801 min)  14.8 %
CIS module                      ...    34079.935 sec (= 567.999 min)  43.0 %
SCF Gradient evaluation         ...    33450.577 sec (= 557.510 min)  42.2 %
                             ****ORCA TERMINATED NORMALLY****
TOTAL RUN TIME: 0 days 22 hours 1 minutes 21 seconds 768 msec
