
                                 *****************
                                 * O   R   C   A *
                                 *****************

           --- An Ab Initio, DFT and Semiempirical electronic structure package ---

                  #######################################################
                  #                        -***-                        #
                  #          Department of theory and spectroscopy      #
                  #               Directorship: Frank Neese             #
                  #        Max Planck Institute fuer Kohlenforschung    #
                  #                Kaiser Wilhelm Platz 1               #
                  #                 D-45470 Muelheim/Ruhr               #
                  #                      Germany                        #
                  #                                                     #
                  #                  All rights reserved                #
                  #                        -***-                        #
                  #######################################################


                         Program Version 4.2.0 -  RELEASE  -


 With contributions from (in alphabetic order):
   Daniel Aravena         : Magnetic Suceptibility
   Michael Atanasov       : Ab Initio Ligand Field Theory (pilot matlab implementation)
   Alexander A. Auer      : GIAO ZORA, VPT2
   Ute Becker             : Parallelization
   Giovanni Bistoni       : ED, misc. LED, open-shell LED, HFLED
   Martin Brehm           : Molecular dynamics
   Dmytro Bykov           : SCF Hessian
   Vijay G. Chilkuri      : MRCI spin determinant printing, contributions to CSF-ICE
   Dipayan Datta          : RHF DLPNO-CCSD density
   Achintya Kumar Dutta   : EOM-CC, STEOM-CC
   Dmitry Ganyushin       : Spin-Orbit,Spin-Spin,Magnetic field MRCI
   Miquel Garcia          : C-PCM Hessian, Gaussian charge scheme
   Yang Guo               : DLPNO-NEVPT2, CIM, IAO-localization
   Andreas Hansen         : Spin unrestricted coupled pair/coupled cluster methods
   Benjamin Helmich-Paris : CASSCF linear response (MC-RPA)
   Lee Huntington         : MR-EOM, pCC
   Robert Izsak           : Overlap fitted RIJCOSX, COSX-SCS-MP3, EOM
   Christian Kollmar      : KDIIS, OOCD, Brueckner-CCSD(T), CCSD density
   Simone Kossmann        : Meta GGA functionals, TD-DFT gradient, OOMP2, MP2 Hessian
   Martin Krupicka        : AUTO-CI
   Lucas Lang             : DCDCAS
   Dagmar Lenk            : GEPOL surface, SMD
   Dimitrios Liakos       : Extrapolation schemes; Compound Job, initial MDCI parallelization
   Dimitrios Manganas     : Further ROCIS development; embedding schemes
   Dimitrios Pantazis     : SARC Basis sets
   Taras Petrenko         : DFT Hessian,TD-DFT gradient, ASA, ECA, R-Raman, ABS, FL, XAS/XES, NRVS
   Peter Pinski           : DLPNO-MP2, DLPNO-MP2 Gradient
   Christoph Reimann      : Effective Core Potentials
   Marius Retegan         : Local ZFS, SOC
   Christoph Riplinger    : Optimizer, TS searches, QM/MM, DLPNO-CCSD(T), (RO)-DLPNO pert. Triples
   Tobias Risthaus        : Range-separated hybrids, TD-DFT gradient, RPA, STAB
   Michael Roemelt        : Original ROCIS implementation
   Masaaki Saitow         : Open-shell DLPNO-CCSD energy and density
   Barbara Sandhoefer     : DKH picture change effects
   Avijit Sen             : IP-ROCIS
   Kantharuban Sivalingam : CASSCF convergence, NEVPT2, FIC-MRCI
   Bernardo de Souza      : ESD, SOC TD-DFT
   Georgi Stoychev        : AutoAux, RI-MP2 NMR
   Willem Van den Heuvel  : Paramagnetic NMR
   Boris Wezisla          : Elementary symmetry handling
   Frank Wennmohs         : Technical directorship


 We gratefully acknowledge several colleagues who have allowed us to
 interface, adapt or use parts of their codes:
   Stefan Grimme, W. Hujo, H. Kruse,             : VdW corrections, initial TS optimization,
                  C. Bannwarth                     DFT functionals, gCP, sTDA/sTD-DF
   Ed Valeev, F. Pavosevic, A. Kumar             : LibInt (2-el integral package), F12 methods
   Garnet Chan, S. Sharma, J. Yang, R. Olivares  : DMRG
   Ulf Ekstrom                                   : XCFun DFT Library
   Mihaly Kallay                                 : mrcc  (arbitrary order and MRCC methods)
   Andreas Klamt, Michael Diedenhofen            : otool_cosmo (COSMO solvation model)
   Jiri Pittner, Ondrej Demel                    : Mk-CCSD
   Frank Weinhold                                : gennbo (NPA and NBO analysis)
   Christopher J. Cramer and Donald G. Truhlar   : smd solvation model
   Lars Goerigk                                  : TD-DFT with DH, B97 family of functionals
   V. Asgeirsson, H. Jonsson                     : NEB implementation
   FAccTs GmbH                                   : IRC, NEB, NEB-TS, Multilevel, MM, QM/MM, CI optimization
   S Lehtola, MJT Oliveira, MAL Marques          : LibXC Library


 Your calculation uses the libint2 library for the computation of 2-el integrals
 For citations please refer to: http://libint.valeyev.net

 Your ORCA version has been built with support for libXC version: 4.2.3
 For citations please refer to: https://tddft.org/programs/libxc/

 This ORCA versions uses:
   CBLAS   interface :  Fast vector & matrix operations
   LAPACKE interface :  Fast linear algebra routines
   SCALAPACK package :  Parallel linear algebra routines


----- Orbital basis set information -----
Your calculation utilizes the basis: def2-SVP
   F. Weigend and R. Ahlrichs, Phys. Chem. Chem. Phys. 7, 3297 (2005).

================================================================================
                                        WARNINGS
                       Please study these warnings very carefully!
================================================================================

INFO   : Checking CIS options ...

WARNING: CIS/ROCIS methods need fully converged wavefunctions
  ===> : Setting SCFConvForced true
         You can overwrite this default with %scf ConvForced false 


INFO   : the flag for use of LIBINT has been found!

================================================================================
                                       INPUT FILE
================================================================================
NAME = i-cc34.inp
|  1> # ORCA input file
|  2> # i-cc34.out: Geometry 71
|  3> ! Engrad Keepdens
|  4> %maxcore 1000
|  5> %tddft
|  6>   nroots 3 
|  7>   # nroots is the number of states to be computed
|  8>   Iroot 1
|  9>   end
| 10> * xyz 0 1
| 11>    C       -0.77263        -4.40839         0.06997
| 12>    C        0.66681        -4.47924        -0.09463
| 13>    S        1.29144        -4.51283        -1.74610
| 14>    C        2.89602        -4.31215        -1.15646
| 15>    C        2.95776        -4.23645         0.22208
| 16>    C        1.68198        -4.33071         0.83746
| 17>    C        4.17047        -3.99464        -1.76008
| 18>    C        5.08022        -3.72251        -0.70508
| 19>    C        4.39187        -3.92281         0.66616
| 20>    C        4.52336        -3.82289        -3.10095
| 21>    C        5.80290        -3.36800        -3.37850
| 22>    C        6.72605        -3.09821        -2.33420
| 23>    C        6.36656        -3.27371        -0.98555
| 24>    C        6.36336        -2.94529        -4.74755
| 25>    C        7.76101        -2.48999        -4.34848
| 26>    C        7.92686        -2.57915        -2.97569
| 27>    C        8.87474        -1.92136        -5.01236
| 28>    C        9.89375        -1.58258        -4.13956
| 29>    S        9.46459        -1.97178        -2.46850
| 30>    C        4.45390        -2.61969         1.47823
| 31>    C        4.96377        -5.11214         1.45363
| 32>    C        6.39806        -4.06517        -5.79146
| 33>    C        5.47227        -1.77203        -5.20789
| 34>    C        5.99010        -5.92650         0.96765
| 35>    C        6.48222        -6.99401         1.72797
| 36>    C        5.97170        -7.28213         2.99755
| 37>    C        4.92377        -6.47410         3.47212
| 38>    C        4.43077        -5.41329         2.71862
| 39>    C        3.50188        -1.60972         1.27170
| 40>    C        3.54096        -0.42589         2.00443
| 41>    C        4.53873        -0.19825         2.96529
| 42>    C        5.50743        -1.19455         3.14416
| 43>    C        5.46567        -2.38841         2.41776
| 44>    C        4.29343        -2.02090        -5.92206
| 45>    C        3.39787        -0.99187        -6.21498
| 46>    C        3.64780         0.32757        -5.81274
| 47>    C        4.83437         0.57076        -5.10367
| 48>    C        5.73062        -0.45552        -4.80507
| 49>    C        6.66948        -3.74907        -7.13156
| 50>    C        6.63765        -4.73008        -8.12140
| 51>    C        6.33810        -6.06538        -7.81019
| 52>    C        6.11386        -6.38429        -6.46481
| 53>    C        6.14434        -5.40379        -5.47040
| 54>    C        6.53977        -8.40142         3.84308
| 55>    C        5.50040        -9.40803         4.34719
| 56>    C        4.55224         1.07505         3.77954
| 57>    C        4.70251         2.35111         2.94220
| 58>    C        6.19413        -7.11275        -8.88981
| 59>    C        4.73205        -7.32950        -9.31195
| 60>    C        2.70227         1.46767        -6.13504
| 61>    C        1.24727         1.07275        -6.39064
| 62>    S       -1.83716        -5.41828        -0.88058
| 63>    C       -3.21666        -4.49930        -0.44071
| 64>    C       -2.90513        -3.46622         0.42723
| 65>    C       -1.50161        -3.45098         0.75451
| 66>    C       -3.85214        -2.48204         0.91130
| 67>    O       -0.95602        -2.51530         1.56969
| 68>    C       -0.36244        -1.38974         0.91446
| 69>    C       -4.86330        -1.89632         0.21331
| 70>    C       -5.99840        -1.21828         0.96193
| 71>    C       -7.06995        -1.05192        -0.05283
| 72>    C       -6.58524        -1.47371        -1.33901
| 73>    C       -5.17466        -1.86527        -1.22758
| 74>    C       -8.36359        -0.60348        -0.07491
| 75>    S       -9.00356        -0.70505        -1.68373
| 76>    C       -7.52874        -1.33948        -2.33391
| 77>    O       -6.01456        -0.92819         2.13721
| 78>    C       -4.30325        -1.93978        -2.29577
| 79>    C       -4.78997        -1.82673        -3.63504
| 80>    C       -2.88185        -1.99925        -2.16438
| 81>    N       -1.72185        -1.97865        -2.10358
| 82>    N       -5.20893        -1.74952        -4.71631
| 83>    C       11.16532        -0.93968        -4.45138
| 84>    S       11.39284         0.75774        -4.02382
| 85>    C       12.91084         0.83208        -4.79024
| 86>    C       13.28556        -0.37663        -5.36340
| 87>    C       12.26833        -1.39519        -5.14875
| 88>    C       14.53700        -0.73831        -5.96101
| 89>    O       12.52064        -2.62376        -5.62892
| 90>    C       11.86838        -3.76610        -5.08988
| 91>    C       15.62983        -0.04287        -6.40142
| 92>    C       16.91615        -0.83521        -6.54197
| 93>    C       17.98720         0.18808        -6.61379
| 94>    C       17.39337         1.49609        -6.63840
| 95>    C       15.92702         1.36802        -6.64482
| 96>    C       19.35430         0.20168        -6.65409
| 97>    S       19.93281         1.83681        -6.71259
| 98>    C       18.33054         2.50240        -6.69695
| 99>    O       17.01879        -2.04235        -6.54562
|100>    C       15.05665         2.38169        -7.00560
|101>    C       15.53109         3.71701        -7.19515
|102>    C       13.68483         2.16006        -7.32121
|103>    N       12.56854         1.99011        -7.59640
|104>    N       15.92948         4.80105        -7.32609
|105>    H        1.47966        -4.24303         1.90454
|106>    H        3.79811        -3.99945        -3.89675
|107>    H        7.06305        -3.02521        -0.18222
|108>    H        8.94272        -1.72521        -6.08247
|109>    H        6.42115        -5.72975        -0.01357
|110>    H        7.28977        -7.60976         1.32205
|111>    H        4.49263        -6.67191         4.45646
|112>    H        3.63193        -4.79175         3.12842
|113>    H        2.70997        -1.75910         0.53718
|114>    H        2.77208         0.33320         1.83145
|115>    H        6.30037        -1.04529         3.88255
|116>    H        6.21469        -3.15919         2.60795
|117>    H        4.06401        -3.03429        -6.25535
|118>    H        2.48921        -1.23280        -6.76795
|119>    H        5.06034         1.58639        -4.76524
|120>    H        6.63095        -0.23127        -4.23155
|121>    H        6.87290        -2.71285        -7.41066
|122>    H        6.83776        -4.45015        -9.15977
|123>    H        5.88827        -7.41785        -6.18576
|124>    H        5.94274        -5.68682        -4.43669
|125>    H        7.06159        -7.95904         4.71154
|126>    H        7.31358        -8.93112         3.26467
|127>    H        4.73073        -8.92133         4.96680
|128>    H        5.97728       -10.18920         4.96086
|129>    H        4.98442        -9.89949         3.50714
|130>    H        5.36634         1.01778         4.52096
|131>    H        3.61523         1.13627         4.36177
|132>    H        5.64785         2.34736         2.37663
|133>    H        4.68897         3.24499         3.58590
|134>    H        3.88395         2.45436         2.21205
|135>    H        6.61546        -8.06660        -8.53041
|136>    H        6.79031        -6.81742        -9.76839
|137>    H        4.12065        -7.66360        -8.45844
|138>    H        4.64848        -8.09083       -10.10424
|139>    H        4.28807        -6.39557        -9.69195
|140>    H        3.09358         2.00715        -7.01823
|141>    H        2.74805         2.19804        -5.30920
|142>    H        1.14121         0.44212        -7.28712
|143>    H        0.62464         1.96611        -6.54995
|144>    H        0.82811         0.51153        -5.53973
|145>    H       -4.20200        -4.77008        -0.81454
|146>    H       -3.78939        -2.19630         1.96883
|147>    H        0.19452        -0.83668         1.68211
|148>    H       -1.13678        -0.74313         0.47038
|149>    H        0.32190        -1.71214         0.11543
|150>    H       -8.96726        -0.22072         0.74604
|151>    H       -7.45323        -1.57498        -3.39311
|152>    H       13.49867         1.74440        -4.73722
|153>    H       14.69663        -1.82340        -5.99733
|154>    H       11.85202        -3.72923        -3.98882
|155>    H       12.45393        -4.63178        -5.42580
|156>    H       10.83618        -3.85407        -5.45900
|157>    H       20.04455        -0.64018        -6.65535
|158>    H       18.18411         3.58014        -6.73163
|159> *
|160> 
|161>                          ****END OF INPUT****
================================================================================

                     *******************************
                     * Energy+Gradient Calculation *
                     *******************************

---------------------------------
CARTESIAN COORDINATES (ANGSTROEM)
---------------------------------
  C     -0.772630   -4.408390    0.069970
  C      0.666810   -4.479240   -0.094630
  S      1.291440   -4.512830   -1.746100
  C      2.896020   -4.312150   -1.156460
  C      2.957760   -4.236450    0.222080
  C      1.681980   -4.330710    0.837460
  C      4.170470   -3.994640   -1.760080
  C      5.080220   -3.722510   -0.705080
  C      4.391870   -3.922810    0.666160
  C      4.523360   -3.822890   -3.100950
  C      5.802900   -3.368000   -3.378500
  C      6.726050   -3.098210   -2.334200
  C      6.366560   -3.273710   -0.985550
  C      6.363360   -2.945290   -4.747550
  C      7.761010   -2.489990   -4.348480
  C      7.926860   -2.579150   -2.975690
  C      8.874740   -1.921360   -5.012360
  C      9.893750   -1.582580   -4.139560
  S      9.464590   -1.971780   -2.468500
  C      4.453900   -2.619690    1.478230
  C      4.963770   -5.112140    1.453630
  C      6.398060   -4.065170   -5.791460
  C      5.472270   -1.772030   -5.207890
  C      5.990100   -5.926500    0.967650
  C      6.482220   -6.994010    1.727970
  C      5.971700   -7.282130    2.997550
  C      4.923770   -6.474100    3.472120
  C      4.430770   -5.413290    2.718620
  C      3.501880   -1.609720    1.271700
  C      3.540960   -0.425890    2.004430
  C      4.538730   -0.198250    2.965290
  C      5.507430   -1.194550    3.144160
  C      5.465670   -2.388410    2.417760
  C      4.293430   -2.020900   -5.922060
  C      3.397870   -0.991870   -6.214980
  C      3.647800    0.327570   -5.812740
  C      4.834370    0.570760   -5.103670
  C      5.730620   -0.455520   -4.805070
  C      6.669480   -3.749070   -7.131560
  C      6.637650   -4.730080   -8.121400
  C      6.338100   -6.065380   -7.810190
  C      6.113860   -6.384290   -6.464810
  C      6.144340   -5.403790   -5.470400
  C      6.539770   -8.401420    3.843080
  C      5.500400   -9.408030    4.347190
  C      4.552240    1.075050    3.779540
  C      4.702510    2.351110    2.942200
  C      6.194130   -7.112750   -8.889810
  C      4.732050   -7.329500   -9.311950
  C      2.702270    1.467670   -6.135040
  C      1.247270    1.072750   -6.390640
  S     -1.837160   -5.418280   -0.880580
  C     -3.216660   -4.499300   -0.440710
  C     -2.905130   -3.466220    0.427230
  C     -1.501610   -3.450980    0.754510
  C     -3.852140   -2.482040    0.911300
  O     -0.956020   -2.515300    1.569690
  C     -0.362440   -1.389740    0.914460
  C     -4.863300   -1.896320    0.213310
  C     -5.998400   -1.218280    0.961930
  C     -7.069950   -1.051920   -0.052830
  C     -6.585240   -1.473710   -1.339010
  C     -5.174660   -1.865270   -1.227580
  C     -8.363590   -0.603480   -0.074910
  S     -9.003560   -0.705050   -1.683730
  C     -7.528740   -1.339480   -2.333910
  O     -6.014560   -0.928190    2.137210
  C     -4.303250   -1.939780   -2.295770
  C     -4.789970   -1.826730   -3.635040
  C     -2.881850   -1.999250   -2.164380
  N     -1.721850   -1.978650   -2.103580
  N     -5.208930   -1.749520   -4.716310
  C     11.165320   -0.939680   -4.451380
  S     11.392840    0.757740   -4.023820
  C     12.910840    0.832080   -4.790240
  C     13.285560   -0.376630   -5.363400
  C     12.268330   -1.395190   -5.148750
  C     14.537000   -0.738310   -5.961010
  O     12.520640   -2.623760   -5.628920
  C     11.868380   -3.766100   -5.089880
  C     15.629830   -0.042870   -6.401420
  C     16.916150   -0.835210   -6.541970
  C     17.987200    0.188080   -6.613790
  C     17.393370    1.496090   -6.638400
  C     15.927020    1.368020   -6.644820
  C     19.354300    0.201680   -6.654090
  S     19.932810    1.836810   -6.712590
  C     18.330540    2.502400   -6.696950
  O     17.018790   -2.042350   -6.545620
  C     15.056650    2.381690   -7.005600
  C     15.531090    3.717010   -7.195150
  C     13.684830    2.160060   -7.321210
  N     12.568540    1.990110   -7.596400
  N     15.929480    4.801050   -7.326090
  H      1.479660   -4.243030    1.904540
  H      3.798110   -3.999450   -3.896750
  H      7.063050   -3.025210   -0.182220
  H      8.942720   -1.725210   -6.082470
  H      6.421150   -5.729750   -0.013570
  H      7.289770   -7.609760    1.322050
  H      4.492630   -6.671910    4.456460
  H      3.631930   -4.791750    3.128420
  H      2.709970   -1.759100    0.537180
  H      2.772080    0.333200    1.831450
  H      6.300370   -1.045290    3.882550
  H      6.214690   -3.159190    2.607950
  H      4.064010   -3.034290   -6.255350
  H      2.489210   -1.232800   -6.767950
  H      5.060340    1.586390   -4.765240
  H      6.630950   -0.231270   -4.231550
  H      6.872900   -2.712850   -7.410660
  H      6.837760   -4.450150   -9.159770
  H      5.888270   -7.417850   -6.185760
  H      5.942740   -5.686820   -4.436690
  H      7.061590   -7.959040    4.711540
  H      7.313580   -8.931120    3.264670
  H      4.730730   -8.921330    4.966800
  H      5.977280  -10.189200    4.960860
  H      4.984420   -9.899490    3.507140
  H      5.366340    1.017780    4.520960
  H      3.615230    1.136270    4.361770
  H      5.647850    2.347360    2.376630
  H      4.688970    3.244990    3.585900
  H      3.883950    2.454360    2.212050
  H      6.615460   -8.066600   -8.530410
  H      6.790310   -6.817420   -9.768390
  H      4.120650   -7.663600   -8.458440
  H      4.648480   -8.090830  -10.104240
  H      4.288070   -6.395570   -9.691950
  H      3.093580    2.007150   -7.018230
  H      2.748050    2.198040   -5.309200
  H      1.141210    0.442120   -7.287120
  H      0.624640    1.966110   -6.549950
  H      0.828110    0.511530   -5.539730
  H     -4.202000   -4.770080   -0.814540
  H     -3.789390   -2.196300    1.968830
  H      0.194520   -0.836680    1.682110
  H     -1.136780   -0.743130    0.470380
  H      0.321900   -1.712140    0.115430
  H     -8.967260   -0.220720    0.746040
  H     -7.453230   -1.574980   -3.393110
  H     13.498670    1.744400   -4.737220
  H     14.696630   -1.823400   -5.997330
  H     11.852020   -3.729230   -3.988820
  H     12.453930   -4.631780   -5.425800
  H     10.836180   -3.854070   -5.459000
  H     20.044550   -0.640180   -6.655350
  H     18.184110    3.580140   -6.731630

----------------------------
CARTESIAN COORDINATES (A.U.)
----------------------------
  NO LB      ZA    FRAG     MASS         X           Y           Z
   0 C     6.0000    0    12.011   -1.460059   -8.330650    0.132224
   1 C     6.0000    0    12.011    1.260088   -8.464537   -0.178825
   2 S    16.0000    0    32.060    2.440468   -8.528013   -3.299651
   3 C     6.0000    0    12.011    5.472685   -8.148783   -2.185393
   4 C     6.0000    0    12.011    5.589356   -8.005730    0.419670
   5 C     6.0000    0    12.011    3.178482   -8.183856    1.582570
   6 C     6.0000    0    12.011    7.881046   -7.548776   -3.326069
   7 C     6.0000    0    12.011    9.600225   -7.034524   -1.332408
   8 C     6.0000    0    12.011    8.299432   -7.413037    1.258860
   9 C     6.0000    0    12.011    8.547912   -7.224215   -5.859946
  10 C     6.0000    0    12.011   10.965892   -6.364598   -6.384440
  11 C     6.0000    0    12.011   12.710392   -5.854768   -4.410999
  12 C     6.0000    0    12.011   12.031055   -6.186415   -1.862420
  13 C     6.0000    0    12.011   12.025008   -5.565791   -8.971569
  14 C     6.0000    0    12.011   14.666183   -4.705399   -8.217436
  15 C     6.0000    0    12.011   14.979595   -4.873887   -5.623239
  16 C     6.0000    0    12.011   16.770828   -3.630844   -9.471988
  17 C     6.0000    0    12.011   18.696478   -2.990643   -7.822635
  18 S    16.0000    0    32.060   17.885483   -3.726124   -4.664789
  19 C     6.0000    0    12.011    8.416651   -4.950497    2.793450
  20 C     6.0000    0    12.011    9.380166   -9.660545    2.746963
  21 C     6.0000    0    12.011   12.090581   -7.682058  -10.944273
  22 C     6.0000    0    12.011   10.341092   -3.348651   -9.841486
  23 C     6.0000    0    12.011   11.319649  -11.199462    1.828593
  24 C     6.0000    0    12.011   12.249621  -13.216763    3.265390
  25 C     6.0000    0    12.011   11.284878  -13.761231    5.664549
  26 C     6.0000    0    12.011    9.304577  -12.234276    6.561356
  27 C     6.0000    0    12.011    8.372942  -10.229636    5.137447
  28 C     6.0000    0    12.011    6.617594   -3.041930    2.403165
  29 C     6.0000    0    12.011    6.691445   -0.804815    3.787824
  30 C     6.0000    0    12.011    8.576957   -0.374638    5.603586
  31 C     6.0000    0    12.011   10.407534   -2.257372    5.941601
  32 C     6.0000    0    12.011   10.328619   -4.513441    4.568904
  33 C     6.0000    0    12.011    8.113407   -3.818948  -11.191072
  34 C     6.0000    0    12.011    6.421044   -1.874363  -11.744610
  35 C     6.0000    0    12.011    6.893343    0.619018  -10.984487
  36 C     6.0000    0    12.011    9.135635    1.078580   -9.644539
  37 C     6.0000    0    12.011   10.829302   -0.860808   -9.080266
  38 C     6.0000    0    12.011   12.603491   -7.084716  -13.476695
  39 C     6.0000    0    12.011   12.543341   -8.938556  -15.347222
  40 C     6.0000    0    12.011   11.977273  -11.461907  -14.759120
  41 C     6.0000    0    12.011   11.553521  -12.064560  -12.216720
  42 C     6.0000    0    12.011   11.611120  -10.211683  -10.337558
  43 C     6.0000    0    12.011   12.358374  -15.876383    7.262369
  44 C     6.0000    0    12.011   10.394250  -17.778600    8.214999
  45 C     6.0000    0    12.011    8.602487    2.031550    7.142296
  46 C     6.0000    0    12.011    8.886456    4.442954    5.559952
  47 C     6.0000    0    12.011   11.705209  -13.441150  -16.799306
  48 C     6.0000    0    12.011    8.942279  -13.850748  -17.597035
  49 C     6.0000    0    12.011    5.106550    2.773494  -11.593545
  50 C     6.0000    0    12.011    2.356999    2.027204  -12.076559
  51 S    16.0000    0    32.060   -3.471729  -10.239065   -1.664055
  52 C     6.0000    0    12.011   -6.078606   -8.502445   -0.832821
  53 C     6.0000    0    12.011   -5.489900   -6.550207    0.807348
  54 C     6.0000    0    12.011   -2.837632   -6.521407    1.425817
  55 C     6.0000    0    12.011   -7.279490   -4.690376    1.722107
  56 O     8.0000    0    15.999   -1.806616   -4.753228    2.966284
  57 C     6.0000    0    12.011   -0.684912   -2.626228    1.728079
  58 C     6.0000    0    12.011   -9.190305   -3.583525    0.403097
  59 C     6.0000    0    12.011  -11.335333   -2.302216    1.817784
  60 C     6.0000    0    12.011  -13.360269   -1.987841   -0.099834
  61 C     6.0000    0    12.011  -12.444300   -2.784908   -2.530362
  62 C     6.0000    0    12.011   -9.778690   -3.524849   -2.319790
  63 C     6.0000    0    12.011  -15.804895   -1.140412   -0.141559
  64 S    16.0000    0    32.060  -17.014263   -1.332351   -3.181789
  65 C     6.0000    0    12.011  -14.227257   -2.531250   -4.410451
  66 O     8.0000    0    15.999  -11.365871   -1.754025    4.038742
  67 C     6.0000    0    12.011   -8.131964   -3.665653   -4.338377
  68 C     6.0000    0    12.011   -9.051731   -3.452019   -6.869230
  69 C     6.0000    0    12.011   -5.445907   -3.778035   -4.090085
  70 N     7.0000    0    14.007   -3.253825   -3.739107   -3.975190
  71 N     7.0000    0    14.007   -9.843451   -3.306114   -8.912534
  72 C     6.0000    0    12.011   21.099397   -1.775738   -8.411889
  73 S    16.0000    0    32.060   21.529347    1.431921   -7.603918
  74 C     6.0000    0    12.011   24.397952    1.572403   -9.052242
  75 C     6.0000    0    12.011   25.106070   -0.711728  -10.135357
  76 C     6.0000    0    12.011   23.183784   -2.636527   -9.729727
  77 C     6.0000    0    12.011   27.470949   -1.395204  -11.264676
  78 O     8.0000    0    15.999   23.660581   -4.958188  -10.637117
  79 C     6.0000    0    12.011   22.427988   -7.116898   -9.618479
  80 C     6.0000    0    12.011   29.536098   -0.081013  -12.096931
  81 C     6.0000    0    12.011   31.966891   -1.578318  -12.362532
  82 C     6.0000    0    12.011   33.990882    0.355420  -12.498252
  83 C     6.0000    0    12.011   32.868706    2.827200  -12.544758
  84 C     6.0000    0    12.011   30.097706    2.585183  -12.556890
  85 C     6.0000    0    12.011   36.574327    0.381120  -12.574408
  86 S    16.0000    0    32.060   37.667552    3.471068  -12.684957
  87 C     6.0000    0    12.011   34.639700    4.728851  -12.655401
  88 O     8.0000    0    15.999   32.160852   -3.859482  -12.369429
  89 C     6.0000    0    12.011   28.452945    4.500742  -13.238665
  90 C     6.0000    0    12.011   29.349507    7.024131  -13.596863
  91 C     6.0000    0    12.011   25.860581    4.081922  -13.835082
  92 N     7.0000    0    14.007   23.751099    3.760763  -14.355116
  93 N     7.0000    0    14.007   30.102355    9.072670  -13.844304
  94 H     1.0000    0     1.008    2.796152   -8.018165    3.599059
  95 H     1.0000    0     1.008    7.177388   -7.557865   -7.363790
  96 H     1.0000    0     1.008   13.347230   -5.716818   -0.344346
  97 H     1.0000    0     1.008   16.899292   -3.260174  -11.494203
  98 H     1.0000    0     1.008   12.134215  -10.827658   -0.025644
  99 H     1.0000    0     1.008   13.775669  -14.380362    2.498312
 100 H     1.0000    0     1.008    8.489840  -12.608083    8.421489
 101 H     1.0000    0     1.008    6.863353   -9.055095    5.911857
 102 H     1.0000    0     1.008    5.121101   -3.324217    1.015123
 103 H     1.0000    0     1.008    5.238472    0.629657    3.460939
 104 H     1.0000    0     1.008   11.905974   -1.975312    7.336956
 105 H     1.0000    0     1.008   11.744062   -5.970004    4.928311
 106 H     1.0000    0     1.008    7.679866   -5.733977  -11.820898
 107 H     1.0000    0     1.008    4.703925   -2.329654  -12.789572
 108 H     1.0000    0     1.008    9.562657    2.997843   -9.004999
 109 H     1.0000    0     1.008   12.530680   -0.437037   -7.996471
 110 H     1.0000    0     1.008   12.987899   -5.126544  -14.004118
 111 H     1.0000    0     1.008   12.921494   -8.409565  -17.309457
 112 H     1.0000    0     1.008   11.127218  -14.017705  -11.689392
 113 H     1.0000    0     1.008   11.230151  -10.746532   -8.384129
 114 H     1.0000    0     1.008   13.344471  -15.040406    8.903520
 115 H     1.0000    0     1.008   13.820663  -16.877371    6.169332
 116 H     1.0000    0     1.008    8.939784  -16.858870    9.385892
 117 H     1.0000    0     1.008   11.295422  -19.254798    9.374667
 118 H     1.0000    0     1.008    9.419189  -18.707325    6.627534
 119 H     1.0000    0     1.008   10.140913    1.923325    8.543376
 120 H     1.0000    0     1.008    6.831795    2.147239    8.242551
 121 H     1.0000    0     1.008   10.672890    4.435868    4.491180
 122 H     1.0000    0     1.008    8.860869    6.132142    6.776369
 123 H     1.0000    0     1.008    7.339602    4.638068    4.180169
 124 H     1.0000    0     1.008   12.501408  -15.243665  -16.120139
 125 H     1.0000    0     1.008   12.831826  -12.883057  -18.459582
 126 H     1.0000    0     1.008    7.786900  -14.482105  -15.984135
 127 H     1.0000    0     1.008    8.784354  -15.289453  -19.094246
 128 H     1.0000    0     1.008    8.103278  -12.085876  -18.315131
 129 H     1.0000    0     1.008    5.846019    3.792964  -13.262533
 130 H     1.0000    0     1.008    5.193062    4.153694  -10.032934
 131 H     1.0000    0     1.008    2.156574    0.835486  -13.770661
 132 H     1.0000    0     1.008    1.180399    3.715409  -12.377612
 133 H     1.0000    0     1.008    1.564901    0.966652  -10.468573
 134 H     1.0000    0     1.008   -7.940629   -9.014145   -1.539258
 135 H     1.0000    0     1.008   -7.160909   -4.150406    3.720550
 136 H     1.0000    0     1.008    0.367590   -1.581096    3.178727
 137 H     1.0000    0     1.008   -2.148203   -1.404312    0.888889
 138 H     1.0000    0     1.008    0.608303   -3.235476    0.218131
 139 H     1.0000    0     1.008  -16.945666   -0.417100    1.409811
 140 H     1.0000    0     1.008  -14.084564   -2.976281   -6.412049
 141 H     1.0000    0     1.008   25.508789    3.296438   -8.952048
 142 H     1.0000    0     1.008   27.772606   -3.445727  -11.333311
 143 H     1.0000    0     1.008   22.397072   -7.047223   -7.537777
 144 H     1.0000    0     1.008   23.534517   -8.752796  -10.253276
 145 H     1.0000    0     1.008   20.477413   -7.283137  -10.316015
 146 H     1.0000    0     1.008   37.878710   -1.209765  -12.576789
 147 H     1.0000    0     1.008   34.362988    6.765484  -12.720937

--------------------------------
INTERNAL COORDINATES (ANGSTROEM)
--------------------------------
 C      0   0   0     0.000000000000     0.00000000     0.00000000
 C      1   0   0     1.450551755747     0.00000000     0.00000000
 S      2   1   0     1.765968313957   117.26072785     0.00000000
 C      3   2   1     1.721227692201    90.41007950   170.70735130
 C      4   3   2     1.381996689287   112.93868758     0.56076229
 C      2   1   3     1.386154052730   130.18197476   169.31382887
 C      4   3   2     1.445473108363   134.78814519   192.39608511
 C      7   4   3     1.419410018071   107.26742252   169.03570026
 C      5   4   3     1.533704204891   109.98646572   185.47365450
 C      7   4   3     1.397126254674   130.57776831   355.29800181
 C     10   7   4     1.386066927028   117.75519187   172.71115945
 C     11  10   7     1.419702453544   121.02015857     0.57037300
 C      8   7   4     1.390954872201   120.31267992   185.46245422
 C     11  10   7     1.538537311280   127.20270774   187.87158369
 C     14  11  10     1.523148212552   100.55932505   176.97039477
 C     15  14  11     1.385643573290   110.49762740   357.33859954
 C     15  14  11     1.415793503375   135.97466534   182.78959336
 C     17  15  14     1.383811081217   112.44803929   174.70926949
 S     16  15  14     1.729379532058   111.98642671   183.81280136
 C      9   5   4     1.536693573944   111.35662760   121.00983304
 C      9   5   4     1.536777296748   109.76004577   245.28318291
 C     14  11  10     1.531366511486   114.45148906   297.32698657
 C     14  11  10     1.543532743838   105.30289535    60.06860560
 C     21   9   5     1.397394732672   123.10193448   110.97885357
 C     24  21   9     1.399945069244   120.90977246   179.61435395
 C     25  24  21     1.398383774648   121.45697090   359.78586815
 C     26  25  24     1.405804556366   117.39995020     1.27214577
 C     27  26  25     1.391448563943   121.29909181   358.81727196
 C     20   9   5     1.403223475502   120.34359374   332.63355528
 C     29  20   9     1.392793584204   121.01731999   179.68284374
 C     30  29  20     1.403786622710   121.18945618     0.52561583
 C     31  30  29     1.401066685387   117.61318484     1.09400244
 C     32  31  30     1.398106776037   121.34805316   358.41508264
 C     23  14  11     1.400585167493   120.19298207   272.36625403
 C     34  23  14     1.395253590176   121.08038959   172.62903989
 C     35  34  23     1.401850183186   121.29813153     0.35957315
 C     36  35  34     1.403520575517   117.30805018     0.00000000
 C     37  36  35     1.394875141688   121.59259820   359.82187186
 C     22  14  11     1.403373092374   119.38094508   169.12584143
 C     39  22  14     1.393978835779   121.00660362   183.52739886
 C     40  39  22     1.403427218134   121.13114241   359.77510590
 C     41  40  39     1.400726422290   117.63130891   358.04085298
 C     42  41  40     1.396839478430   121.36333270     1.99277700
 C     26  25  24     1.513418187382   121.50515659   182.45677343
 C     44  26  25     1.532214273886   114.52361083   233.18559545
 C     31  30  29     1.511449130007   120.77756001   181.53902537
 C     46  31  30     1.533638964066   114.05982788   298.78478483
 C     41  40  39     1.511056128077   121.42557818   175.09329141
 C     48  41  40     1.537159935888   112.61730756   264.48024767
 C     36  35  34     1.515827259585   122.39116462   179.08515893
 C     50  36  35     1.529156030757   115.77363858    24.19522493
 S      1   2   3     1.748326981860   120.95149640    44.93883512
 C     52   1   2     1.714943179030    92.33835724   193.69358745
 C     53  52   1     1.384783402161   112.30686024   358.71450115
 C      1   2   3     1.384427954102   127.76391390   237.14070387
 C     54  53  52     1.449055546692   124.68354275   176.50087856
 O     55   1   2     1.355612017835   124.24578782   349.27249513
 C     57  55   1     1.431275264546   115.74838614    78.74190384
 C     56  54  53     1.361140148589   127.33377176   321.62843851
 C     59  56  54     1.519415070348   119.62678864   161.67392078
 C     60  59  56     1.485137336983   104.61681688   195.67896924
 C     61  60  59     1.437744615918   109.58096454   354.93209821
 C     62  61  60     1.468152517588   109.52736646   357.28313982
 C     61  60  59     1.369339406283   136.83030453   175.42813099
 S     64  61  60     1.734410521820   110.14303156   179.82193540
 C     62  61  60     1.377692256239   112.74041478   180.33053422
 O     60  59  56     1.210659502957   126.52716033    13.56778185
 C     63  62  61     1.380556773298   124.20244325   199.90631558
 C     68  63  62     1.429447723353   120.38029950   350.46279024
 C     68  63  62     1.428697999229   123.99132628   164.16153961
 N     70  68  63     1.161774935175   175.90471408   238.26161018
 N     69  68  63     1.162167663722   178.59331913   322.66540952
 C     18  17  15     1.458575465069   127.95465933   182.19511563
 S     73  18  17     1.765165023560   118.97592037   105.57069945
 C     74  73  18     1.702131032559    92.74462985   185.50089152
 C     75  74  73     1.389211045198   112.85057858   359.58979480
 C     73  18  17     1.382188604026   131.17075703   291.35596476
 C     76  75  74     1.433196500170   128.83900420   187.32839772
 O     77  73  18     1.342984664804   129.18299510   352.82836884
 C     79  77  73     1.421600472988   120.88585337   338.04291909
 C     78  76  75     1.368164891597   134.70110838   345.14173105
 C     81  78  76     1.517292364872   116.20243225   160.21076659
 C     82  81  78     1.483047079158   104.85809478   196.86346361
 C     83  82  81     1.436708001335   109.29973083   355.16570680
 C     81  78  76     1.462250337049   134.94032119   348.76717523
 C     83  82  81     1.367761477744   136.89762177   174.73918120
 S     86  83  82     1.735438327052   110.09339721   180.81860041
 C     84  83  82     1.376363152478   112.63976872   179.63491839
 O     82  81  78     1.211501247090   126.32965532    14.62539358
 C     85  81  78     1.383919439202   128.48487965   331.23386919
 C     90  85  81     1.429720958264   120.66133290   179.65452432
 C     90  85  81     1.424998119788   123.31664239   354.11079631
 N     92  90  85     1.162203038501   178.96641900   230.86272477
 N     91  90  85     1.162326372969   178.69617303   311.21175747
 H      6   2   1     1.089624197235   122.08347789     7.33307634
 H     10   7   4     1.091081406725   120.81135891   355.38886679
 H     13   8   7     1.091874378763   120.99677582   177.68287574
 H     17  15  14     1.090060326312   125.56723238   356.78079523
 H     24  21   9     1.089636339978   119.90017872   359.95044513
 H     25  24  21     1.093643502884   119.16436509   180.32704737
 H     27  26  25     1.092673661850   119.61584638   179.54275993
 H     28  27  26     1.091967653917   119.33476022   181.43948121
 H     29  20   9     1.090392343563   119.55618960     0.61484384
 H     30  29  20     1.094219430873   119.12807093   181.13853915
 H     32  31  30     1.093733140807   119.36702595   179.76480046
 H     33  32  31     1.091469195580   119.47138777   182.25160701
 H     34  23  14     1.091180577448   119.84997958   352.80838599
 H     35  34  23     1.090635631822   118.57339618   180.38906636
 H     37  36  35     1.094121383897   119.45347453   180.52334131
 H     38  37  36     1.090782912316   119.44831651   181.43977238
 H     39  22  14     1.092258391957   119.58480349     1.25944633
 H     40  39  22     1.093899937791   119.32543546   179.01482703
 H     42  41  40     1.094077704827   119.54237886   180.63678463
 H     43  42  41     1.090552568655   119.24767242   178.63305115
 H     44  26  25     1.105540116142   108.66948587   111.12817531
 H     44  26  25     1.101781345912   109.01935653   356.19378035
 H     45  44  26     1.101446935172   111.64163272   300.39611805
 H     45  44  26     1.101921944695   110.81743540   180.46972713
 H     45  44  26     1.101568107064   111.09667617    60.24075051
 H     46  31  30     1.102607037571   108.97117862   175.76627978
 H     46  31  30     1.104865331794   108.84372727    60.66313932
 H     47  46  31     1.101613000559   111.19596766   299.49679598
 H     47  46  31     1.101614486107   110.78797005   179.05580847
 H     47  46  31     1.101735021954   111.53164345    59.24576866
 H     48  41  40     1.102958363403   109.28228754   142.77796259
 H     48  41  40     1.102067701051   109.40865949    26.46664533
 H     49  48  41     1.101776787784   110.96726876   299.77425717
 H     49  48  41     1.101966768056   111.53074023   179.59162728
 H     49  48  41     1.101700270173   111.00818268    59.24848642
 H     50  36  35     1.106429736856   108.41170688   261.11536838
 H     50  36  35     1.103425507635   108.22986294   147.65218169
 H     51  50  36     1.101189952233   112.06273891   295.62083691
 H     51  50  36     1.100518006486   110.66326450   176.26633707
 H     51  50  36     1.102139202687   111.36640161    56.05088161
 H     53  52   1     1.088101830207   120.46135330   180.37471679
 H     56  54  53     1.097248655046   117.48151097   138.76782051
 H     58  57  55     1.097891765021   106.64523308   190.72558437
 H     58  57  55     1.102231361421   110.75822825    71.00967470
 H     58  57  55     1.100323559913   111.09733758   310.43019215
 H     64  61  60     1.088522663522   128.82275596     0.15086695
 H     66  62  61     1.087688673334   129.39007435   180.07543794
 H     75  74  73     1.086592385258   119.81241125   183.40234819
 H     78  76  75     1.097370123249   112.97652112   158.76395746
 H     80  79  77     1.101798606870   111.02940216   315.86565810
 H     80  79  77     1.097776348488   105.83721835   196.66902640
 H     80  79  77     1.099738666820   111.57091745    77.56313341
 H     86  83  82     1.088657388575   128.76122112     0.98731585
 H     88  84  83     1.088194814774   129.33432890   179.68313701

---------------------------
INTERNAL COORDINATES (A.U.)
---------------------------
 C      0   0   0     0.000000000000     0.00000000     0.00000000
 C      1   0   0     2.741145561440     0.00000000     0.00000000
 S      2   1   0     3.337196474561   117.26072785     0.00000000
 C      3   2   1     3.252648952381    90.41007950   170.70735130
 C      4   3   2     2.611595260738   112.93868758     0.56076229
 C      2   1   3     2.619451539085   130.18197476   169.31382887
 C      4   3   2     2.731548308754   134.78814519   192.39608511
 C      7   4   3     2.682296205898   107.26742252   169.03570026
 C      5   4   3     2.898280917687   109.98646572   185.47365450
 C      7   4   3     2.640185995845   130.57776831   355.29800181
 C     10   7   4     2.619286895368   117.75519187   172.71115945
 C     11  10   7     2.682848828855   121.02015857     0.57037300
 C      8   7   4     2.628523773104   120.31267992   185.46245422
 C     11  10   7     2.907414165138   127.20270774   187.87158369
 C     14  11  10     2.878332983095   100.55932505   176.97039477
 C     15  14  11     2.618486872746   110.49762740   357.33859954
 C     15  14  11     2.675461983564   135.97466534   182.78959336
 C     17  15  14     2.615023964586   112.44803929   174.70926949
 S     16  15  14     3.268053697198   111.98642671   183.81280136
 C      9   5   4     2.903930006510   111.35662760   121.00983304
 C      9   5   4     2.904088219681   109.76004577   245.28318291
 C     14  11  10     2.893863317366   114.45148906   297.32698657
 C     14  11  10     2.916854164594   105.30289535    60.06860560
 C     21   9   5     2.640693345735   123.10193448   110.97885357
 C     24  21   9     2.645512783404   120.90977246   179.61435395
 C     25  24  21     2.642562364205   121.45697090   359.78586815
 C     26  25  24     2.656585609351   117.39995020     1.27214577
 C     27  26  25     2.629456715291   121.29909181   358.81727196
 C     20   9   5     2.651708073388   120.34359374   332.63355528
 C     29  20   9     2.631998435228   121.01731999   179.68284374
 C     30  29  20     2.652772267384   121.18945618     0.52561583
 C     31  30  29     2.647632330741   117.61318484     1.09400244
 C     32  31  30     2.642038912689   121.34805316   358.41508264
 C     23  14  11     2.646722393793   120.19298207   272.36625403
 C     34  23  14     2.636647172804   121.08038959   172.62903989
 C     35  34  23     2.649112927010   121.29813153     0.35957315
 C     36  35  34     2.652269511051   117.30805018     0.00000000
 C     37  36  35     2.635932008806   121.59259820   359.82187186
 C     22  14  11     2.651990808301   119.38094508   169.12584143
 C     39  22  14     2.634238236105   121.00660362   183.52739886
 C     40  39  22     2.652093091165   121.13114241   359.77510590
 C     41  40  39     2.646989326675   117.63130891   358.04085298
 C     42  41  40     2.639644067282   121.36333270     1.99277700
 C     26  25  24     2.859945900248   121.50515659   182.45677343
 C     44  26  25     2.895465356130   114.52361083   233.18559545
 C     31  30  29     2.856224921067   120.77756001   181.53902537
 C     46  31  30     2.898157630395   114.05982788   298.78478483
 C     41  40  39     2.855482255050   121.42557818   175.09329141
 C     48  41  40     2.904811302865   112.61730756   264.48024767
 C     36  35  34     2.864498386947   122.39116462   179.08515893
 C     50  36  35     2.889686114164   115.77363858    24.19522493
 S      1   2   3     3.303859188261   120.95149640    44.93883512
 C     52   1   2     3.240772943602    92.33835724   193.69358745
 C     53  52   1     2.616861384884   112.30686024   358.71450115
 C      1   2   3     2.616189685398   127.76391390   237.14070387
 C     54  53  52     2.738318136088   124.68354275   176.50087856
 O     55   1   2     2.561735457561   124.24578782   349.27249513
 C     57  55   1     2.704718272247   115.74838614    78.74190384
 C     56  54  53     2.572182110717   127.33377176   321.62843851
 C     59  56  54     2.871278366710   119.62678864   161.67392078
 C     60  59  56     2.806502838158   104.61681688   195.67896924
 C     61  60  59     2.716943574604   109.58096454   354.93209821
 C     62  61  60     2.774406181068   109.52736646   357.28313982
 C     61  60  59     2.587676462262   136.83030453   175.42813099
 S     64  61  60     3.277560890031   110.14303156   179.82193540
 C     62  61  60     2.603461061115   112.74041478   180.33053422
 O     60  59  56     2.287814902018   126.52716033    13.56778185
 C     63  62  61     2.608874213864   124.20244325   199.90631558
 C     68  63  62     2.701264719895   120.38029950   350.46279024
 C     68  63  62     2.699847946623   123.99132628   164.16153961
 N     70  68  63     2.195436456734   175.90471408   238.26161018
 N     69  68  63     2.196178606133   178.59331913   322.66540952
 C     18  17  15     2.756308174636   127.95465933   182.19511563
 S     73  18  17     3.335678475705   118.97592037   105.57069945
 C     74  73  18     3.216561495585    92.74462985   185.50089152
 C     75  74  73     2.625228417643   112.85057858   359.58979480
 C     73  18  17     2.611957927037   131.17075703   291.35596476
 C     76  75  74     2.708348881416   128.83900420   187.32839772
 O     77  73  18     2.537873218536   129.18299510   352.82836884
 C     79  77  73     2.686435565800   120.88585337   338.04291909
 C     78  76  75     2.585456951165   134.70110838   345.14173105
 C     81  78  76     2.867267034699   116.20243225   160.21076659
 C     82  81  78     2.802552823321   104.85809478   196.86346361
 C     83  82  81     2.714984656937   109.29973083   355.16570680
 C     81  78  76     2.763252676257   134.94032119   348.76717523
 C     83  82  81     2.584694609463   136.89762177   174.73918120
 S     86  83  82     3.279503160438   110.09339721   180.81860041
 C     84  83  82     2.600949419004   112.63976872   179.63491839
 O     82  81  78     2.289405567904   126.32965532    14.62539358
 C     85  81  78     2.615228731501   128.48487965   331.23386919
 C     90  85  81     2.701781059047   120.66133290   179.65452432
 C     90  85  81     2.692856187752   123.31664239   354.11079631
 N     92  90  85     2.196245454777   178.96641900   230.86272477
 N     91  90  85     2.196478523146   178.69617303   311.21175747
 H      6   2   1     2.059091321668   122.08347789     7.33307634
 H     10   7   4     2.061845048523   120.81135891   355.38886679
 H     13   8   7     2.063343548508   120.99677582   177.68287574
 H     17  15  14     2.059915486183   125.56723238   356.78079523
 H     24  21   9     2.059114268126   119.90017872   359.95044513
 H     25  24  21     2.066686708593   119.16436509   180.32704737
 H     27  26  25     2.064853974645   119.61584638   179.54275993
 H     28  27  26     2.063519813003   119.33476022   181.43948121
 H     29  20   9     2.060542907858   119.55618960     0.61484384
 H     30  29  20     2.067775054765   119.12807093   181.13853915
 H     32  31  30     2.066856099719   119.36702595   179.76480046
 H     33  32  31     2.062577863257   119.47138777   182.25160701
 H     34  23  14     2.062032454031   119.84997958   352.80838599
 H     35  34  23     2.061002656040   118.57339618   180.38906636
 H     37  36  35     2.067589772832   119.45347453   180.52334131
 H     38  37  36     2.061280975838   119.44831651   181.43977238
 H     39  22  14     2.064069228276   119.58480349     1.25944633
 H     40  39  22     2.067171300339   119.32543546   179.01482703
 H     42  41  40     2.067507231353   119.54237886   180.63678463
 H     43  42  41     2.060845689402   119.24767242   178.63305115
 H     44  26  25     2.089168049573   108.66948587   111.12817531
 H     44  26  25     2.082065003237   109.01935653   356.19378035
 H     45  44  26     2.081433058522   111.64163272   300.39611805
 H     45  44  26     2.082330696431   110.81743540   180.46972713
 H     45  44  26     2.081662040213   111.09667617    60.24075051
 H     46  31  30     2.083625334342   108.97117862   175.76627978
 H     46  31  30     2.087892891954   108.84372727    60.66313932
 H     47  46  31     2.081746876623   111.19596766   299.49679598
 H     47  46  31     2.081749683902   110.78797005   179.05580847
 H     47  46  31     2.081977463643   111.53164345    59.24576866
 H     48  41  40     2.084289243949   109.28228754   142.77796259
 H     48  41  40     2.082606136027   109.40865949    26.46664533
 H     49  48  41     2.082056389624   110.96726876   299.77425717
 H     49  48  41     2.082415400308   111.53074023   179.59162728
 H     49  48  41     2.081911792295   111.00818268    59.24848642
 H     50  36  35     2.090849189085   108.41170688   261.11536838
 H     50  36  35     2.085172018614   108.22986294   147.65218169
 H     51  50  36     2.080947431147   112.06273891   295.62083691
 H     51  50  36     2.079677637708   110.66326450   176.26633707
 H     51  50  36     2.082741254537   111.36640161    56.05088161
 H     53  52   1     2.056214464910   120.46135330   180.37471679
 H     56  54  53     2.073499458850   117.48151097   138.76782051
 H     58  57  55     2.074714760576   106.64523308   190.72558437
 H     58  57  55     2.082915409305   110.75822825    71.00967470
 H     58  57  55     2.079310186937   111.09733758   310.43019215
 H     64  61  60     2.057009724622   128.82275596     0.15086695
 H     66  62  61     2.055433711570   129.39007435   180.07543794
 H     75  74  73     2.053362027341   119.81241125   183.40234819
 H     78  76  75     2.073729000488   112.97652112   158.76395746
 H     80  79  77     2.082097621720   111.02940216   315.86565810
 H     80  79  77     2.074496654939   105.83721835   196.66902640
 H     80  79  77     2.078204899174   111.57091745    77.56313341
 H     86  83  82     2.057264318078   128.76122112     0.98731585
 H     88  84  83     2.056390180275   129.33432890   179.68313701

---------------------
BASIS SET INFORMATION
---------------------
There are 5 groups of distinct atoms

 Group   1 Type C   : 7s4p1d contracted to 3s2p1d pattern {511/31/1}
 Group   2 Type S   : 10s7p1d contracted to 4s3p1d pattern {5311/511/1}
 Group   3 Type O   : 7s4p1d contracted to 3s2p1d pattern {511/31/1}
 Group   4 Type N   : 7s4p1d contracted to 3s2p1d pattern {511/31/1}
 Group   5 Type H   : 4s1p contracted to 2s1p pattern {31/1}

Atom   0C    basis set group =>   1
Atom   1C    basis set group =>   1
Atom   2S    basis set group =>   2
Atom   3C    basis set group =>   1
Atom   4C    basis set group =>   1
Atom   5C    basis set group =>   1
Atom   6C    basis set group =>   1
Atom   7C    basis set group =>   1
Atom   8C    basis set group =>   1
Atom   9C    basis set group =>   1
Atom  10C    basis set group =>   1
Atom  11C    basis set group =>   1
Atom  12C    basis set group =>   1
Atom  13C    basis set group =>   1
Atom  14C    basis set group =>   1
Atom  15C    basis set group =>   1
Atom  16C    basis set group =>   1
Atom  17C    basis set group =>   1
Atom  18S    basis set group =>   2
Atom  19C    basis set group =>   1
Atom  20C    basis set group =>   1
Atom  21C    basis set group =>   1
Atom  22C    basis set group =>   1
Atom  23C    basis set group =>   1
Atom  24C    basis set group =>   1
Atom  25C    basis set group =>   1
Atom  26C    basis set group =>   1
Atom  27C    basis set group =>   1
Atom  28C    basis set group =>   1
Atom  29C    basis set group =>   1
Atom  30C    basis set group =>   1
Atom  31C    basis set group =>   1
Atom  32C    basis set group =>   1
Atom  33C    basis set group =>   1
Atom  34C    basis set group =>   1
Atom  35C    basis set group =>   1
Atom  36C    basis set group =>   1
Atom  37C    basis set group =>   1
Atom  38C    basis set group =>   1
Atom  39C    basis set group =>   1
Atom  40C    basis set group =>   1
Atom  41C    basis set group =>   1
Atom  42C    basis set group =>   1
Atom  43C    basis set group =>   1
Atom  44C    basis set group =>   1
Atom  45C    basis set group =>   1
Atom  46C    basis set group =>   1
Atom  47C    basis set group =>   1
Atom  48C    basis set group =>   1
Atom  49C    basis set group =>   1
Atom  50C    basis set group =>   1
Atom  51S    basis set group =>   2
Atom  52C    basis set group =>   1
Atom  53C    basis set group =>   1
Atom  54C    basis set group =>   1
Atom  55C    basis set group =>   1
Atom  56O    basis set group =>   3
Atom  57C    basis set group =>   1
Atom  58C    basis set group =>   1
Atom  59C    basis set group =>   1
Atom  60C    basis set group =>   1
Atom  61C    basis set group =>   1
Atom  62C    basis set group =>   1
Atom  63C    basis set group =>   1
Atom  64S    basis set group =>   2
Atom  65C    basis set group =>   1
Atom  66O    basis set group =>   3
Atom  67C    basis set group =>   1
Atom  68C    basis set group =>   1
Atom  69C    basis set group =>   1
Atom  70N    basis set group =>   4
Atom  71N    basis set group =>   4
Atom  72C    basis set group =>   1
Atom  73S    basis set group =>   2
Atom  74C    basis set group =>   1
Atom  75C    basis set group =>   1
Atom  76C    basis set group =>   1
Atom  77C    basis set group =>   1
Atom  78O    basis set group =>   3
Atom  79C    basis set group =>   1
Atom  80C    basis set group =>   1
Atom  81C    basis set group =>   1
Atom  82C    basis set group =>   1
Atom  83C    basis set group =>   1
Atom  84C    basis set group =>   1
Atom  85C    basis set group =>   1
Atom  86S    basis set group =>   2
Atom  87C    basis set group =>   1
Atom  88O    basis set group =>   3
Atom  89C    basis set group =>   1
Atom  90C    basis set group =>   1
Atom  91C    basis set group =>   1
Atom  92N    basis set group =>   4
Atom  93N    basis set group =>   4
Atom  94H    basis set group =>   5
Atom  95H    basis set group =>   5
Atom  96H    basis set group =>   5
Atom  97H    basis set group =>   5
Atom  98H    basis set group =>   5
Atom  99H    basis set group =>   5
Atom 100H    basis set group =>   5
Atom 101H    basis set group =>   5
Atom 102H    basis set group =>   5
Atom 103H    basis set group =>   5
Atom 104H    basis set group =>   5
Atom 105H    basis set group =>   5
Atom 106H    basis set group =>   5
Atom 107H    basis set group =>   5
Atom 108H    basis set group =>   5
Atom 109H    basis set group =>   5
Atom 110H    basis set group =>   5
Atom 111H    basis set group =>   5
Atom 112H    basis set group =>   5
Atom 113H    basis set group =>   5
Atom 114H    basis set group =>   5
Atom 115H    basis set group =>   5
Atom 116H    basis set group =>   5
Atom 117H    basis set group =>   5
Atom 118H    basis set group =>   5
Atom 119H    basis set group =>   5
Atom 120H    basis set group =>   5
Atom 121H    basis set group =>   5
Atom 122H    basis set group =>   5
Atom 123H    basis set group =>   5
Atom 124H    basis set group =>   5
Atom 125H    basis set group =>   5
Atom 126H    basis set group =>   5
Atom 127H    basis set group =>   5
Atom 128H    basis set group =>   5
Atom 129H    basis set group =>   5
Atom 130H    basis set group =>   5
Atom 131H    basis set group =>   5
Atom 132H    basis set group =>   5
Atom 133H    basis set group =>   5
Atom 134H    basis set group =>   5
Atom 135H    basis set group =>   5
Atom 136H    basis set group =>   5
Atom 137H    basis set group =>   5
Atom 138H    basis set group =>   5
Atom 139H    basis set group =>   5
Atom 140H    basis set group =>   5
Atom 141H    basis set group =>   5
Atom 142H    basis set group =>   5
Atom 143H    basis set group =>   5
Atom 144H    basis set group =>   5
Atom 145H    basis set group =>   5
Atom 146H    basis set group =>   5
Atom 147H    basis set group =>   5
------------------------------------------------------------------------------
                           ORCA GTO INTEGRAL CALCULATION
------------------------------------------------------------------------------

                         BASIS SET STATISTICS AND STARTUP INFO

 # of primitive gaussian shells          ... 1434
 # of primitive gaussian functions       ... 2706
 # of contracted shells                  ...  738
 # of contracted basis functions         ... 1610
 Highest angular momentum                ...    2
 Maximum contraction depth               ...    5
 Integral package used                   ... LIBINT
 Integral threshhold            Thresh   ...  2.500e-11
 Primitive cut-off              TCut     ...  2.500e-12


------------------------------ INTEGRAL EVALUATION ----------------------------


 * One electron integrals 
 Pre-screening matrix                    ... done
 Shell pair data                         ... done (   0.029 sec)

-------------------------------------------------------------------------------
                                 ORCA SCF
-------------------------------------------------------------------------------

------------
SCF SETTINGS
------------
Hamiltonian:
 Ab initio Hamiltonian  Method          .... Hartree-Fock(GTOs)


General Settings:
 Integral files         IntName         .... i-cc34
 Hartree-Fock type      HFTyp           .... RHF
 Total Charge           Charge          ....    0
 Multiplicity           Mult            ....    1
 Number of Electrons    NEL             ....  690
 Basis Dimension        Dim             .... 1610
 Nuclear Repulsion      ENuc            ....  16997.7048494313 Eh

Convergence Acceleration:
 DIIS                   CNVDIIS         .... on
   Start iteration      DIISMaxIt       ....    12
   Startup error        DIISStart       ....  0.200000
   # of expansion vecs  DIISMaxEq       ....     5
   Bias factor          DIISBfac        ....   1.050
   Max. coefficient     DIISMaxC        ....  10.000
 Newton-Raphson         CNVNR           .... off
 SOSCF                  CNVSOSCF        .... on
   Start iteration      SOSCFMaxIt      ....   150
   Startup grad/error   SOSCFStart      ....  0.003300
 Level Shifting         CNVShift        .... on
   Level shift para.    LevelShift      ....    0.2500
   Turn off err/grad.   ShiftErr        ....    0.0010
 Zerner damping         CNVZerner       .... off
 Static damping         CNVDamp         .... on
   Fraction old density DampFac         ....    0.7000
   Max. Damping (<1)    DampMax         ....    0.9800
   Min. Damping (>=0)   DampMin         ....    0.0000
   Turn off err/grad.   DampErr         ....    0.1000
 Fernandez-Rico         CNVRico         .... off

SCF Procedure:
 Maximum # iterations   MaxIter         ....   125
 SCF integral mode      SCFMode         .... Direct
   Integral package                     .... LIBINT
 Reset frequency        DirectResetFreq ....    20
 Integral Threshold     Thresh          ....  2.500e-11 Eh
 Primitive CutOff       TCut            ....  2.500e-12 Eh

Convergence Tolerance:
 Convergence Check Mode ConvCheckMode   .... Total+1el-Energy
 Convergence forced     ConvForced      .... 1
 Energy Change          TolE            ....  1.000e-08 Eh
 1-El. energy change                    ....  1.000e-05 Eh
 Orbital Gradient       TolG            ....  1.000e-05
 Orbital Rotation angle TolX            ....  1.000e-05
 DIIS Error             TolErr          ....  5.000e-07


Diagonalization of the overlap matrix:
Smallest eigenvalue                        ... 2.126e-04
Time for diagonalization                   ...    0.777 sec
Threshold for overlap eigenvalues          ... 1.000e-08
Number of eigenvalues below threshold      ... 0
Time for construction of square roots      ...    0.324 sec
Total time needed                          ...    1.108 sec

-------------------
DFT GRID GENERATION
-------------------

General Integration Accuracy     IntAcc      ...  4.340
Radial Grid Type                 RadialGrid  ... Gauss-Chebyshev
Angular Grid (max. acc.)         AngularGrid ... Lebedev-110
Angular grid pruning method      GridPruning ... 3 (G Style)
Weight generation scheme         WeightScheme... Becke
Basis function cutoff            BFCut       ...    1.0000e-11
Integration weight cutoff        WCut        ...    1.0000e-14
Grids for H and He will be reduced by one unit

# of grid points (after initial pruning)     ... 199864 (   0.4 sec)
# of grid points (after weights+screening)   ... 172527 (  10.9 sec)
nearest neighbour list constructed           ...    0.0 sec
Grid point re-assignment to atoms done       ...    0.0 sec
Grid point division into batches done        ...    0.1 sec
Reduced shell lists constructed in    3.7 sec

Total number of grid points                  ...   172527
Total number of batches                      ...     2770
Average number of points per batch           ...       62
Average number of grid points per atom       ...     1166
Average number of shells per batch           ...   123.03 (16.67%)
Average number of basis functions per batch  ...   248.66 (15.44%)
Average number of large shells per batch     ...    69.53 (56.51%)
Average number of large basis fcns per batch ...   143.78 (57.82%)
Maximum spatial batch extension              ...  27.57, 22.66, 24.73 au
Average spatial batch extension              ...   3.09,  3.20,  3.31 au

Time for grid setup =   14.962 sec

------------------------------
INITIAL GUESS: MODEL POTENTIAL
------------------------------
Loading Hartree-Fock densities                     ... done
Calculating cut-offs                               ... done
Setting up the integral package                    ... done
Initializing the effective Hamiltonian             ... done
Starting the Coulomb interaction                   ... done (  19.0 sec)
Reading the grid                                   ... done
Mapping shells                                     ... done
Starting the XC term evaluation                    ... done (   3.3 sec)
Transforming the Hamiltonian                       ... done (   0.3 sec)
Diagonalizing the Hamiltonian                      ... done (   0.8 sec)
Back transforming the eigenvectors                 ... done (   0.1 sec)
Now organizing SCF variables                       ... done
                      ------------------
                      INITIAL GUESS DONE (  38.9 sec)
                      ------------------
--------------
SCF ITERATIONS
--------------
ITER       Energy         Delta-E        Max-DP      RMS-DP      [F,P]     Damp
               ***  Starting incremental Fock matrix formation  ***
  0  -5956.5870609001   0.000000000000 0.29751490  0.00115878  0.2493476 0.7000
  1  -5957.6401029407  -1.053042040650 0.22837575  0.00090223  0.1534175 0.7000
                               ***Turning on DIIS***
  2  -5958.2804053832  -0.640302442462 0.53918457  0.00210385  0.0879033 0.0000
  3  -5953.9103342045   4.370071178651 0.06588971  0.00047975  0.0555557 0.0000
  4  -5959.9262961646  -6.015961960104 0.02797075  0.00018116  0.0171858 0.0000
  5  -5959.8123854198   0.113910744833 0.01109478  0.00008559  0.0100893 0.0000
  6  -5959.5740935153   0.238291904472 0.00591569  0.00005128  0.0039628 0.0000
                      *** Initiating the SOSCF procedure ***
                           *** Shutting down DIIS ***
                      *** Re-Reading the Fockian *** 
                      *** Removing any level shift *** 
ITER      Energy       Delta-E        Grad      Rot      Max-DP    RMS-DP
  7  -5959.67471294  -0.1006194226  0.002200  0.002200  0.004476  0.000030
               *** Restarting incremental Fock matrix formation ***
  8  -5959.65309598   0.0216169603  0.000984  0.002694  0.003331  0.000019
  9  -5959.65329494  -0.0001989594  0.000497  0.003184  0.004295  0.000027
 10  -5959.65338337  -0.0000884355  0.000210  0.000387  0.000615  0.000006
 11  -5959.65338964  -0.0000062699  0.000118  0.000170  0.000301  0.000003
 12  -5959.65339182  -0.0000021735  0.000016  0.000050  0.000091  0.000001
 13  -5959.65339197  -0.0000001566  0.000009  0.000026  0.000071  0.000000
 14  -5959.65339203  -0.0000000588  0.000005  0.000015  0.000025  0.000000
                  ***Gradient check signals convergence***
              ***Rediagonalizing the Fockian in SOSCF/NRSCF***

               *****************************************************
               *                     SUCCESS                       *
               *           SCF CONVERGED AFTER  15 CYCLES          *
               *****************************************************


----------------
TOTAL SCF ENERGY
----------------

Total Energy       :        -5959.65339208 Eh         -162170.41338 eV

Components:
Nuclear Repulsion  :        16997.70484943 Eh          462531.06358 eV
Electronic Energy  :       -22957.35824151 Eh         -624701.47696 eV
One Electron Energy:       -42050.00872272 Eh        -1144238.90933 eV
Two Electron Energy:        19092.65048121 Eh          519537.43237 eV

Virial components:
Potential Energy   :       -11900.71462340 Eh         -323834.90835 eV
Kinetic Energy     :         5941.06123132 Eh          161664.49497 eV
Virial Ratio       :            2.00312943


---------------
SCF CONVERGENCE
---------------

  Last Energy change         ...   -4.4165e-08  Tolerance :   1.0000e-08
  Last MAX-Density change    ...    6.6524e-06  Tolerance :   1.0000e-07
  Last RMS-Density change    ...    6.8700e-08  Tolerance :   5.0000e-09
  Last Orbital Gradient      ...    2.2697e-06  Tolerance :   1.0000e-05
  Last Orbital Rotation      ...    5.7075e-06  Tolerance :   1.0000e-05

             **** THE GBW FILE WAS UPDATED (i-cc34.gbw) ****
             **** DENSITY FILE WAS UPDATED (i-cc34.scfp) ****
             **** ENERGY FILE WAS UPDATED (i-cc34.en.tmp) ****
             **** THE GBW FILE WAS UPDATED (i-cc34.gbw) ****
             **** DENSITY FILE WAS UPDATED (i-cc34.scfp) ****
----------------
ORBITAL ENERGIES
----------------

  NO   OCC          E(Eh)            E(eV) 
   0   2.0000     -91.997953     -2503.3916 
   1   2.0000     -91.989380     -2503.1583 
   2   2.0000     -91.973137     -2502.7163 
   3   2.0000     -91.972346     -2502.6948 
   4   2.0000     -91.961379     -2502.3963 
   5   2.0000     -91.956662     -2502.2680 
   6   2.0000     -20.598976      -560.5266 
   7   2.0000     -20.584497      -560.1326 
   8   2.0000     -20.568680      -559.7022 
   9   2.0000     -20.557004      -559.3845 
  10   2.0000     -15.598663      -424.4612 
  11   2.0000     -15.595271      -424.3689 
  12   2.0000     -15.591080      -424.2548 
  13   2.0000     -15.588991      -424.1980 
  14   2.0000     -11.371913      -309.4455 
  15   2.0000     -11.360444      -309.1334 
  16   2.0000     -11.351575      -308.8921 
  17   2.0000     -11.343439      -308.6707 
  18   2.0000     -11.335284      -308.4487 
  19   2.0000     -11.331734      -308.3521 
  20   2.0000     -11.322242      -308.0939 
  21   2.0000     -11.321239      -308.0666 
  22   2.0000     -11.319434      -308.0175 
  23   2.0000     -11.319284      -308.0134 
  24   2.0000     -11.318945      -308.0041 
  25   2.0000     -11.312032      -307.8160 
  26   2.0000     -11.311428      -307.7996 
  27   2.0000     -11.310709      -307.7800 
  28   2.0000     -11.310039      -307.7618 
  29   2.0000     -11.308759      -307.7270 
  30   2.0000     -11.307349      -307.6886 
  31   2.0000     -11.303125      -307.5737 
  32   2.0000     -11.302510      -307.5569 
  33   2.0000     -11.300811      -307.5107 
  34   2.0000     -11.298258      -307.4412 
  35   2.0000     -11.294708      -307.3446 
  36   2.0000     -11.294246      -307.3321 
  37   2.0000     -11.288897      -307.1865 
  38   2.0000     -11.288502      -307.1758 
  39   2.0000     -11.288052      -307.1635 
  40   2.0000     -11.286984      -307.1345 
  41   2.0000     -11.286285      -307.1154 
  42   2.0000     -11.281743      -306.9918 
  43   2.0000     -11.281306      -306.9799 
  44   2.0000     -11.277207      -306.8684 
  45   2.0000     -11.276513      -306.8495 
  46   2.0000     -11.276033      -306.8365 
  47   2.0000     -11.274130      -306.7847 
  48   2.0000     -11.273979      -306.7806 
  49   2.0000     -11.272007      -306.7269 
  50   2.0000     -11.271784      -306.7208 
  51   2.0000     -11.268162      -306.6223 
  52   2.0000     -11.261351      -306.4369 
  53   2.0000     -11.260088      -306.4026 
  54   2.0000     -11.258405      -306.3568 
  55   2.0000     -11.257382      -306.3289 
  56   2.0000     -11.254913      -306.2618 
  57   2.0000     -11.254246      -306.2436 
  58   2.0000     -11.253698      -306.2287 
  59   2.0000     -11.249105      -306.1037 
  60   2.0000     -11.248777      -306.0948 
  61   2.0000     -11.248637      -306.0910 
  62   2.0000     -11.248633      -306.0909 
  63   2.0000     -11.248252      -306.0805 
  64   2.0000     -11.248138      -306.0774 
  65   2.0000     -11.244850      -305.9879 
  66   2.0000     -11.242861      -305.9338 
  67   2.0000     -11.242525      -305.9246 
  68   2.0000     -11.242162      -305.9148 
  69   2.0000     -11.240235      -305.8623 
  70   2.0000     -11.239583      -305.8446 
  71   2.0000     -11.239374      -305.8389 
  72   2.0000     -11.238914      -305.8264 
  73   2.0000     -11.238793      -305.8231 
  74   2.0000     -11.238156      -305.8058 
  75   2.0000     -11.237723      -305.7940 
  76   2.0000     -11.237509      -305.7882 
  77   2.0000     -11.237245      -305.7810 
  78   2.0000     -11.237190      -305.7795 
  79   2.0000     -11.237082      -305.7765 
  80   2.0000     -11.236915      -305.7720 
  81   2.0000     -11.236430      -305.7588 
  82   2.0000     -11.236360      -305.7569 
  83   2.0000     -11.236267      -305.7544 
  84   2.0000     -11.235952      -305.7458 
  85   2.0000     -11.233418      -305.6768 
  86   2.0000     -11.233219      -305.6714 
  87   2.0000     -11.231374      -305.6212 
  88   2.0000     -11.230944      -305.6095 
  89   2.0000     -11.230641      -305.6013 
  90   2.0000     -11.228273      -305.5368 
  91   2.0000     -11.228261      -305.5365 
  92   2.0000     -11.228068      -305.5313 
  93   2.0000     -11.222223      -305.3722 
  94   2.0000      -9.033554      -245.8155 
  95   2.0000      -9.024977      -245.5821 
  96   2.0000      -9.008877      -245.1440 
  97   2.0000      -9.008179      -245.1250 
  98   2.0000      -8.996167      -244.7981 
  99   2.0000      -8.991852      -244.6807 
 100   2.0000      -6.720835      -182.8832 
 101   2.0000      -6.719670      -182.8515 
 102   2.0000      -6.718195      -182.8114 
 103   2.0000      -6.712283      -182.6505 
 104   2.0000      -6.711122      -182.6189 
 105   2.0000      -6.709615      -182.5779 
 106   2.0000      -6.696313      -182.2159 
 107   2.0000      -6.695581      -182.1960 
 108   2.0000      -6.695150      -182.1843 
 109   2.0000      -6.694313      -182.1615 
 110   2.0000      -6.693429      -182.1375 
 111   2.0000      -6.692633      -182.1158 
 112   2.0000      -6.683662      -181.8717 
 113   2.0000      -6.682670      -181.8447 
 114   2.0000      -6.680832      -181.7947 
 115   2.0000      -6.679333      -181.7539 
 116   2.0000      -6.678279      -181.7252 
 117   2.0000      -6.676398      -181.6740 
 118   2.0000      -1.419134       -38.6166 
 119   2.0000      -1.402583       -38.1662 
 120   2.0000      -1.397841       -38.0372 
 121   2.0000      -1.387152       -37.7463 
 122   2.0000      -1.247401       -33.9435 
 123   2.0000      -1.238919       -33.7127 
 124   2.0000      -1.227758       -33.4090 
 125   2.0000      -1.222539       -33.2670 
 126   2.0000      -1.219651       -33.1884 
 127   2.0000      -1.217317       -33.1249 
 128   2.0000      -1.215009       -33.0621 
 129   2.0000      -1.206369       -32.8270 
 130   2.0000      -1.194786       -32.5118 
 131   2.0000      -1.191489       -32.4221 
 132   2.0000      -1.166443       -31.7405 
 133   2.0000      -1.158950       -31.5366 
 134   2.0000      -1.155486       -31.4424 
 135   2.0000      -1.154348       -31.4114 
 136   2.0000      -1.146312       -31.1927 
 137   2.0000      -1.143213       -31.1084 
 138   2.0000      -1.140367       -31.0310 
 139   2.0000      -1.114996       -30.3406 
 140   2.0000      -1.100313       -29.9410 
 141   2.0000      -1.093010       -29.7423 
 142   2.0000      -1.085538       -29.5390 
 143   2.0000      -1.076029       -29.2802 
 144   2.0000      -1.070485       -29.1294 
 145   2.0000      -1.062717       -28.9180 
 146   2.0000      -1.052451       -28.6387 
 147   2.0000      -1.050080       -28.5741 
 148   2.0000      -1.038831       -28.2680 
 149   2.0000      -1.034827       -28.1591 
 150   2.0000      -1.025766       -27.9125 
 151   2.0000      -1.019558       -27.7436 
 152   2.0000      -1.017771       -27.6950 
 153   2.0000      -1.015289       -27.6274 
 154   2.0000      -1.009377       -27.4665 
 155   2.0000      -1.007530       -27.4163 
 156   2.0000      -1.004862       -27.3437 
 157   2.0000      -1.003808       -27.3150 
 158   2.0000      -1.002547       -27.2807 
 159   2.0000      -0.998617       -27.1738 
 160   2.0000      -0.992841       -27.0166 
 161   2.0000      -0.984475       -26.7889 
 162   2.0000      -0.980582       -26.6830 
 163   2.0000      -0.979158       -26.6443 
 164   2.0000      -0.971837       -26.4450 
 165   2.0000      -0.969063       -26.3696 
 166   2.0000      -0.951646       -25.8956 
 167   2.0000      -0.939781       -25.5727 
 168   2.0000      -0.925058       -25.1721 
 169   2.0000      -0.922272       -25.0963 
 170   2.0000      -0.919679       -25.0257 
 171   2.0000      -0.915637       -24.9158 
 172   2.0000      -0.904798       -24.6208 
 173   2.0000      -0.900731       -24.5101 
 174   2.0000      -0.893095       -24.3024 
 175   2.0000      -0.862957       -23.4823 
 176   2.0000      -0.857694       -23.3390 
 177   2.0000      -0.854539       -23.2532 
 178   2.0000      -0.850496       -23.1432 
 179   2.0000      -0.839211       -22.8361 
 180   2.0000      -0.830648       -22.6031 
 181   2.0000      -0.828817       -22.5533 
 182   2.0000      -0.824963       -22.4484 
 183   2.0000      -0.824100       -22.4249 
 184   2.0000      -0.821968       -22.3669 
 185   2.0000      -0.814265       -22.1573 
 186   2.0000      -0.813369       -22.1329 
 187   2.0000      -0.811767       -22.0893 
 188   2.0000      -0.806038       -21.9334 
 189   2.0000      -0.804195       -21.8832 
 190   2.0000      -0.800563       -21.7844 
 191   2.0000      -0.796130       -21.6638 
 192   2.0000      -0.785175       -21.3657 
 193   2.0000      -0.781547       -21.2670 
 194   2.0000      -0.778125       -21.1738 
 195   2.0000      -0.770614       -20.9695 
 196   2.0000      -0.763678       -20.7807 
 197   2.0000      -0.759514       -20.6674 
 198   2.0000      -0.757693       -20.6179 
 199   2.0000      -0.750886       -20.4327 
 200   2.0000      -0.747038       -20.3279 
 201   2.0000      -0.740645       -20.1540 
 202   2.0000      -0.735317       -20.0090 
 203   2.0000      -0.732182       -19.9237 
 204   2.0000      -0.727008       -19.7829 
 205   2.0000      -0.724295       -19.7091 
 206   2.0000      -0.720406       -19.6032 
 207   2.0000      -0.699280       -19.0284 
 208   2.0000      -0.693457       -18.8699 
 209   2.0000      -0.692774       -18.8513 
 210   2.0000      -0.689154       -18.7528 
 211   2.0000      -0.687549       -18.7092 
 212   2.0000      -0.686050       -18.6684 
 213   2.0000      -0.680168       -18.5083 
 214   2.0000      -0.671160       -18.2632 
 215   2.0000      -0.668414       -18.1885 
 216   2.0000      -0.663387       -18.0517 
 217   2.0000      -0.656189       -17.8558 
 218   2.0000      -0.654365       -17.8062 
 219   2.0000      -0.653418       -17.7804 
 220   2.0000      -0.650483       -17.7005 
 221   2.0000      -0.650144       -17.6913 
 222   2.0000      -0.648942       -17.6586 
 223   2.0000      -0.647745       -17.6260 
 224   2.0000      -0.646004       -17.5787 
 225   2.0000      -0.644815       -17.5463 
 226   2.0000      -0.640146       -17.4193 
 227   2.0000      -0.638835       -17.3836 
 228   2.0000      -0.636060       -17.3081 
 229   2.0000      -0.629061       -17.1176 
 230   2.0000      -0.626700       -17.0534 
 231   2.0000      -0.621987       -16.9251 
 232   2.0000      -0.619044       -16.8450 
 233   2.0000      -0.616487       -16.7755 
 234   2.0000      -0.612425       -16.6649 
 235   2.0000      -0.610820       -16.6213 
 236   2.0000      -0.607904       -16.5419 
 237   2.0000      -0.607371       -16.5274 
 238   2.0000      -0.605655       -16.4807 
 239   2.0000      -0.605523       -16.4771 
 240   2.0000      -0.602123       -16.3846 
 241   2.0000      -0.599699       -16.3186 
 242   2.0000      -0.596290       -16.2259 
 243   2.0000      -0.596015       -16.2184 
 244   2.0000      -0.592238       -16.1156 
 245   2.0000      -0.592000       -16.1091 
 246   2.0000      -0.588931       -16.0256 
 247   2.0000      -0.587324       -15.9819 
 248   2.0000      -0.585428       -15.9303 
 249   2.0000      -0.584503       -15.9051 
 250   2.0000      -0.583226       -15.8704 
 251   2.0000      -0.581493       -15.8232 
 252   2.0000      -0.580655       -15.8004 
 253   2.0000      -0.580051       -15.7840 
 254   2.0000      -0.577821       -15.7233 
 255   2.0000      -0.576588       -15.6897 
 256   2.0000      -0.574972       -15.6458 
 257   2.0000      -0.574509       -15.6332 
 258   2.0000      -0.573960       -15.6183 
 259   2.0000      -0.573007       -15.5923 
 260   2.0000      -0.572614       -15.5816 
 261   2.0000      -0.571062       -15.5394 
 262   2.0000      -0.567644       -15.4464 
 263   2.0000      -0.564048       -15.3485 
 264   2.0000      -0.563560       -15.3353 
[...]
-----------------------------

the weight of the individual excitations are printed if larger than 1.0e-02

STATE  1:  E=   0.137814 au      3.750 eV    30246.8 cm**-1
   334a -> 345a  :     0.066257 (c= -0.25740494)
   335a -> 345a  :     0.094956 (c=  0.30814966)
   337a -> 345a  :     0.014028 (c=  0.11843993)
   338a -> 345a  :     0.028404 (c= -0.16853384)
   338a -> 346a  :     0.013569 (c= -0.11648679)
   339a -> 346a  :     0.060874 (c= -0.24672691)
   340a -> 346a  :     0.026181 (c= -0.16180528)
   342a -> 345a  :     0.018688 (c= -0.13670459)
   342a -> 352a  :     0.012052 (c=  0.10978381)
   343a -> 345a  :     0.034292 (c=  0.18517990)
   343a -> 352a  :     0.018354 (c= -0.13547566)
   344a -> 345a  :     0.045035 (c=  0.21221419)
   344a -> 347a  :     0.223943 (c= -0.47322612)
   344a -> 348a  :     0.176255 (c=  0.41982722)

STATE  2:  E=   0.140141 au      3.813 eV    30757.5 cm**-1
   334a -> 345a  :     0.079866 (c= -0.28260611)
   335a -> 345a  :     0.139959 (c=  0.37411032)
   337a -> 345a  :     0.022899 (c=  0.15132512)
   338a -> 345a  :     0.049553 (c= -0.22260563)
   338a -> 346a  :     0.015681 (c=  0.12522516)
   339a -> 346a  :     0.070919 (c=  0.26630655)
   340a -> 345a  :     0.010464 (c= -0.10229135)
   340a -> 346a  :     0.030700 (c=  0.17521359)
   342a -> 345a  :     0.038737 (c= -0.19681778)
   343a -> 345a  :     0.073273 (c=  0.27068904)
   343a -> 350a  :     0.013431 (c= -0.11589243)
   344a -> 345a  :     0.118054 (c=  0.34359049)
   344a -> 347a  :     0.109092 (c=  0.33029029)
   344a -> 348a  :     0.070798 (c= -0.26607856)

STATE  3:  E=   0.145191 au      3.951 eV    31865.7 cm**-1
   338a -> 346a  :     0.076744 (c=  0.27702750)
   339a -> 346a  :     0.354527 (c=  0.59542186)
   340a -> 346a  :     0.156128 (c=  0.39513042)
   342a -> 346a  :     0.025128 (c= -0.15851790)
   344a -> 347a  :     0.115287 (c= -0.33953985)
   344a -> 348a  :     0.081199 (c=  0.28495524)


----------------------
CIS-EXCITATION SPECTRA
----------------------

Center of mass = (  9.9257, -4.0303, -5.0801)
Calculating the Dipole integrals                  ... done
Transforming integrals                            ... done
Calculating the Linear Momentum integrals         ... done
Transforming integrals                            ... done
Calculating angular momentum integrals            ... done
Transforming integrals                            ... done

-----------------------------------------------------------------------------
         ABSORPTION SPECTRUM VIA TRANSITION ELECTRIC DIPOLE MOMENTS
-----------------------------------------------------------------------------
State   Energy    Wavelength  fosc         T2        TX        TY        TZ  
        (cm-1)      (nm)                 (au**2)    (au)      (au)      (au) 
-----------------------------------------------------------------------------
   1   30246.8    330.6   1.253866447  13.64734   3.50543   0.35519  -1.11045
   2   30757.5    325.1   0.915286680   9.79676  -2.08262  -1.46009   1.82417
   3   31865.7    313.8   0.061921832   0.63973   0.47573  -0.59751   0.23746

-----------------------------------------------------------------------------
         ABSORPTION SPECTRUM VIA TRANSITION VELOCITY DIPOLE MOMENTS
-----------------------------------------------------------------------------
State   Energy    Wavelength   fosc        P2         PX        PY        PZ  
        (cm-1)      (nm)                 (au**2)     (au)      (au)      (au) 
-----------------------------------------------------------------------------
   1   30246.8    330.6   0.905495884   0.18719  -0.41379  -0.06822   0.10636
   2   30757.5    325.1   0.233667477   0.04912   0.16046   0.06869  -0.13658
   3   31865.7    313.8   0.100779240   0.02195   0.04064   0.14208   0.01049

-------------------------------------------------------------------
                             CD SPECTRUM
-------------------------------------------------------------------
State  Energy     Wavelength     R         MX        MY        MZ   
       (cm-1)       (nm)     (1e40*cgs)   (au)      (au)      (au)  
-------------------------------------------------------------------
   1   30246.8    330.6    471.66463   0.63431   1.36054   1.53660
   2   30757.5    325.1    -940.35121   0.02707   0.60370  -0.57931
   3   31865.7    313.8    -117.99477  -0.28517  -0.04233  -0.58919

Total run time:    41957.259 sec

           *** ORCA-CIS/TD-DFT FINISHED WITHOUT ERROR ***

-----------------------
CIS/TD-DFT TOTAL ENERGY
-----------------------

    E(SCF)  =  -5959.653392076 Eh
    DE(CIS) =      0.137814419 Eh (Root  1)
    ----------------------------- ---------
    E(tot)  =  -5959.515577657 Eh


-------------------------   --------------------
FINAL SINGLE POINT ENERGY     -5959.515577656526
-------------------------   --------------------

------------------------------------------------------------------------------
                         ORCA SCF GRADIENT CALCULATION
------------------------------------------------------------------------------


------------
CIS GRADIENT
------------

Reference wavefunction             ... RHF
State of interest                  ... 1
Basis dimension                    ... 1610
DFT-XC contribution needed         ... NO
RI-approximation                   ... OFF
CIS-vectors being read from        ... i-cc34.cis

 => Number of Vectors found: 3
 => Orbital Window: 118...344 -> 345...1609

Reading the CIS file                     ... done
Norm of the CI vector                    ... 1.000000000
Making the CIS (pseudo)densities         ... done
Making operators G(D) and Q(T)           ... done
Transforming the Fock operators          ... done
Making the frozen-core relaxed density   ... done
Constructing the G(H) operator           ... done
Transforming the G(H) operator           ... done
Calculating the CIS Lagrangian           ... done
Solving the Z-vector equations           ... done
Finalizing the relaxed density           ... done
Storing the relaxed density              ... done
Constructing the G(Z) operator           ... done
Transforming the G(Z) operator           ... done
Making the W-matrix                      ... done
Finalizing the W-matrix                  ... done
Transforming the W-matrix                ... done
Nuclear repulsion gradient               ... done
One-Electron gradient                    ... done
Prescreening matrices                    ... done
Two-Electron gradient (4-center)         ... done
                 ---------------------------
                 EXCITED STATE GRADIENT DONE
                 ---------------------------


------------------
CARTESIAN GRADIENT
------------------

   1   C   :    0.013037672   -0.016189520   -0.011751088
   2   C   :   -0.009259611   -0.000596488   -0.001773524
   3   S   :   -0.002077324    0.002712852   -0.003297753
   4   C   :   -0.009777287   -0.004505420    0.000639452
   5   C   :    0.004870404    0.000788006    0.005850378
   6   C   :    0.001288735   -0.000055610    0.003912183
   7   C   :    0.013395535    0.003534956   -0.008132783
   8   C   :   -0.011955092   -0.004962815    0.002636204
   9   C   :   -0.000816514    0.000407836   -0.001660158
  10   C   :   -0.010903953   -0.004269233    0.010450710
  11   C   :    0.013063853    0.004368847   -0.002986902
  12   C   :   -0.008899423   -0.004468726    0.006416382
  13   C   :    0.010575766    0.002055728   -0.009436958
  14   C   :    0.002310668   -0.001685411    0.001214886
  15   C   :   -0.002007942    0.000906246   -0.013807507
  16   C   :    0.008278182    0.002384827    0.005370788
  17   C   :   -0.009849009   -0.004509312   -0.006398521
  18   C   :    0.019080141    0.007848430    0.002305544
  19   S   :    0.001587540    0.000272616    0.005795175
  20   C   :   -0.001234606   -0.008071890   -0.005931185
  21   C   :   -0.004715141    0.008512962   -0.003888983
  22   C   :   -0.000223275    0.007885281    0.006308889
  23   C   :    0.005954260   -0.006620219    0.002391121
  24   C   :    0.002956289   -0.000789793   -0.001847215
  25   C   :    0.001257631    0.001156391   -0.004441412
  26   C   :    0.002677553   -0.006865216    0.008290663
  27   C   :    0.000555442   -0.002838550    0.001668690
  28   C   :   -0.002797890    0.003945823   -0.000923482
  29   C   :   -0.002262862   -0.001746611   -0.002250929
  30   C   :   -0.001669327    0.001745688   -0.000453164
  31   C   :   -0.001217460    0.009146589    0.006200499
  32   C   :    0.002744792   -0.001525090    0.000468396
  33   C   :    0.003026470   -0.002131587    0.000575054
  34   C   :   -0.000344717   -0.004035614   -0.000018208
  35   C   :   -0.002379578   -0.000645163   -0.000244951
  36   C   :   -0.006277975    0.008060769   -0.002663171
  37   C   :    0.001689207    0.000846104    0.001131073
  38   C   :    0.002752754    0.000663668    0.001444526
  39   C   :    0.000107429    0.003885928    0.000536372
  40   C   :   -0.000719793    0.000338785   -0.001921788
  41   C   :    0.000218609   -0.006525846   -0.008680969
  42   C   :   -0.000383988   -0.001313723    0.002750268
  43   C   :   -0.000811807   -0.001544386    0.002252251
  44   C   :   -0.006847922    0.002233758   -0.004188812
  45   C   :    0.004150887    0.003717752   -0.001034911
  46   C   :    0.001119008   -0.003364302   -0.008003603
  47   C   :   -0.000992971   -0.004106045    0.003097794
  48   C   :   -0.003410618    0.005528094    0.004663549
  49   C   :    0.004507095    0.000298632    0.000976404
  50   C   :   -0.002063894   -0.009380254    0.001698757
  51   C   :    0.005404044    0.002022302    0.000592384
  52   S   :    0.011070124   -0.007962068   -0.002649226
  53   C   :   -0.007250974    0.003095283   -0.000014439
  54   C   :    0.001596317    0.001919724    0.001018813
  55   C   :   -0.015995732    0.010841359    0.001608902
  56   C   :   -0.004140782    0.002020011   -0.009567896
  57   O   :    0.001345906    0.000337717    0.017019868
  58   C   :    0.000794116   -0.001533188   -0.000568091
  59   C   :    0.012058964   -0.001608629    0.005446645
  60   C   :   -0.001141867   -0.005983531   -0.037373828
  61   C   :    0.018078068   -0.006057552    0.004550579
  62   C   :    0.020715360   -0.006180085    0.010112680
  63   C   :   -0.008851674   -0.003186753   -0.005034655
  64   C   :   -0.013725089    0.004650509    0.000515428
  65   S   :   -0.008796136    0.002499538   -0.006453590
  66   C   :   -0.010162621    0.002370718   -0.011110474
  67   O   :   -0.001726803    0.011737457    0.046785677
  68   C   :    0.004221002    0.003173717   -0.007317286
  69   C   :    0.025358096   -0.003408037    0.066909467
  70   C   :   -0.070353339   -0.005181167   -0.000944871
  71   N   :    0.067797091    0.000419269    0.006510293
  72   N   :   -0.025533968    0.004563424   -0.063118127
  73   C   :   -0.022656066    0.000554313    0.013730869
  74   S   :   -0.009224855    0.005628815    0.006098574
  75   C   :   -0.000925228    0.012326143   -0.001305247
  76   C   :    0.010192814   -0.013037909   -0.009996374
  77   C   :    0.015269859    0.002134252   -0.007791205
  78   C   :   -0.011271271    0.006518667    0.003988458
  79   O   :    0.010248551   -0.005812103   -0.010877145
  80   C   :   -0.000423697    0.001772816    0.001301005
  81   C   :   -0.001495127    0.009634034   -0.002229218
  82   C   :    0.000885465    0.039971488   -0.000708535
  83   C   :   -0.018159258   -0.004453546    0.000947366
  84   C   :   -0.021323270   -0.009246820    0.000206168
  85   C   :    0.015101893   -0.013982727    0.006177564
  86   C   :    0.013141581   -0.001008687   -0.000101330
  87   S   :    0.012447238    0.005942862   -0.000539289
  88   C   :    0.008244109    0.009681527   -0.000590972
  89   O   :    0.002816008   -0.048276640   -0.000134904
  90   C   :   -0.014238530    0.015758702   -0.006652195
  91   C   :   -0.025797561   -0.070493947    0.008642610
  92   C   :    0.073730846    0.010580081    0.020501141
  93   N   :   -0.068786903   -0.011962400   -0.015007786
  94   N   :    0.024705347    0.065820166   -0.007796782
  95   H   :   -0.001610933    0.000988769    0.007768248
  96   H   :   -0.005297430   -0.001420993   -0.006336832
  97   H   :    0.004626373    0.001931811    0.005971984
  98   H   :    0.000442670    0.001908826   -0.007328427
  99   H   :    0.002738747    0.003177169   -0.007865389
 100   H   :    0.005734648   -0.004872844   -0.002505284
 101   H   :   -0.002832866   -0.002425456    0.006885632
 102   H   :   -0.005989889    0.005131366    0.002051050
 103   H   :   -0.006939726   -0.002834237   -0.005839190
 104   H   :   -0.005802928    0.006076262   -0.001161151
 105   H   :    0.005553814    0.001492584    0.005558162
 106   H   :    0.004815281   -0.006952527    0.001059548
 107   H   :   -0.000744948   -0.008066982   -0.002156449
 108   H   :   -0.006678756   -0.001082420   -0.004011155
 109   H   :    0.001510940    0.007338663    0.002655891
 110   H   :    0.007070180    0.000151908    0.004444418
 111   H   :    0.001713357    0.007864821   -0.001091960
 112   H   :    0.001667182    0.001721071   -0.007553029
 113   H   :   -0.001995076   -0.007375597    0.001791504
 114   H   :   -0.002124708   -0.001062047    0.008602151
 115   H   :    0.003458864    0.003119346    0.005817556
 116   H   :    0.005292742   -0.003348363   -0.003744040
 117   H   :   -0.005509762    0.003843419    0.003648348
 118   H   :    0.002888228   -0.005141005    0.004149891
 119   H   :   -0.003519300   -0.002857504   -0.005141991
 120   H   :    0.005574526   -0.001200162    0.005438609
 121   H   :   -0.006338764    0.000341414    0.003766273
 122   H   :    0.005698133   -0.000026708   -0.004054318
 123   H   :   -0.000484146    0.005663803    0.003933663
 124   H   :   -0.005366319    0.000467008   -0.005272267
 125   H   :    0.002717567   -0.006092990    0.002913528
 126   H   :    0.003836613    0.002265530   -0.005574363
 127   H   :   -0.003927569   -0.002142239    0.005472067
 128   H   :   -0.001664228   -0.004661051   -0.004970064
 129   H   :   -0.003025988    0.005857796   -0.002336766
 130   H   :    0.003250205    0.003955035   -0.005595171
 131   H   :    0.001424474    0.005458047    0.005303563
 132   H   :   -0.000909423   -0.004832161   -0.005521875
 133   H   :   -0.004246333    0.004903663   -0.001432693
 134   H   :   -0.002538172   -0.004251530    0.005255565
 135   H   :   -0.006105796   -0.002117828   -0.003879395
 136   H   :   -0.001444954    0.002101440    0.008943504
 137   H   :    0.005407310    0.004796421    0.005442703
 138   H   :   -0.006170483    0.005639408   -0.005016063
 139   H   :    0.006925733   -0.002479804   -0.007609886
 140   H   :   -0.004908921    0.002687941    0.005015451
 141   H   :    0.000518745   -0.002176170   -0.008187865
 142   H   :    0.003881722    0.006598387    0.000591112
 143   H   :    0.001557904   -0.010457463   -0.000329053
 144   H   :   -0.001320009   -0.000138329    0.009253510
 145   H   :    0.004353448   -0.006838498   -0.002762417
 146   H   :   -0.009910852   -0.000819284   -0.002020715
 147   H   :    0.005442392   -0.005363697   -0.000096059
 148   H   :   -0.001241508    0.008457135   -0.000429117

Difference to translation invariance:
           :   -0.0000000000    0.0000000001    0.0000000004

Norm of the cartesian gradient     ...    0.2539493349
RMS gradient                       ...    0.0120519021
MAX gradient                       ...    0.0737308464

-------
TIMINGS
-------

Total CIS gradient time            ...    36368.510 sec

Fock matrix formation       ....    2999.607 sec  (  8.2%)
  Coulomb formation         ....    2999.607 sec  (100.0% of F)
Z-vector equation           ....   29999.042 sec  ( 82.5%)
One electron gradient       ....      29.370 sec  (  0.1%)
Prescreening matrices       ....       1.580 sec  (  0.0%)
Two electron gradient       ....    3332.722 sec  (  9.2%)

                            ***************************************
                            *     ORCA property calculations      *
                            ***************************************

                                    ---------------------
                                    Active property flags
                                    ---------------------
   (+) Dipole Moment


------------------------------------------------------------------------------
                       ORCA ELECTRIC PROPERTIES CALCULATION
------------------------------------------------------------------------------

Dipole Moment Calculation                       ... on
Quadrupole Moment Calculation                   ... off
Polarizability Calculation                      ... off
GBWName                                         ... i-cc34.gbw
Electron density file                           ... i-cc34.scfp
The origin for moment calculation is the CENTER OF MASS  = ( 9.925740, -4.030270 -5.080111)

-------------
DIPOLE MOMENT
-------------
                                X             Y             Z
Electronic contribution:     11.94738      34.79437     -23.89344
Nuclear contribution   :    -13.12764     -36.08849      25.75727
                        -----------------------------------------
Total Dipole Moment    :     -1.18026      -1.29413       1.86382
                        -----------------------------------------
Magnitude (a.u.)       :      2.55766
Magnitude (Debye)      :      6.50105



--------------------
Rotational spectrum 
--------------------
 
Rotational constants in cm-1:     0.000835     0.000200     0.000190 
Rotational constants in MHz :    25.032205     5.989546     5.688589 

 Dipole components along the rotational axes: 
x,y,z [a.u.] :    -1.851415    -1.751355     0.215966 
x,y,z [Debye]:    -4.705922    -4.451591     0.548942 

 

                        *** CIS RELAXED DENSITY ***

------------------------------------------------------------------------------
                       ORCA ELECTRIC PROPERTIES CALCULATION
------------------------------------------------------------------------------

Dipole Moment Calculation                       ... on
Quadrupole Moment Calculation                   ... off
Polarizability Calculation                      ... off
GBWName                                         ... i-cc34.gbw
Electron density file                           ... i-cc34.cisp
The origin for moment calculation is the CENTER OF MASS  = ( 9.925740, -4.030270 -5.080111)

-------------
DIPOLE MOMENT
-------------
                                X             Y             Z
Electronic contribution:     12.63214      34.27153     -23.65097
Nuclear contribution   :    -13.12764     -36.08849      25.75727
                        -----------------------------------------
Total Dipole Moment    :     -0.49550      -1.81697       2.10630
                        -----------------------------------------
Magnitude (a.u.)       :      2.82549
Magnitude (Debye)      :      7.18182



--------------------
Rotational spectrum 
--------------------
 
Rotational constants in cm-1:     0.000835     0.000200     0.000190 
Rotational constants in MHz :    25.032205     5.989546     5.688589 

 Dipole components along the rotational axes: 
x,y,z [a.u.] :    -1.350467    -2.425791     0.524563 
x,y,z [Debye]:    -3.432615    -6.165871     1.333334 

 

Timings for individual modules:

Sum of individual times         ...    90423.218 sec (=1507.054 min)
GTO integral calculation        ...        2.764 sec (=   0.046 min)   0.0 %
SCF iterations                  ...    12094.565 sec (= 201.576 min)  13.4 %
CIS module                      ...    41957.341 sec (= 699.289 min)  46.4 %
SCF Gradient evaluation         ...    36368.548 sec (= 606.142 min)  40.2 %
                             ****ORCA TERMINATED NORMALLY****
TOTAL RUN TIME: 1 days 1 hours 7 minutes 4 seconds 472 msec
